 Gaussian 16, Revision A.03,

 -----------------------------------------------------------
 # opt freq B3LYP/6-31G(d) empiricaldispersion=gd3bj scf=xqc
 -----------------------------------------------------------

 -------------------------------
 CID_139746177_JID_3409_neutraal
 -------------------------------
 Symbolic Z-matrix:
 Charge =  0 Multiplicity = 1

 SCF Done:  E(RB3LYP) =  -519.870126954     A.U. after   14 cycles
 SCF Done:  E(RB3LYP) =  -519.872962878     A.U. after   12 cycles
 SCF Done:  E(RB3LYP) =  -519.873254681     A.U. after   11 cycles
 SCF Done:  E(RB3LYP) =  -519.873494777     A.U. after   11 cycles
 SCF Done:  E(RB3LYP) =  -519.873687692     A.U. after   12 cycles
 SCF Done:  E(RB3LYP) =  -519.874082004     A.U. after   10 cycles
 SCF Done:  E(RB3LYP) =  -519.874546853     A.U. after   11 cycles
 SCF Done:  E(RB3LYP) =  -519.874937197     A.U. after   12 cycles
 SCF Done:  E(RB3LYP) =  -519.875098782     A.U. after   11 cycles
 SCF Done:  E(RB3LYP) =  -519.875195210     A.U. after   11 cycles
 SCF Done:  E(RB3LYP) =  -519.875336508     A.U. after   11 cycles
 SCF Done:  E(RB3LYP) =  -519.875341074     A.U. after   10 cycles
 SCF Done:  E(RB3LYP) =  -519.875341873     A.U. after    9 cycles
 SCF Done:  E(RB3LYP) =  -519.875342167     A.U. after    9 cycles
 SCF Done:  E(RB3LYP) =  -519.875342330     A.U. after    8 cycles
 SCF Done:  E(RB3LYP) =  -519.875342335     A.U. after    7 cycles
 Optimization completed.
    -- Stationary point found.
 Normal termination of Gaussian 16 at Wed Dec  9 23:10:45 2020.

 --------------------------------------------------------------------
 #N Geom=AllCheck Guess=TCheck SCRF=Check GenChk RB3LYP/6-31G(d) Freq
 --------------------------------------------------------------------

 Structure from the checkpoint file:  "JID_3409.chk"
 -------------------------------
 CID_139746177_JID_3409_neutraal
 -------------------------------
 Charge =  0 Multiplicity = 1

 SCF Done:  E(RB3LYP) =  -519.875342335     A.U. after    1 cycles

  Exact polarizability: 189.256   8.622 144.886 -12.432   4.962  67.246
 Approx polarizability: 284.998  15.300 239.470 -25.994   9.527 104.826

                      1                      2                      3
                      A                      A                      A
 Frequencies --     38.3992                79.4872               106.6095
 Red. masses --      3.2190                 3.1513                 2.8501
 Frc consts  --      0.0028                 0.0117                 0.0191
 IR Inten    --      1.3811                 2.4181                 0.0718

                      4                      5                      6
                      A                      A                      A
 Frequencies --    152.3260               180.9366               213.7207
 Red. masses --      2.8719                 2.5701                 3.3111
 Frc consts  --      0.0393                 0.0496                 0.0891
 IR Inten    --      2.6347                 5.4711                 2.5566

                      7                      8                      9
                      A                      A                      A
 Frequencies --    288.9440               327.7676               365.9482
 Red. masses --      1.4922                 2.6197                 2.5484
 Frc consts  --      0.0734                 0.1658                 0.2011
 IR Inten    --     43.7202                17.5934                 4.7497

                     10                     11                     12
                      A                      A                      A
 Frequencies --    398.4216               418.5620               438.0421
 Red. masses --      3.4089                 4.0125                 4.0226
 Frc consts  --      0.3188                 0.4142                 0.4548
 IR Inten    --      0.9262                 2.6965                 4.3711

                     13                     14                     15
                      A                      A                      A
 Frequencies --    515.2311               529.8358               546.5385
 Red. masses --      5.6891                 2.9969                 3.5316
 Frc consts  --      0.8898                 0.4957                 0.6215
 IR Inten    --      2.9554                 6.8997                 0.1412

                     16                     17                     18
                      A                      A                      A
 Frequencies --    579.8572               629.2079               698.7040
 Red. masses --      3.1545                 5.1408                 1.6434
 Frc consts  --      0.6249                 1.1991                 0.4727
 IR Inten    --      2.8473                 4.7242                 8.0537

                     19                     20                     21
                      A                      A                      A
 Frequencies --    728.1804               766.9261               788.6395
 Red. masses --      3.8917                 1.4127                 4.3185
 Frc consts  --      1.2158                 0.4896                 1.5825
 IR Inten    --      1.4037                28.4670                 0.4060

                     22                     23                     24
                      A                      A                      A
 Frequencies --    800.6775               847.8209               863.5348
 Red. masses --      1.9791                 1.6926                 2.1765
 Frc consts  --      0.7475                 0.7168                 0.9562
 IR Inten    --     33.3216                25.0454                72.1942

                     25                     26                     27
                      A                      A                      A
 Frequencies --    890.5822               899.4717               945.2643
 Red. masses --      1.4909                 1.6326                 1.4229
 Frc consts  --      0.6967                 0.7782                 0.7491
 IR Inten    --      6.3302                51.3542                 0.3317

                     28                     29                     30
                      A                      A                      A
 Frequencies --    954.9890               967.4229               978.4780
 Red. masses --      2.1160                 1.8480                 1.2921
 Frc consts  --      1.1370                 1.0190                 0.7289
 IR Inten    --     15.0077                 2.8316                 0.0036

                     31                     32                     33
                      A                      A                      A
 Frequencies --    988.9844               991.3195              1026.1861
 Red. masses --      2.0300                 1.3243                 2.6265
 Frc consts  --      1.1699                 0.7668                 1.6296
 IR Inten    --      3.7436                 0.2013                10.1298

                     34                     35                     36
                      A                      A                      A
 Frequencies --   1066.7000              1081.4567              1146.8224
 Red. masses --      3.3041                 2.2490                 1.9367
 Frc consts  --      2.2151                 1.5497                 1.5007
 IR Inten    --      4.6521                 4.7912                 7.8006

                     37                     38                     39
                      A                      A                      A
 Frequencies --   1160.2127              1183.2672              1196.5539
 Red. masses --      2.1152                 1.1903                 1.1028
 Frc consts  --      1.6775                 0.9819                 0.9303
 IR Inten    --      4.9248                18.7451                 0.3709

                     40                     41                     42
                      A                      A                      A
 Frequencies --   1199.0929              1226.1989              1248.0501
 Red. masses --      1.2101                 1.2235                 1.9342
 Frc consts  --      1.0252                 1.0839                 1.7751
 IR Inten    --      0.8911                 3.2676                 1.5910

                     43                     44                     45
                      A                      A                      A
 Frequencies --   1274.5601              1306.4289              1341.4993
 Red. masses --      1.9191                 1.3455                 1.5946
 Frc consts  --      1.8368                 1.3531                 1.6907
 IR Inten    --      2.6086                 4.9862                 2.3194

                     46                     47                     48
                      A                      A                      A
 Frequencies --   1353.4966              1354.2354              1391.1073
 Red. masses --      4.2498                 1.4823                 1.7157
 Frc consts  --      4.5870                 1.6017                 1.9563
 IR Inten    --      0.8704                 1.1365                 2.5768

                     49                     50                     51
                      A                      A                      A
 Frequencies --   1435.0306              1440.5791              1489.8103
 Red. masses --      1.5004                 1.6166                 1.1048
 Frc consts  --      1.8205                 1.9766                 1.4447
 IR Inten    --     25.2976                15.6184                 3.7540

                     52                     53                     54
                      A                      A                      A
 Frequencies --   1501.4852              1527.6245              1530.6399
 Red. masses --      2.3173                 1.1160                 2.5778
 Frc consts  --      3.0781                 1.5345                 3.5584
 IR Inten    --      5.1008                 5.1523                12.6547

                     55                     56                     57
                      A                      A                      A
 Frequencies --   1622.6763              1658.2309              1693.2457
 Red. masses --      5.5278                 5.5650                 1.1174
 Frc consts  --      8.5757                 9.0158                 1.8876
 IR Inten    --      0.7410                 0.3823                28.7232

                     58                     59                     60
                      A                      A                      A
 Frequencies --   1716.4080              1724.3092              2969.1657
 Red. masses --      6.1587                 6.7537                 1.0744
 Frc consts  --     10.6901                11.8311                 5.5806
 IR Inten    --      3.8286                 1.0859                19.6863

                     61                     62                     63
                      A                      A                      A
 Frequencies --   2981.1030              3020.9496              3085.2567
 Red. masses --      1.0679                 1.0915                 1.0841
 Frc consts  --      5.5917                 5.8690                 6.0801
 IR Inten    --     69.6580                38.6872                22.8475

                     64                     65                     66
                      A                      A                      A
 Frequencies --   3169.7108              3174.6643              3177.6404
 Red. masses --      1.0852                 1.0875                 1.0866
 Frc consts  --      6.4241                 6.4575                 6.4644
 IR Inten    --      2.9224                 8.6808                 8.4507

                     67                     68                     69
                      A                      A                      A
 Frequencies --   3189.2050              3192.7548              3202.8329
 Red. masses --      1.0882                 1.0969                 1.0920
 Frc consts  --      6.5212                 6.5880                 6.6000
 IR Inten    --      2.8083                46.3884                29.4310

                     70                     71                     72
                      A                      A                      A
 Frequencies --   3212.7714              3463.9695              3551.8887
 Red. masses --      1.0962                 1.0496                 1.0928
 Frc consts  --      6.6666                 7.4202                 8.1228
 IR Inten    --     24.9652                 6.5399                 1.1918

 - Thermochemistry -
 -------------------
 Temperature   298.150 Kelvin.  Pressure   1.00000 Atm.
 Atom     1 has atomic number  6 and mass  12.00000

 Molecular mass:   171.10480 amu.
 Principal axes and moments of inertia in atomic units:
                           1         2         3
     Eigenvalues --  1331.629623296.765234374.91490
           X            0.99999   0.00254  -0.00220
           Y           -0.00254   1.00000   0.00168
           Z            0.00221  -0.00168   1.00000
 This molecule is an asymmetric top.
 Rotational symmetry number  1.
 Warning -- assumption of classical behavior for rotation
           may cause significant error
 Rotational temperatures (Kelvin)      0.06504     0.02627     0.01980
 Rotational constants (GHZ):           1.35529     0.54743     0.41252
 Zero-point vibrational energy     581436.9 (Joules/Mol)
                                  138.96674 (Kcal/Mol)
 Warning -- explicit consideration of  16 degrees of freedom as
           vibrations may cause significant error
 Vibrational temperatures:     55.25   114.36   153.39   219.16   260.33
          (Kelvin)            307.50   415.73   471.58   526.52   573.24
                              602.22   630.24   741.30   762.32   786.35
                              834.29   905.29  1005.28  1047.69  1103.44
                             1134.68  1152.00  1219.83  1242.43  1281.35
                             1294.14  1360.02  1374.02  1391.91  1407.81
                             1422.93  1426.29  1476.45  1534.74  1555.97
                             1650.02  1669.29  1702.46  1721.57  1725.23
                             1764.23  1795.67  1833.81  1879.66  1930.12
                             1947.38  1948.44  2001.49  2064.69  2072.67
                             2143.50  2160.30  2197.91  2202.25  2334.67
                             2385.82  2436.20  2469.53  2480.90  4271.97
                             4289.14  4346.47  4439.00  4560.51  4567.63
                             4571.92  4588.55  4593.66  4608.16  4622.46
                             4983.88  5110.38

 Zero-point correction=                           0.221458 (Hartree/Particle)
 Thermal correction to Energy=                    0.232641
 Thermal correction to Enthalpy=                  0.233586
 Thermal correction to Gibbs Free Energy=         0.183864
 Sum of electronic and zero-point Energies=           -519.653885
 Sum of electronic and thermal Energies=              -519.642701
 Sum of electronic and thermal Enthalpies=            -519.641757
 Sum of electronic and thermal Free Energies=         -519.691478

                     E (Thermal)             CV                S
                      KCal/Mol        Cal/Mol-Kelvin    Cal/Mol-Kelvin
 Total                  145.985             44.298            104.647
 Electronic               0.000              0.000              0.000
 Translational            0.889              2.981             41.319
 Rotational               0.889              2.981             31.330
 Vibrational            144.207             38.337             31.999
 Vibration     1          0.594              1.982              5.340
 Vibration     2          0.600              1.963              3.903
 Vibration     3          0.605              1.944              3.330
 Vibration     4          0.619              1.900              2.643
 Vibration     5          0.630              1.866              2.319
 Vibration     6          0.644              1.820              2.012
 Vibration     7          0.686              1.694              1.480
 Vibration     8          0.711              1.620              1.271
 Vibration     9          0.739              1.542              1.097
 Vibration    10          0.765              1.474              0.968
 Vibration    11          0.781              1.430              0.897
 Vibration    12          0.798              1.387              0.833
 Vibration    13          0.870              1.216              0.621
 Vibration    14          0.885              1.184              0.588
 Vibration    15          0.902              1.147              0.551
 Vibration    16          0.936              1.075              0.486

 Optimization completed.
    -- Stationary point found.
 Normal termination of Gaussian 16 at Wed Dec  9 23:16:39 2020.

 ----------------------------------------------------------------------
 # B3LYP/6-311++G(d,p) empiricaldispersion=gd3bj scf=xqc pop=npa geom=c
 heck
 ----------------------------------------------------------------------

 ---------------------------------------
 CID_139746177_JID_3409_Energie_neutraal
 ---------------------------------------
 Structure from the checkpoint file:  "JID_3409.chk"
 Charge =  0 Multiplicity = 1

 SCF Done:  E(RB3LYP) =  -520.017871076     A.U. after   15 cycles
 Normal termination of Gaussian 16 at Wed Dec  9 23:18:56 2020.

 ----------------------------------------------------------------------
 # B3LYP/6-311++G(d,p) empiricaldispersion=gd3bj scf=xqc pop=npa geom=c
 heck
 ----------------------------------------------------------------------

 -------------------------------------
 CID_139746177_JID_3409_Energie_kation
 -------------------------------------
 Structure from the checkpoint file:  "JID_3409.chk"
 Charge =  1 Multiplicity = 2

 SCF Done:  E(UB3LYP) =  -519.743055149     A.U. after   23 cycles
 Normal termination of Gaussian 16 at Wed Dec  9 23:23:25 2020.
 Gaussian 16:  ES64L-G16RevA.03 25-Dec-2016

 ----------------------------------------------------------------------
 # B3LYP/6-311++G(d,p) empiricaldispersion=gd3bj scf=xqc pop=npa geom=c
 heck
 ----------------------------------------------------------------------

 ------------------------------------
 CID_139746177_JID_3409_Energie_anion
 ------------------------------------
 Structure from the checkpoint file:  "JID_3409.chk"
 Charge = -1 Multiplicity = 2

                         Standard orientation:
 ---------------------------------------------------------------------
 Center     Atomic      Atomic             Coordinates (Angstroms)
 Number     Number       Type             X           Y           Z
 ---------------------------------------------------------------------
      1          6           0        0.996811    1.641592   -0.650250
      2          6           0       -0.035889    2.530715   -0.006801
      3          6           0       -1.223847    2.056899    0.389156
      4          6           0       -1.589934    0.653394    0.206658
      5          6           0       -2.907296    0.223395    0.410961
      6          6           0       -3.268105   -1.105794    0.206969
      7          6           0       -2.303870   -2.023277   -0.213778
      8          6           0       -0.987416   -1.610139   -0.411122
      9          6           0       -0.601517   -0.281975   -0.189965
     10          6           0        0.804186    0.172579   -0.323469
     11          6           0        1.827040   -0.682935   -0.140220
     12          6           0        3.297654   -0.404357   -0.240677
     13          7           0        4.005172   -1.103993    0.841970
     14          1           0        2.001068    1.970466   -0.364020
     15          1           0        0.947931    1.786792   -1.744332
     16          1           0        0.199117    3.587890    0.089972
     17          1           0       -1.970585    2.719126    0.821647
     18          1           0       -3.653807    0.948546    0.726188
     19          1           0       -4.295544   -1.421878    0.363279
     20          1           0       -2.576928   -3.058556   -0.397435
     21          1           0       -0.250544   -2.325786   -0.761849
     22          1           0        1.607435   -1.714745    0.126488
     23          1           0        3.677157   -0.814807   -1.188925
     24          1           0        3.494975    0.679755   -0.279858
     25          1           0        5.008109   -0.948644    0.754240
     26          1           0        3.728505   -0.700795    1.736043
 ---------------------------------------------------------------------

 SCF Done:  E(UB3LYP) =  -520.013866723     A.U. after   29 cycles

 The electronic state is 2-A.
 Alpha  occ. eigenvalues --  -14.16934 -10.06784 -10.04704 -10.04190 -10.03802
 Alpha  occ. eigenvalues --  -10.03729 -10.03713 -10.03665 -10.03505 -10.03489
 Alpha  occ. eigenvalues --  -10.03398 -10.03241 -10.01936  -0.75899  -0.73397
 Alpha  occ. eigenvalues --   -0.68590  -0.65066  -0.60894  -0.60414  -0.56439
 Alpha  occ. eigenvalues --   -0.51280  -0.47948  -0.47427  -0.42281  -0.38423
 Alpha  occ. eigenvalues --   -0.38094  -0.36280  -0.35170  -0.33823  -0.30726
 Alpha  occ. eigenvalues --   -0.30426  -0.29658  -0.28559  -0.27881  -0.27553
 Alpha  occ. eigenvalues --   -0.25104  -0.24372  -0.23578  -0.23093  -0.19984
 Alpha  occ. eigenvalues --   -0.18909  -0.16771  -0.15132  -0.12380  -0.10585
 Alpha  occ. eigenvalues --   -0.07945   0.04946
 Alpha virt. eigenvalues --    0.07481   0.08425   0.09052   0.09771   0.10369
 Alpha virt. eigenvalues --    0.10514   0.10865   0.11809   0.12272   0.12726
 Alpha virt. eigenvalues --    0.13496   0.14357   0.14996   0.15303   0.15960

  Beta  occ. eigenvalues --  -14.16869 -10.06783 -10.04725 -10.04254 -10.03768
  Beta  occ. eigenvalues --  -10.03714 -10.03630 -10.03576 -10.03488 -10.03333
  Beta  occ. eigenvalues --  -10.03187 -10.03031 -10.01756  -0.75766  -0.73117
  Beta  occ. eigenvalues --   -0.68361  -0.64783  -0.60532  -0.60211  -0.56238
  Beta  occ. eigenvalues --   -0.51142  -0.47806  -0.47063  -0.42047  -0.38205
  Beta  occ. eigenvalues --   -0.38005  -0.36146  -0.35029  -0.33665  -0.30546
  Beta  occ. eigenvalues --   -0.30205  -0.29556  -0.28417  -0.27705  -0.27397
  Beta  occ. eigenvalues --   -0.24946  -0.23956  -0.23373  -0.22895  -0.19845
  Beta  occ. eigenvalues --   -0.18746  -0.16000  -0.14292  -0.12267  -0.10048
  Beta  occ. eigenvalues --   -0.06882
  Beta virt. eigenvalues --    0.08042   0.08410   0.08981   0.09554   0.09960
  Beta virt. eigenvalues --    0.10516   0.10863   0.10917   0.11983   0.12485
  Beta virt. eigenvalues --    0.12795   0.13529   0.14456   0.15009   0.15582

 Mulliken charges and spin densities:
               1          2
     1  C   -1.146790  -0.063531
     2  C    0.290193   0.136903
     3  C   -0.619721  -0.023695
     4  C    0.398725   0.147948
     5  C   -0.265614  -0.049822
     6  C   -0.500239   0.119218
     7  C   -0.342860   0.069057
     8  C   -0.316708  -0.025515
     9  C    0.838424   0.140277
    10  C    0.568763   0.254714
    11  C   -0.217676  -0.145327
    12  C    0.094734  -0.702370
    13  N   -0.333576  -0.011965
    14  H    0.011745   0.055774
    15  H    0.145414   0.011892
    16  H    0.151621  -0.008023
    17  H    0.075209  -0.002560
    18  H    0.095866   0.004325
    19  H    0.106249  -0.010567
    20  H    0.117374  -0.005163
    21  H    0.112871  -0.000969
    22  H    0.129259   0.000287
    23  H   -0.018122   0.172406
    24  H   -0.112049   0.241066
    25  H   -0.290530   0.522993
    26  H    0.027437   0.172647
 Sum of Mulliken charges =  -1.00000   1.00000

 Dipole moment (field-independent basis, Debye):
    X=             -5.0361    Y=              2.0358    Z=             -1.2496  Tot=              5.5739
 Quadrupole moment (field-independent basis, Debye-Ang):
   XX=           -141.4572   YY=            -97.4699   ZZ=            -93.3676
   XY=              7.7259   XZ=             -6.7361   YZ=              2.6020

 Summary of Natural Population Analysis:

                                       Natural Population
                Natural  -----------------------------------------------
    Atom  No    Charge         Core      Valence    Rydberg      Total
 -----------------------------------------------------------------------
      C    1   -0.21796      0.99959     2.20905    0.00932     3.21796
      C    2   -0.03750      0.99955     2.02963    0.00832     3.03750
      C    3   -0.11191      0.99951     2.10368    0.00871     3.11191
      C    4   -0.00521      0.99948     1.99755    0.00818     3.00521
      C    5   -0.11300      0.99954     2.10464    0.00882     3.11300
      C    6   -0.08724      0.99957     2.07803    0.00964     3.08724
      C    7   -0.10009      0.99958     2.09096    0.00956     3.10009
      C    8   -0.09909      0.99954     2.09166    0.00789     3.09909
      C    9    0.01559      0.99946     1.97591    0.00904     2.98441
      C   10   -0.01181      0.99947     2.00131    0.01104     3.01181
      C   11   -0.06179      0.99948     2.05154    0.01078     3.06179
      C   12   -0.10442      0.99962     2.09285    0.01195     3.10442
      N   13   -0.42151      0.99978     2.91048    0.01126     3.92151
      H   14    0.10191      0.00000     0.39627    0.00182     0.39809
      H   15    0.10434      0.00000     0.39437    0.00129     0.39566
      H   16    0.08475      0.00000     0.41424    0.00101     0.41525
      H   17    0.09004      0.00000     0.40845    0.00151     0.40996
      H   18    0.09006      0.00000     0.40836    0.00158     0.40994
      H   19    0.08846      0.00000     0.41047    0.00107     0.41154
      H   20    0.09004      0.00000     0.40896    0.00100     0.40996
      H   21    0.09671      0.00000     0.40200    0.00129     0.40329
      H   22    0.09311      0.00000     0.40553    0.00136     0.40689
      H   23    0.09248      0.00000     0.40626    0.00126     0.40752
      H   24    0.07908      0.00000     0.41893    0.00199     0.42092
      H   25    0.17354      0.00000     0.32105    0.00541     0.32646
      H   26    0.17143      0.00000     0.32656    0.00202     0.32857
 =======================================================================
   * Total *    0.00000     12.99415    32.85875    0.14710    46.00000

 Normal termination of Gaussian 16 at Wed Dec  9 23:29:01 2020.
