 Gaussian 16, Revision A.03,

 -----------------------------------------------------------
 # opt freq B3LYP/6-31G(d) empiricaldispersion=gd3bj scf=xqc
 -----------------------------------------------------------

 ----------------------------
 CID_295917_JID_4450_neutraal
 ----------------------------
 Symbolic Z-matrix:
 Charge =  0 Multiplicity = 1

 SCF Done:  E(RB3LYP) =  -733.542021027     A.U. after   15 cycles
 SCF Done:  E(RB3LYP) =  -733.554597966     A.U. after   13 cycles
 SCF Done:  E(RB3LYP) =  -733.558237069     A.U. after   13 cycles
 SCF Done:  E(RB3LYP) =  -733.562532061     A.U. after   13 cycles
 SCF Done:  E(RB3LYP) =  -733.564945353     A.U. after   12 cycles
 SCF Done:  E(RB3LYP) =  -733.565776556     A.U. after   12 cycles
 SCF Done:  E(RB3LYP) =  -733.565992411     A.U. after   11 cycles
 SCF Done:  E(RB3LYP) =  -733.566130904     A.U. after   12 cycles
 SCF Done:  E(RB3LYP) =  -733.566241887     A.U. after   11 cycles
 SCF Done:  E(RB3LYP) =  -733.566302893     A.U. after   11 cycles
 SCF Done:  E(RB3LYP) =  -733.566377738     A.U. after    9 cycles
 SCF Done:  E(RB3LYP) =  -733.566381935     A.U. after    9 cycles
 SCF Done:  E(RB3LYP) =  -733.566383779     A.U. after    8 cycles
 SCF Done:  E(RB3LYP) =  -733.566384526     A.U. after    8 cycles
 SCF Done:  E(RB3LYP) =  -733.566384803     A.U. after    8 cycles
 SCF Done:  E(RB3LYP) =  -733.566384858     A.U. after    7 cycles
 Optimization completed.
    -- Stationary point found.
 Normal termination of Gaussian 16 at Thu Dec 10 09:49:33 2020.

 --------------------------------------------------------------------
 #N Geom=AllCheck Guess=TCheck SCRF=Check GenChk RB3LYP/6-31G(d) Freq
 --------------------------------------------------------------------

 Structure from the checkpoint file:  "JID_4450.chk"
 ----------------------------
 CID_295917_JID_4450_neutraal
 ----------------------------
 Charge =  0 Multiplicity = 1

 SCF Done:  E(RB3LYP) =  -733.566384858     A.U. after    1 cycles

  Exact polarizability: 135.392   6.208  99.267  11.640  -1.820  71.759
 Approx polarizability: 190.874  24.628 182.144  25.477  -7.491 108.202

                      1                      2                      3
                      A                      A                      A
 Frequencies --     53.7179                63.1886                77.0999
 Red. masses --      5.7979                 4.4201                 6.7158
 Frc consts  --      0.0099                 0.0104                 0.0235
 IR Inten    --      1.3445                 2.5169                 0.7569

                      4                      5                      6
                      A                      A                      A
 Frequencies --    128.0127               137.0651               166.9270
 Red. masses --      4.6789                 6.1838                 6.6991
 Frc consts  --      0.0452                 0.0684                 0.1100
 IR Inten    --      3.0399                 8.0843                 0.5267

                      7                      8                      9
                      A                      A                      A
 Frequencies --    205.2310               225.1552               272.6063
 Red. masses --      1.0982                 5.6212                 4.0681
 Frc consts  --      0.0273                 0.1679                 0.1781
 IR Inten    --      0.5001                10.5328                 4.8567

                     10                     11                     12
                      A                      A                      A
 Frequencies --    299.1920               332.1066               340.4712
 Red. masses --      3.9664                 5.6175                 3.3448
 Frc consts  --      0.2092                 0.3650                 0.2284
 IR Inten    --      6.9788                17.1218                 4.0792

                     13                     14                     15
                      A                      A                      A
 Frequencies --    353.1690               389.7748               429.2035
 Red. masses --      1.1544                 4.9217                 4.6599
 Frc consts  --      0.0848                 0.4405                 0.5058
 IR Inten    --     88.8098                 8.9353                18.9937

                     16                     17                     18
                      A                      A                      A
 Frequencies --    510.4872               538.2038               547.1030
 Red. masses --      1.4531                 5.1645                 1.5608
 Frc consts  --      0.2231                 0.8814                 0.2752
 IR Inten    --     56.7764                36.6655               217.7346

                     19                     20                     21
                      A                      A                      A
 Frequencies --    564.4939               602.6246               612.7352
 Red. masses --      3.5111                 1.5034                 1.7274
 Frc consts  --      0.6592                 0.3217                 0.3821
 IR Inten    --     36.9447                87.8326                29.5920

                     22                     23                     24
                      A                      A                      A
 Frequencies --    643.9324               662.7206               695.7984
 Red. masses --      5.4278                 4.6887                 4.7413
 Frc consts  --      1.3260                 1.2133                 1.3524
 IR Inten    --      1.6846                 4.6859                 1.7421

                     25                     26                     27
                      A                      A                      A
 Frequencies --    709.0118               731.0285               752.9189
 Red. masses --      3.6251                 4.9378                 6.7299
 Frc consts  --      1.0737                 1.5547                 2.2478
 IR Inten    --     45.6927                28.8570                15.0808

                     28                     29                     30
                      A                      A                      A
 Frequencies --    769.4446               809.9399               891.9272
 Red. masses --      1.9169                 4.4717                 1.9499
 Frc consts  --      0.6687                 1.7283                 0.9140
 IR Inten    --     69.9590                69.8376                79.4046

                     31                     32                     33
                      A                      A                      A
 Frequencies --    904.2522              1056.4567              1068.2920
 Red. masses --      4.9506                 3.7859                 2.3017
 Frc consts  --      2.3850                 2.4896                 1.5477
 IR Inten    --      6.2379                 5.3590                22.9899

                     34                     35                     36
                      A                      A                      A
 Frequencies --   1116.8777              1153.4821              1160.3963
 Red. masses --      2.0070                 2.2587                 1.3729
 Frc consts  --      1.4751                 1.7706                 1.0892
 IR Inten    --     36.3634                63.3988                17.9973

                     37                     38                     39
                      A                      A                      A
 Frequencies --   1203.7617              1210.4430              1299.7411
 Red. masses --      3.0206                 2.8530                 2.7137
 Frc consts  --      2.5789                 2.4629                 2.7010
 IR Inten    --     20.4938                28.7548                87.7884

                     40                     41                     42
                      A                      A                      A
 Frequencies --   1346.4921              1364.1740              1401.4166
 Red. masses --      1.7826                 2.6268                 2.1484
 Frc consts  --      1.9041                 2.8801                 2.4860
 IR Inten    --     62.8913               131.6888               235.8055

                     43                     44                     45
                      A                      A                      A
 Frequencies --   1446.4242              1483.5763              1488.1125
 Red. masses --      1.4605                 1.9120                 3.6223
 Frc consts  --      1.8003                 2.4795                 4.7261
 IR Inten    --      4.8801                91.6321               177.7921

                     46                     47                     48
                      A                      A                      A
 Frequencies --   1510.6869              1524.4517              1549.5228
 Red. masses --      1.3182                 1.1009                 1.2271
 Frc consts  --      1.7725                 1.5074                 1.7358
 IR Inten    --     46.4596                15.0931                42.7273

                     49                     50                     51
                      A                      A                      A
 Frequencies --   1553.6514              1630.9049              1656.9818
 Red. masses --      2.6298                 2.2967                 5.5352
 Frc consts  --      3.7401                 3.5992                 8.9540
 IR Inten    --     13.4279               260.4377               353.8034

                     52                     53                     54
                      A                      A                      A
 Frequencies --   1691.0695              1805.2407              1826.7218
 Red. masses --      1.7929                 8.9012                 7.0854
 Frc consts  --      3.0208                17.0910                13.9303
 IR Inten    --    528.7124               252.2684               654.3688

                     55                     56                     57
                      A                      A                      A
 Frequencies --   3052.2999              3113.2652              3140.8738
 Red. masses --      1.0373                 1.0997                 1.1042
 Frc consts  --      5.6940                 6.2801                 6.4180
 IR Inten    --     41.7599                34.6316                19.1583

                     58                     59                     60
                      A                      A                      A
 Frequencies --   3516.5301              3555.6610              3578.1183
 Red. masses --      1.0738                 1.0635                 1.0507
 Frc consts  --      7.8237                 7.9222                 7.9256
 IR Inten    --     25.0149               110.5881                59.9263

                     61                     62                     63
                      A                      A                      A
 Frequencies --   3586.2621              3640.7080              3689.5628
 Red. masses --      1.0740                 1.0765                 1.1016
 Frc consts  --      8.1386                 8.4068                 8.8357
 IR Inten    --     42.5608                39.6307                39.9767

 - Thermochemistry -
 -------------------
 Temperature   298.150 Kelvin.  Pressure   1.00000 Atm.
 Atom     1 has atomic number  6 and mass  12.00000

 Molecular mass:   199.07054 amu.
 Principal axes and moments of inertia in atomic units:
                           1         2         3
     Eigenvalues --  1476.980233587.690744139.15373
           X            0.99976  -0.02044  -0.00745
           Y            0.02060   0.99953   0.02266
           Z            0.00698  -0.02281   0.99972
 This molecule is an asymmetric top.
 Rotational symmetry number  1.
 Warning -- assumption of classical behavior for rotation
           may cause significant error
 Rotational temperatures (Kelvin)      0.05864     0.02414     0.02093
 Rotational constants (GHZ):           1.22191     0.50304     0.43602
 Zero-point vibrational energy     465596.8 (Joules/Mol)
                                  111.28030 (Kcal/Mol)
 Warning -- explicit consideration of  21 degrees of freedom as
           vibrations may cause significant error
 Vibrational temperatures:     77.29    90.91   110.93   184.18   197.21
          (Kelvin)            240.17   295.28   323.95   392.22   430.47
                              477.83   489.86   508.13   560.80   617.53
                              734.48   774.36   787.16   812.18   867.04
                              881.59   926.48   953.51  1001.10  1020.11
                             1051.79  1083.28  1107.06  1165.32  1283.28
                             1301.02  1520.01  1537.03  1606.94  1659.60
                             1669.55  1731.94  1741.56  1870.04  1937.30
                             1962.74  2016.33  2081.08  2134.54  2141.06
                             2173.54  2193.35  2229.42  2235.36  2346.51
                             2384.03  2433.07  2597.34  2628.25  4391.58
                             4479.29  4519.02  5059.50  5115.80  5148.11
                             5159.83  5238.17  5308.46

 Zero-point correction=                           0.177336 (Hartree/Particle)
 Thermal correction to Energy=                    0.190497
 Thermal correction to Enthalpy=                  0.191441
 Thermal correction to Gibbs Free Energy=         0.137616
 Sum of electronic and zero-point Energies=           -733.389048
 Sum of electronic and thermal Energies=              -733.375888
 Sum of electronic and thermal Enthalpies=            -733.374944
 Sum of electronic and thermal Free Energies=         -733.428769

                     E (Thermal)             CV                S
                      KCal/Mol        Cal/Mol-Kelvin    Cal/Mol-Kelvin
 Total                  119.539             49.273            113.285
 Electronic               0.000              0.000              0.000
 Translational            0.889              2.981             41.770
 Rotational               0.889              2.981             31.462
 Vibrational            117.761             43.312             40.053
 Vibration     1          0.596              1.976              4.676
 Vibration     2          0.597              1.972              4.355
 Vibration     3          0.599              1.964              3.963
 Vibration     4          0.611              1.925              2.976
 Vibration     5          0.614              1.916              2.844
 Vibration     6          0.624              1.883              2.470
 Vibration     7          0.640              1.832              2.086
 Vibration     8          0.650              1.803              1.917
 Vibration     9          0.676              1.724              1.580
 Vibration    10          0.692              1.675              1.421
 Vibration    11          0.714              1.611              1.250
 Vibration    12          0.720              1.595              1.210
 Vibration    13          0.729              1.569              1.152
 Vibration    14          0.758              1.492              1.001
 Vibration    15          0.791              1.407              0.861
 Vibration    16          0.866              1.227              0.632
 Vibration    17          0.893              1.166              0.569
 Vibration    18          0.902              1.146              0.550
 Vibration    19          0.920              1.108              0.515
 Vibration    20          0.961              1.026              0.445
 Vibration    21          0.972              1.005              0.428

 Optimization completed.
    -- Stationary point found.
 Normal termination of Gaussian 16 at Thu Dec 10 09:55:28 2020.

 ----------------------------------------------------------------------
 # B3LYP/6-311++G(d,p) empiricaldispersion=gd3bj scf=xqc pop=npa geom=c
 heck
 ----------------------------------------------------------------------

 ------------------------------------
 CID_295917_JID_4450_Energie_neutraal
 ------------------------------------
 Structure from the checkpoint file:  "JID_4450.chk"
 Charge =  0 Multiplicity = 1

 SCF Done:  E(RB3LYP) =  -733.803347901     A.U. after   15 cycles
 Normal termination of Gaussian 16 at Thu Dec 10 09:57:23 2020.

 ----------------------------------------------------------------------
 # B3LYP/6-311++G(d,p) empiricaldispersion=gd3bj scf=xqc pop=npa geom=c
 heck
 ----------------------------------------------------------------------

 ----------------------------------
 CID_295917_JID_4450_Energie_kation
 ----------------------------------
 Structure from the checkpoint file:  "JID_4450.chk"
 Charge =  1 Multiplicity = 2

 SCF Done:  E(UB3LYP) =  -733.495143297     A.U. after   28 cycles
 Normal termination of Gaussian 16 at Thu Dec 10 10:02:20 2020.
 Gaussian 16:  ES64L-G16RevA.03 25-Dec-2016

 ----------------------------------------------------------------------
 # B3LYP/6-311++G(d,p) empiricaldispersion=gd3bj scf=xqc pop=npa geom=c
 heck
 ----------------------------------------------------------------------

 ---------------------------------
 CID_295917_JID_4450_Energie_anion
 ---------------------------------
 Structure from the checkpoint file:  "JID_4450.chk"
 Charge = -1 Multiplicity = 2

                         Standard orientation:
 ---------------------------------------------------------------------
 Center     Atomic      Atomic             Coordinates (Angstroms)
 Number     Number       Type             X           Y           Z
 ---------------------------------------------------------------------
      1          6           0       -1.481222    0.974763    1.865818
      2          7           0       -2.390867    0.069974    1.182030
      3          6           0       -2.514035   -0.167532   -0.160026
      4          8           0       -3.516832   -0.659619   -0.653802
      5          7           0       -1.429230    0.234208   -0.984567
      6          6           0       -0.074280    0.019894   -0.589651
      7          6           0        0.778433    1.109975   -0.539193
      8          7           0        2.086255    1.064863   -0.194906
      9          6           0        2.552765   -0.117703    0.133657
     10          7           0        1.796769   -1.249849    0.125578
     11          6           0        0.415385   -1.282897   -0.243139
     12          8           0       -0.190024   -2.344508   -0.217417
     13          7           0        3.851414   -0.223158    0.554171
     14          8           0        0.315003    2.332696   -0.837051
     15          1           0       -1.226680    1.832855    1.237865
     16          1           0       -0.549748    0.484482    2.171448
     17          1           0       -1.980446    1.353521    2.762206
     18          1           0       -3.208980   -0.241176    1.684805
     19          1           0       -1.644881   -0.111736   -1.917008
     20          1           0        2.171347   -2.139442    0.435744
     21          1           0        4.400865    0.607970    0.378788
     22          1           0        4.337469   -1.097382    0.408827
     23          1           0       -0.626779    2.191088   -1.077463
 ---------------------------------------------------------------------

 SCF Done:  E(UB3LYP) =  -733.804930343     A.U. after   32 cycles

 The electronic state is 2-A.
 Alpha  occ. eigenvalues --  -19.07303 -18.99359 -18.98930 -14.26354 -14.25113
 Alpha  occ. eigenvalues --  -14.24762 -14.23114 -14.20578 -10.20683 -10.19865
 Alpha  occ. eigenvalues --  -10.18102 -10.17980 -10.11968 -10.10175  -0.99885
 Alpha  occ. eigenvalues --   -0.96119  -0.94790  -0.90620  -0.84561  -0.82102
 Alpha  occ. eigenvalues --   -0.80466  -0.80198  -0.66324  -0.62324  -0.57956
 Alpha  occ. eigenvalues --   -0.55343  -0.52153  -0.49290  -0.47019  -0.45379
 Alpha  occ. eigenvalues --   -0.42528  -0.41347  -0.39821  -0.39034  -0.37766
 Alpha  occ. eigenvalues --   -0.36879  -0.36085  -0.33480  -0.33031  -0.32488
 Alpha  occ. eigenvalues --   -0.31359  -0.30740  -0.30395  -0.28526  -0.21029
 Alpha  occ. eigenvalues --   -0.19995  -0.19336  -0.18572  -0.17687  -0.16697
 Alpha  occ. eigenvalues --   -0.16498  -0.12857   0.03815
 Alpha virt. eigenvalues --    0.05551   0.07113   0.07905   0.08788   0.09050
 Alpha virt. eigenvalues --    0.10333   0.10491   0.11117   0.12131   0.12592
 Alpha virt. eigenvalues --    0.12916   0.13648   0.14582   0.15365   0.15728

  Beta  occ. eigenvalues --  -19.07285 -18.99357 -18.98921 -14.26292 -14.25111
  Beta  occ. eigenvalues --  -14.24755 -14.22975 -14.20585 -10.20682 -10.19784
  Beta  occ. eigenvalues --  -10.18031 -10.17973 -10.11946 -10.10164  -0.99831
  Beta  occ. eigenvalues --   -0.96112  -0.94747  -0.90529  -0.84549  -0.82081
  Beta  occ. eigenvalues --   -0.80332  -0.80108  -0.66240  -0.62284  -0.57800
  Beta  occ. eigenvalues --   -0.55267  -0.52125  -0.49222  -0.46882  -0.45294
  Beta  occ. eigenvalues --   -0.42442  -0.41307  -0.39737  -0.38934  -0.37617
  Beta  occ. eigenvalues --   -0.36836  -0.35969  -0.33454  -0.32988  -0.32388
  Beta  occ. eigenvalues --   -0.31341  -0.30676  -0.30354  -0.28371  -0.21010
  Beta  occ. eigenvalues --   -0.19976  -0.19207  -0.18412  -0.17665  -0.16672
  Beta  occ. eigenvalues --   -0.16481  -0.12752
  Beta virt. eigenvalues --    0.05961   0.07584   0.07872   0.08112   0.08978
  Beta virt. eigenvalues --    0.10104   0.10507   0.10944   0.11567   0.12198
  Beta virt. eigenvalues --    0.12823   0.13370   0.13950   0.14524   0.15401

 Mulliken charges and spin densities:
               1          2
     1  C    0.080013  -0.481884
     2  N   -0.312679   0.042948
     3  C    0.278276  -0.066412
     4  O   -0.379287   0.008190
     5  N   -0.404710   0.031947
     6  C   -0.330801   0.331076
     7  C    0.868986  -0.969584
     8  N   -0.122023  -0.133325
     9  C    0.632654  -0.490149
    10  N   -0.297325   0.014506
    11  C    0.558613  -0.435643
    12  O   -0.363139   0.017846
    13  N   -0.429063   0.174865
    14  O   -0.183730   0.007668
    15  H    0.087383   0.043999
    16  H    0.073703   0.130243
    17  H   -0.355057   0.522968
    18  H    0.265721   0.054710
    19  H    0.275475   0.033605
    20  H   -0.111702   0.454414
    21  H   -0.193483   0.483955
    22  H   -0.942278   1.230576
    23  H    0.304452  -0.006520
 Sum of Mulliken charges =  -1.00000   1.00000

 Dipole moment (field-independent basis, Debye):
    X=             -7.4209    Y=              4.8552    Z=             -0.4099  Tot=              8.8775
 Quadrupole moment (field-independent basis, Debye-Ang):
   XX=           -173.0635   YY=           -121.3829   ZZ=            -98.3979
   XY=              6.4071   XZ=             -5.5804   YZ=             -2.1074

 Summary of Natural Population Analysis:

                                       Natural Population
                Natural  -----------------------------------------------
    Atom  No    Charge         Core      Valence    Rydberg      Total
 -----------------------------------------------------------------------
      C    1   -0.18297      0.99965     2.17468    0.00864     3.18297
      N    2   -0.32471      0.99967     2.81630    0.00874     3.82471
      C    3    0.41523      0.99970     1.56151    0.02356     2.58477
      O    4   -0.33411      0.99987     3.32889    0.00535     4.33411
      N    5   -0.35482      0.99967     2.84333    0.01181     3.85482
      C    6   -0.07092      0.99939     2.05994    0.01159     3.07092
      C    7    0.29457      0.99941     1.68896    0.01705     2.70543
      N    8   -0.30282      0.99962     2.79254    0.01067     3.80282
      C    9    0.33629      0.99963     1.64723    0.01686     2.66371
      N   10   -0.30406      0.99964     2.79494    0.00949     3.80406
      C   11    0.31684      0.99958     1.66133    0.02225     2.68316
      O   12   -0.32197      0.99988     3.31628    0.00581     4.32197
      N   13   -0.38193      0.99971     2.87293    0.00929     3.88193
      O   14   -0.32933      0.99987     3.32277    0.00670     4.32933
      H   15    0.09729      0.00000     0.40108    0.00162     0.40271
      H   16    0.09793      0.00000     0.40078    0.00129     0.40207
      H   17    0.09758      0.00000     0.40140    0.00102     0.40242
      H   18    0.19540      0.00000     0.30263    0.00197     0.30460
      H   19    0.19692      0.00000     0.30077    0.00230     0.30308
      H   20    0.21015      0.00000     0.28633    0.00352     0.28985
      H   21    0.19979      0.00000     0.29592    0.00430     0.30021
      H   22    0.20751      0.00000     0.23344    0.05905     0.29249
      H   23    0.24214      0.00000     0.25480    0.00306     0.25786
 =======================================================================
   * Total *   -0.00000     13.99529    37.75877    0.24594    52.00000

 Normal termination of Gaussian 16 at Thu Dec 10 10:08:04 2020.
