 Gaussian 16, Revision A.03,

 ----------------------------------------------------------------------
 # opt=(cartesian,calcfc) freq B3LYP/6-31G(d) empiricaldispersion=gd3bj
  scf=xqc
 ----------------------------------------------------------------------

 -------------------------------
 CID_101996513_JID_1810_neutraal
 -------------------------------
 Symbolic Z-matrix:
 Charge =  0 Multiplicity = 1

 SCF Done:  E(RB3LYP) =  -444.796173933     A.U. after   15 cycles
 SCF Done:  E(RB3LYP) =  -444.796212228     A.U. after   11 cycles
 SCF Done:  E(RB3LYP) =  -444.796214150     A.U. after    9 cycles
 SCF Done:  E(RB3LYP) =  -444.796214689     A.U. after    8 cycles
 SCF Done:  E(RB3LYP) =  -444.796214778     A.U. after    8 cycles
 SCF Done:  E(RB3LYP) =  -444.796214800     A.U. after    7 cycles
 Optimization completed.
    -- Stationary point found.
 Normal termination of Gaussian 16 at Wed Dec 30 15:01:38 2020.

 --------------------------------------------------------------------
 #N Geom=AllCheck Guess=TCheck SCRF=Check GenChk RB3LYP/6-31G(d) Freq
 --------------------------------------------------------------------

 Structure from the checkpoint file:  "JID_1810.chk"
 -------------------------------
 CID_101996513_JID_1810_neutraal
 -------------------------------
 Charge =  0 Multiplicity = 1

 SCF Done:  E(RB3LYP) =  -444.796214800     A.U. after    1 cycles

  Exact polarizability: 121.605   0.787 111.043   5.589  -5.474  84.638
 Approx polarizability: 147.842   0.219 171.050  11.948 -16.463 136.447

                      1                      2                      3
                      A                      A                      A
 Frequencies --     36.8265                74.9563                96.0098
 Red. masses --      3.0235                 3.4835                 2.7822
 Frc consts  --      0.0024                 0.0115                 0.0151
 IR Inten    --      0.7435                 0.5533                 0.8280

                      4                      5                      6
                      A                      A                      A
 Frequencies --    131.1930               159.4223               217.4674
 Red. masses --      2.8725                 1.3206                 1.8758
 Frc consts  --      0.0291                 0.0198                 0.0523
 IR Inten    --      1.0372                 0.4660                 1.0413

                      7                      8                      9
                      A                      A                      A
 Frequencies --    250.3361               287.9226               328.7116
 Red. masses --      4.0910                 2.3232                 2.9958
 Frc consts  --      0.1511                 0.1135                 0.1907
 IR Inten    --      1.7049                 2.5360                 6.3087

                     10                     11                     12
                      A                      A                      A
 Frequencies --    348.3017               386.6251               412.7151
 Red. masses --      2.3856                 3.4034                 2.8564
 Frc consts  --      0.1705                 0.2997                 0.2867
 IR Inten    --      0.2957                 1.2441                 1.0024

                     13                     14                     15
                      A                      A                      A
 Frequencies --    462.4039               493.0384               546.1736
 Red. masses --      2.2087                 2.7132                 2.8665
 Frc consts  --      0.2783                 0.3886                 0.5038
 IR Inten    --      0.7634                 1.4446                 4.1421

                     16                     17                     18
                      A                      A                      A
 Frequencies --    595.2986               600.2165               624.1904
 Red. masses --      2.9396                 1.2401                 1.5950
 Frc consts  --      0.6138                 0.2632                 0.3661
 IR Inten    --      1.8371                45.8444                20.6784

                     19                     20                     21
                      A                      A                      A
 Frequencies --    645.4587               768.0579               822.7851
 Red. masses --      2.0383                 2.7455                 1.2516
 Frc consts  --      0.5003                 0.9542                 0.4992
 IR Inten    --     28.2520                 2.3102                 9.0390

                     22                     23                     24
                      A                      A                      A
 Frequencies --    856.9158               871.8841               917.3003
 Red. masses --      1.5063                 3.0851                 3.7640
 Frc consts  --      0.6517                 1.3818                 1.8661
 IR Inten    --      8.6759                 1.8889                 8.8727

                     25                     26                     27
                      A                      A                      A
 Frequencies --    936.6520               938.5791               955.9190
 Red. masses --      2.1909                 2.2099                 1.8945
 Frc consts  --      1.1325                 1.1470                 1.0200
 IR Inten    --      6.5542                12.7198                 0.9176

                     28                     29                     30
                      A                      A                      A
 Frequencies --    993.0640              1025.0491              1080.4528
 Red. masses --      2.3669                 2.0985                 1.9348
 Frc consts  --      1.3753                 1.2991                 1.3307
 IR Inten    --     13.3573                 9.7734                12.7944

                     31                     32                     33
                      A                      A                      A
 Frequencies --   1104.8085              1112.7879              1138.2616
 Red. masses --      1.7597                 1.7944                 1.7375
 Frc consts  --      1.2655                 1.3092                 1.3263
 IR Inten    --      6.8011                 0.0871                28.6310

                     34                     35                     36
                      A                      A                      A
 Frequencies --   1155.1248              1175.8015              1204.4555
 Red. masses --      1.3908                 1.1781                 1.7163
 Frc consts  --      1.0934                 0.9596                 1.4669
 IR Inten    --     30.5181                 6.6102                21.2025

                     37                     38                     39
                      A                      A                      A
 Frequencies --   1216.7326              1279.6239              1285.9057
 Red. masses --      1.7916                 1.7865                 1.3042
 Frc consts  --      1.5627                 1.7235                 1.2706
 IR Inten    --     18.2100                22.1878                 6.7431

                     40                     41                     42
                      A                      A                      A
 Frequencies --   1310.4995              1364.3041              1378.9500
 Red. masses --      1.1609                 1.3131                 1.6242
 Frc consts  --      1.1747                 1.4400                 1.8196
 IR Inten    --      4.6851                 1.9795                29.1868

                     43                     44                     45
                      A                      A                      A
 Frequencies --   1386.6140              1390.2573              1402.3125
 Red. masses --      1.4050                 1.4138                 1.6555
 Frc consts  --      1.5916                 1.6100                 1.9181
 IR Inten    --     23.7388                 4.7252                35.7938

                     46                     47                     48
                      A                      A                      A
 Frequencies --   1406.9574              1429.6375              1486.6674
 Red. masses --      1.4983                 1.8006                 1.1437
 Frc consts  --      1.7475                 2.1683                 1.4894
 IR Inten    --      4.4120                10.3705                 2.5256

                     49                     50                     51
                      A                      A                      A
 Frequencies --   1497.8580              1506.6425              1516.9532
 Red. masses --      1.1040                 1.0945                 1.0828
 Frc consts  --      1.4593                 1.4639                 1.4680
 IR Inten    --     11.9218                 2.0918                 1.9441

                     52                     53                     54
                      A                      A                      A
 Frequencies --   1519.2922              1525.4103              1532.9950
 Red. masses --      1.0929                 1.0465                 1.1032
 Frc consts  --      1.4864                 1.4346                 1.5275
 IR Inten    --      2.9298                17.2767                 2.4018

                     55                     56                     57
                      A                      A                      A
 Frequencies --   1543.7045              1722.5808              2231.4316
 Red. masses --      1.0609                 6.2255                 5.9345
 Frc consts  --      1.4895                10.8839                17.4102
 IR Inten    --     15.7053                51.4180                 0.2225

                     58                     59                     60
                      A                      A                      A
 Frequencies --   2993.5214              3005.7439              3023.4701
 Red. masses --      1.0710                 1.0546                 1.0704
 Frc consts  --      5.6545                 5.6136                 5.7653
 IR Inten    --     50.3876                64.3458                25.5904

                     61                     62                     63
                      A                      A                      A
 Frequencies --   3028.9604              3035.7248              3041.6015
 Red. masses --      1.0734                 1.0662                 1.0636
 Frc consts  --      5.8024                 5.7891                 5.7972
 IR Inten    --     15.7113                18.3399                29.4094

                     64                     65                     66
                      A                      A                      A
 Frequencies --   3044.0621              3074.0832              3080.5294
 Red. masses --      1.0769                 1.0904                 1.0970
 Frc consts  --      5.8792                 6.0711                 6.1334
 IR Inten    --     73.2164                29.6990                68.5463

                     67                     68                     69
                      A                      A                      A
 Frequencies --   3085.2205              3090.1839              3100.6436
 Red. masses --      1.1051                 1.0988                 1.0853
 Frc consts  --      6.1978                 6.1821                 6.1473
 IR Inten    --     65.0172                 7.7655                40.2094

                     70                     71                     72
                      A                      A                      A
 Frequencies --   3159.8754              3202.3864              3495.0558
 Red. masses --      1.0968                 1.0885                 1.1600
 Frc consts  --      6.4524                 6.5767                 8.3489
 IR Inten    --     26.5410                16.2112                51.7509

 - Thermochemistry -
 -------------------
 Temperature   298.150 Kelvin.  Pressure   1.00000 Atm.
 Atom     1 has atomic number  6 and mass  12.00000

 Molecular mass:   149.12045 amu.
 Principal axes and moments of inertia in atomic units:
                           1         2         3
     Eigenvalues --   928.911212525.360933096.78726
           X            0.99989   0.01488  -0.00116
           Y           -0.01486   0.99980   0.01341
           Z            0.00136  -0.01339   0.99991
 This molecule is an asymmetric top.
 Rotational symmetry number  1.
 Warning -- assumption of classical behavior for rotation
           may cause significant error
 Rotational temperatures (Kelvin)      0.09324     0.03430     0.02797
 Rotational constants (GHZ):           1.94286     0.71465     0.58278
 Zero-point vibrational energy     605020.7 (Joules/Mol)
                                  144.60341 (Kcal/Mol)
 Warning -- explicit consideration of  17 degrees of freedom as
           vibrations may cause significant error
 Vibrational temperatures:     52.99   107.85   138.14   188.76   229.37
          (Kelvin)            312.89   360.18   414.26   472.94   501.13
                              556.27   593.81   665.30   709.37   785.82
                              856.50   863.58   898.07   928.67  1105.06
                             1183.80  1232.91  1254.45  1319.79  1347.63
                             1350.41  1375.35  1428.80  1474.82  1554.53
                             1589.57  1601.05  1637.70  1661.97  1691.72
                             1732.94  1750.61  1841.09  1850.13  1885.52
                             1962.93  1984.00  1995.03  2000.27  2017.61
                             2024.30  2056.93  2138.98  2155.08  2167.72
                             2182.56  2185.92  2194.73  2205.64  2221.05
                             2478.41  3210.53  4307.01  4324.60  4350.10
                             4358.00  4367.73  4376.19  4379.73  4422.92
                             4432.19  4438.94  4446.09  4461.13  4546.36
                             4607.52  5028.61

 Zero-point correction=                           0.230440 (Hartree/Particle)
 Thermal correction to Energy=                    0.241907
 Thermal correction to Enthalpy=                  0.242851
 Thermal correction to Gibbs Free Energy=         0.192909
 Sum of electronic and zero-point Energies=           -444.565775
 Sum of electronic and thermal Energies=              -444.554308
 Sum of electronic and thermal Enthalpies=            -444.553363
 Sum of electronic and thermal Free Energies=         -444.603306

                     E (Thermal)             CV                S
                      KCal/Mol        Cal/Mol-Kelvin    Cal/Mol-Kelvin
 Total                  151.799             43.552            105.113
 Electronic               0.000              0.000              0.000
 Translational            0.889              2.981             40.909
 Rotational               0.889              2.981             30.364
 Vibrational            150.022             37.591             33.840
 Vibration     1          0.594              1.982              5.423
 Vibration     2          0.599              1.966              4.019
 Vibration     3          0.603              1.952              3.534
 Vibration     4          0.612              1.922              2.928
 Vibration     5          0.621              1.892              2.557
 Vibration     6          0.646              1.814              1.980
 Vibration     7          0.663              1.762              1.728
 Vibration     8          0.685              1.696              1.486
 Vibration     9          0.712              1.618              1.266
 Vibration    10          0.726              1.579              1.174
 Vibration    11          0.755              1.499              1.013
 Vibration    12          0.776              1.443              0.917
 Vibration    13          0.820              1.333              0.759
 Vibration    14          0.849              1.265              0.676
 Vibration    15          0.901              1.148              0.552
 Vibration    16          0.953              1.042              0.458
 Vibration    17          0.958              1.031              0.449

 Normal termination of Gaussian 16 at Wed Dec 30 15:06:53 2020.

 ----------------------------------------------------------------------
 # B3LYP/6-311++G(d,p) empiricaldispersion=gd3bj scf=xqc pop=npa geom=c
 heck
 ----------------------------------------------------------------------

 ---------------------------------------
 CID_101996513_JID_1810_Energie_neutraal
 ---------------------------------------
 Structure from the checkpoint file:  "JID_1810.chk"
 Charge =  0 Multiplicity = 1

 SCF Done:  E(RB3LYP) =  -444.920112264     A.U. after   15 cycles
 Normal termination of Gaussian 16 at Wed Dec 30 15:08:58 2020.

 ----------------------------------------------------------------------
 # B3LYP/6-311++G(d,p) empiricaldispersion=gd3bj scf=xqc pop=npa geom=c
 heck
 ----------------------------------------------------------------------

 -------------------------------------
 CID_101996513_JID_1810_Energie_kation
 -------------------------------------
 Structure from the checkpoint file:  "JID_1810.chk"
 Charge =  1 Multiplicity = 2

 SCF Done:  E(UB3LYP) =  -444.651407076     A.U. after   19 cycles
 Normal termination of Gaussian 16 at Wed Dec 30 15:12:25 2020.
 Gaussian 16:  ES64L-G16RevA.03 25-Dec-2016

 ----------------------------------------------------------------------
 # B3LYP/6-311++G(d,p) empiricaldispersion=gd3bj scf=xqc pop=npa geom=c
 heck
 ----------------------------------------------------------------------

 ------------------------------------
 CID_101996513_JID_1810_Energie_anion
 ------------------------------------
 Structure from the checkpoint file:  "JID_1810.chk"
 Charge = -1 Multiplicity = 2

                         Standard orientation:
 ---------------------------------------------------------------------
 Center     Atomic      Atomic             Coordinates (Angstroms)
 Number     Number       Type             X           Y           Z
 ---------------------------------------------------------------------
      1          6           0        1.521941    1.939970    0.342355
      2          7           0        0.985994    0.873505   -0.500042
      3          6           0        2.023591   -0.022870   -0.994299
      4          6           0        2.708491   -0.822675    0.037662
      5          6           0        3.270417   -1.442221    0.908908
      6          6           0       -0.261050    0.297427   -0.154579
      7          6           0       -0.493045   -1.029646   -0.163628
      8          6           0       -1.860779   -1.650219   -0.025950
      9          6           0       -2.983522   -0.627041   -0.220349
     10          6           0       -2.672264    0.632270    0.587340
     11          6           0       -1.376222    1.293994    0.100989
     12          1           0        2.400395    2.366904   -0.151782
     13          1           0        1.828825    1.584136    1.338593
     14          1           0        0.791965    2.741039    0.463453
     15          1           0        1.571736   -0.684876   -1.741026
     16          1           0        2.769582    0.590070   -1.516597
     17          1           0        3.757375   -2.000104    1.675945
     18          1           0        0.332283   -1.723886   -0.282675
     19          1           0       -1.961188   -2.121410    0.965498
     20          1           0       -1.966941   -2.469616   -0.750695
     21          1           0       -3.948566   -1.054432    0.077011
     22          1           0       -3.060413   -0.365092   -1.284688
     23          1           0       -3.494364    1.355369    0.528660
     24          1           0       -2.564899    0.359033    1.646025
     25          1           0       -1.557441    1.859864   -0.824745
     26          1           0       -1.065663    2.034531    0.846626
 ---------------------------------------------------------------------

 SCF Done:  E(UB3LYP) =  -444.902893947     A.U. after   33 cycles
 SCF Done:  E(UB3LYP) =  -444.902893947     a.u. after    1 cycles

 The electronic state is 2-A.
 Alpha  occ. eigenvalues --  -14.22180 -10.12089 -10.09445 -10.08643 -10.07553
 Alpha  occ. eigenvalues --  -10.06523 -10.06384 -10.06336 -10.06101 -10.06014
 Alpha  occ. eigenvalues --  -10.04503  -0.84047  -0.72425  -0.67402  -0.63846
 Alpha  occ. eigenvalues --   -0.63585  -0.61018  -0.55469  -0.51261  -0.48521
 Alpha  occ. eigenvalues --   -0.44147  -0.41491  -0.40318  -0.38146  -0.36549
 Alpha  occ. eigenvalues --   -0.35270  -0.33673  -0.32518  -0.31178  -0.29594
 Alpha  occ. eigenvalues --   -0.29392  -0.27861  -0.27465  -0.26574  -0.22729
 Alpha  occ. eigenvalues --   -0.22331  -0.21041  -0.18497  -0.17806  -0.16893
 Alpha  occ. eigenvalues --   -0.09660   0.04641
 Alpha virt. eigenvalues --    0.06614   0.07166   0.07839   0.08679   0.09012
 Alpha virt. eigenvalues --    0.09601   0.10494   0.10750   0.11351   0.11774
 Alpha virt. eigenvalues --    0.11914   0.12463   0.13101   0.13872   0.14195

  Beta  occ. eigenvalues --  -14.22178 -10.12061 -10.09442 -10.08601 -10.07554
  Beta  occ. eigenvalues --  -10.06498 -10.06363 -10.06324 -10.06081 -10.05997
  Beta  occ. eigenvalues --  -10.04493  -0.84033  -0.72397  -0.67375  -0.63808
  Beta  occ. eigenvalues --   -0.63550  -0.60972  -0.55416  -0.51209  -0.48466
  Beta  occ. eigenvalues --   -0.44097  -0.41452  -0.40277  -0.38112  -0.36515
  Beta  occ. eigenvalues --   -0.35236  -0.33629  -0.32488  -0.31140  -0.29558
  Beta  occ. eigenvalues --   -0.29364  -0.27829  -0.27429  -0.26540  -0.22693
  Beta  occ. eigenvalues --   -0.22295  -0.21009  -0.18474  -0.17785  -0.16869
  Beta  occ. eigenvalues --   -0.09636
  Beta virt. eigenvalues --    0.06788   0.07588   0.08101   0.08440   0.09221
  Beta virt. eigenvalues --    0.09578   0.09986   0.10823   0.10947   0.11671
  Beta virt. eigenvalues --    0.12001   0.12296   0.12605   0.13314   0.14115

 Mulliken charges and spin densities:
               1          2
     1  C    0.763932  -1.218422
     2  N    0.122813   0.235357
     3  C    0.685301  -1.549267
     4  C    5.020079  -3.595630
     5  C   -4.965850   3.790722
     6  C   -0.548156   0.165695
     7  C   -0.602493   0.905828
     8  C    1.419094  -2.099377
     9  C   -0.983241   0.822001
    10  C    0.429402  -0.738249
    11  C    0.464978  -0.855746
    12  H   -0.311025   0.470365
    13  H   -0.029912   0.199437
    14  H   -0.422352   0.558220
    15  H   -0.111781   0.315352
    16  H   -0.339988   0.530054
    17  H   -1.108685   1.274963
    18  H    0.337535  -0.196890
    19  H   -0.024768   0.166312
    20  H   -0.125810   0.262594
    21  H   -0.265408   0.419302
    22  H    0.120436   0.000902
    23  H   -0.470536   0.638581
    24  H   -0.002531   0.131348
    25  H   -0.249223   0.438623
    26  H    0.198188  -0.072074
 Sum of Mulliken charges =  -1.00000   1.00000

 Dipole moment (field-independent basis, Debye):
    X=             -1.7945    Y=             -1.4539    Z=             -0.9234  Tot=              2.4873
 Quadrupole moment (field-independent basis, Debye-Ang):
   XX=           -140.2990   YY=           -114.0534   ZZ=            -99.0914
   XY=              2.9918   XZ=             -2.3360   YZ=              3.3640

 Summary of Natural Population Analysis:

                                       Natural Population
                Natural  -----------------------------------------------
    Atom  No    Charge         Core      Valence    Rydberg      Total
 -----------------------------------------------------------------------
      C    1   -0.17625      0.99963     2.16743    0.00919     3.17625
      N    2   -0.26127      0.99968     2.74684    0.01475     3.76127
      C    3   -0.12514      0.99954     2.11260    0.01300     3.12514
      C    4   -0.00905      0.99935     2.00166    0.00803     3.00905
      C    5   -0.11851      0.99925     2.11528    0.00398     3.11851
      C    6    0.09812      0.99944     1.88943    0.01301     2.90188
      C    7   -0.13657      0.99948     2.12904    0.00805     3.13657
      C    8   -0.19608      0.99962     2.18876    0.00770     3.19608
      C    9   -0.18621      0.99963     2.17953    0.00704     3.18621
      C   10   -0.18738      0.99964     2.17842    0.00933     3.18738
      C   11   -0.20473      0.99959     2.19584    0.00930     3.20473
      H   12    0.09676      0.00000     0.40132    0.00192     0.40324
      H   13    0.08913      0.00000     0.40934    0.00153     0.41087
      H   14    0.09933      0.00000     0.39910    0.00157     0.40067
      H   15    0.11438      0.00000     0.38402    0.00161     0.38562
      H   16    0.11138      0.00000     0.38696    0.00166     0.38862
      H   17    0.11129      0.00000     0.38665    0.00206     0.38871
      H   18    0.10074      0.00000     0.39756    0.00170     0.39926
      H   19    0.09505      0.00000     0.40321    0.00174     0.40495
      H   20    0.09677      0.00000     0.40161    0.00161     0.40323
      H   21    0.09687      0.00000     0.40169    0.00145     0.40313
      H   22    0.09287      0.00000     0.40551    0.00162     0.40713
      H   23    0.09951      0.00000     0.39902    0.00147     0.40049
      H   24    0.09304      0.00000     0.40546    0.00150     0.40696
      H   25    0.10223      0.00000     0.39595    0.00182     0.39777
      H   26    0.10370      0.00000     0.39473    0.00157     0.39630
 =======================================================================
   * Total *   -0.00000     10.99486    29.87695    0.12820    41.00000

 Normal termination of Gaussian 16 at Wed Dec 30 15:18:22 2020.
