 Gaussian 16, Revision A.03,

 -----------------------------------------------------------
 # opt freq B3LYP/6-31G(d) empiricaldispersion=gd3bj scf=xqc
 -----------------------------------------------------------

 -------------------------------
 CID_149719998_JID_4980_neutraal
 -------------------------------
 Symbolic Z-matrix:
 Charge =  0 Multiplicity = 1

 SCF Done:  E(RB3LYP) =  -697.533555371     A.U. after   15 cycles
 SCF Done:  E(RB3LYP) =  -697.540022679     A.U. after   15 cycles
 SCF Done:  E(RB3LYP) =  -697.538514445     A.U. after   16 cycles
 SCF Done:  E(RB3LYP) =  -697.545346516     A.U. after   14 cycles
 SCF Done:  E(RB3LYP) =  -697.548504541     A.U. after   14 cycles
 SCF Done:  E(RB3LYP) =  -697.547359215     A.U. after   14 cycles
 SCF Done:  E(RB3LYP) =  -697.549205060     A.U. after   14 cycles
 SCF Done:  E(RB3LYP) =  -697.549566210     A.U. after   13 cycles
 SCF Done:  E(RB3LYP) =  -697.549647343     A.U. after   13 cycles
 SCF Done:  E(RB3LYP) =  -697.549725175     A.U. after   12 cycles
 SCF Done:  E(RB3LYP) =  -697.549761304     A.U. after   12 cycles
 SCF Done:  E(RB3LYP) =  -697.549773547     A.U. after   11 cycles
 SCF Done:  E(RB3LYP) =  -697.549778102     A.U. after   10 cycles
 SCF Done:  E(RB3LYP) =  -697.549779050     A.U. after    9 cycles
 SCF Done:  E(RB3LYP) =  -697.549779509     A.U. after    9 cycles
 Optimization completed.
    -- Stationary point found.
 Normal termination of Gaussian 16 at Thu Dec 10 11:01:24 2020.

 --------------------------------------------------------------------
 #N Geom=AllCheck Guess=TCheck SCRF=Check GenChk RB3LYP/6-31G(d) Freq
 --------------------------------------------------------------------

 Structure from the checkpoint file:  "JID_4980.chk"
 -------------------------------
 CID_149719998_JID_4980_neutraal
 -------------------------------
 Charge =  0 Multiplicity = 1

 SCF Done:  E(RB3LYP) =  -697.549779509     A.U. after    1 cycles

  Exact polarizability: 179.751  -6.300 132.501  10.851   4.218  60.629
 Approx polarizability: 290.273 -22.858 239.189  29.019   7.367  91.958

                      1                      2                      3
                      A                      A                      A
 Frequencies --     56.7551                67.8512                84.7598
 Red. masses --      4.7243                 5.7285                 8.6756
 Frc consts  --      0.0090                 0.0155                 0.0367
 IR Inten    --      2.3505                 3.0282                 9.3604

                      4                      5                      6
                      A                      A                      A
 Frequencies --    134.4530               158.9778               199.9720
 Red. masses --      2.7035                 4.0716                 3.8443
 Frc consts  --      0.0288                 0.0606                 0.0906
 IR Inten    --      2.5063                14.4559                38.7899

                      7                      8                      9
                      A                      A                      A
 Frequencies --    226.5068               247.2782               285.6888
 Red. masses --      2.0906                 3.3967                 2.2385
 Frc consts  --      0.0632                 0.1224                 0.1076
 IR Inten    --     56.3124                11.8248               123.8017

                     10                     11                     12
                      A                      A                      A
 Frequencies --    290.6314               331.1224               372.0692
 Red. masses --      1.9500                 1.7987                 3.3928
 Frc consts  --      0.0970                 0.1162                 0.2767
 IR Inten    --     36.3260                31.2034                 8.5424

                     13                     14                     15
                      A                      A                      A
 Frequencies --    376.5517               384.8049               437.7323
 Red. masses --      5.4399                 4.6646                 3.4621
 Frc consts  --      0.4545                 0.4070                 0.3908
 IR Inten    --      3.1803                 4.2030                 6.1475

                     16                     17                     18
                      A                      A                      A
 Frequencies --    447.4531               477.6168               556.6982
 Red. masses --      3.1386                 4.2358                 2.2841
 Frc consts  --      0.3702                 0.5693                 0.4171
 IR Inten    --      7.3083                 6.2532                16.8311

                     19                     20                     21
                      A                      A                      A
 Frequencies --    607.0789               611.0381               641.2272
 Red. masses --      2.9430                 1.6395                 3.9481
 Frc consts  --      0.6390                 0.3607                 0.9565
 IR Inten    --      8.2317                92.5570                43.9081

                     22                     23                     24
                      A                      A                      A
 Frequencies --    654.6794               717.1404               731.7848
 Red. masses --      1.1154                 5.2248                 1.5231
 Frc consts  --      0.2817                 1.5832                 0.4806
 IR Inten    --      1.2131                 2.3955               223.4039

                     25                     26                     27
                      A                      A                      A
 Frequencies --    757.4918               761.5280               775.8879
 Red. masses --      7.6148                 9.0665                 4.7684
 Frc consts  --      2.5743                 3.0978                 1.6913
 IR Inten    --      8.1372                16.9639                12.6959

                     28                     29                     30
                      A                      A                      A
 Frequencies --    790.7114               859.4860               881.5214
 Red. masses --      3.4850                 3.8137                 1.9078
 Frc consts  --      1.2838                 1.6599                 0.8735
 IR Inten    --    130.2376                 6.5903                 9.3972

                     31                     32                     33
                      A                      A                      A
 Frequencies --    925.5334               938.8325               968.4512
 Red. masses --      2.4694                 1.3464                 1.3497
 Frc consts  --      1.2463                 0.6992                 0.7459
 IR Inten    --      4.4412                47.8960                 8.6081

                     34                     35                     36
                      A                      A                      A
 Frequencies --   1055.5528              1070.8576              1102.5816
 Red. masses --      1.7836                 1.9413                 2.0362
 Frc consts  --      1.1709                 1.3116                 1.4585
 IR Inten    --      2.1579                42.3818                 3.4823

                     37                     38                     39
                      A                      A                      A
 Frequencies --   1125.1259              1185.8107              1218.8517
 Red. masses --      2.4802                 1.3103                 2.7950
 Frc consts  --      1.8499                 1.0856                 2.4464
 IR Inten    --     23.9969                 5.1939                19.0236

                     40                     41                     42
                      A                      A                      A
 Frequencies --   1231.6841              1258.2396              1306.1727
 Red. masses --      1.5843                 1.6532                 1.7531
 Frc consts  --      1.4160                 1.5420                 1.7622
 IR Inten    --     11.5484                 6.4974                56.7121

                     43                     44                     45
                      A                      A                      A
 Frequencies --   1345.8208              1366.5775              1390.6825
 Red. masses --      6.5186                 1.2602                 3.1099
 Frc consts  --      6.9563                 1.3866                 3.5437
 IR Inten    --    658.7760                 3.3697                59.4516

                     46                     47                     48
                      A                      A                      A
 Frequencies --   1392.0369              1430.0196              1435.0692
 Red. masses --      1.6618                 2.3802                 1.8073
 Frc consts  --      1.8973                 2.8678                 2.1930
 IR Inten    --      1.3009                42.7461                 8.5028

                     49                     50                     51
                      A                      A                      A
 Frequencies --   1490.3477              1498.3927              1519.7771
 Red. masses --      2.9168                 1.7953                 1.6021
 Frc consts  --      3.8171                 2.3749                 2.1803
 IR Inten    --    261.6429                57.7174                60.5417

                     52                     53                     54
                      A                      A                      A
 Frequencies --   1530.7324              1567.2558              1611.3644
 Red. masses --      1.1167                 5.9412                 3.2682
 Frc consts  --      1.5417                 8.5982                 4.9997
 IR Inten    --      8.0565                56.3381                92.3067

                     55                     56                     57
                      A                      A                      A
 Frequencies --   1645.0690              1679.8973              1697.2793
 Red. masses --      2.5449                 4.2547                 1.1427
 Frc consts  --      4.0579                 7.0743                 1.9395
 IR Inten    --    231.6481               514.9063                61.8456

                     58                     59                     60
                      A                      A                      A
 Frequencies --   1703.6492              3001.4543              3048.7696
 Red. masses --      1.4012                 1.0706                 1.0608
 Frc consts  --      2.3962                 5.6823                 5.8092
 IR Inten    --    246.0495                50.8523                21.1065

                     61                     62                     63
                      A                      A                      A
 Frequencies --   3089.1073              3095.0635              3235.5147
 Red. masses --      1.0931                 1.1044                 1.0907
 Frc consts  --      6.1457                 6.2333                 6.7273
 IR Inten    --     49.8079                22.1567                 1.9327

                     64                     65                     66
                      A                      A                      A
 Frequencies --   3423.2882              3472.9039              3556.0603
 Red. masses --      1.0609                 1.0510                 1.0920
 Frc consts  --      7.3251                 7.4683                 8.1363
 IR Inten    --    344.8162                 0.3617                 0.1391

                     67                     68                     69
                      A                      A                      A
 Frequencies --   3572.4685              3636.1720              3720.7579
 Red. masses --      1.0448                 1.0886                 1.1055
 Frc consts  --      7.8566                 8.4800                 9.0169
 IR Inten    --     89.4129                57.1321                83.4429

 - Thermochemistry -
 -------------------
 Temperature   298.150 Kelvin.  Pressure   1.00000 Atm.
 Atom     1 has atomic number  6 and mass  12.00000

 Molecular mass:   197.09127 amu.
 Principal axes and moments of inertia in atomic units:
                           1         2         3
     Eigenvalues --  1454.976184043.827515157.44665
           X            0.99957   0.02908  -0.00449
           Y           -0.02905   0.99955   0.00766
           Z            0.00471  -0.00753   0.99996
 This molecule is an asymmetric top.
 Rotational symmetry number  1.
 Warning -- assumption of classical behavior for rotation
           may cause significant error
 Rotational temperatures (Kelvin)      0.05953     0.02142     0.01679
 Rotational constants (GHZ):           1.24039     0.44630     0.34993
 Zero-point vibrational energy     529166.5 (Joules/Mol)
                                  126.47382 (Kcal/Mol)
 Warning -- explicit consideration of  20 degrees of freedom as
           vibrations may cause significant error
 Vibrational temperatures:     81.66    97.62   121.95   193.45   228.73
          (Kelvin)            287.72   325.89   355.78   411.04   418.15
                              476.41   535.32   541.77   553.65   629.80
                              643.79   687.18   800.96   873.45   879.15
                              922.58   941.94  1031.81  1052.88  1089.86
                             1095.67  1116.33  1137.66  1236.61  1268.31
                             1331.64  1350.77  1393.39  1518.71  1540.73
                             1586.37  1618.81  1706.12  1753.66  1772.12
                             1810.33  1879.29  1936.34  1966.20  2000.88
                             2002.83  2057.48  2064.74  2144.28  2155.85
                             2186.62  2202.38  2254.93  2318.39  2366.89
                             2417.00  2442.01  2451.17  4318.42  4386.50
                             4444.54  4453.11  4655.18  4925.35  4996.73
                             5116.38  5139.99  5231.64  5353.34

 Zero-point correction=                           0.201549 (Hartree/Particle)
 Thermal correction to Energy=                    0.214502
 Thermal correction to Enthalpy=                  0.215446
 Thermal correction to Gibbs Free Energy=         0.162243
 Sum of electronic and zero-point Energies=           -697.348231
 Sum of electronic and thermal Energies=              -697.335278
 Sum of electronic and thermal Enthalpies=            -697.334334
 Sum of electronic and thermal Free Energies=         -697.387536

                     E (Thermal)             CV                S
                      KCal/Mol        Cal/Mol-Kelvin    Cal/Mol-Kelvin
 Total                  134.602             49.766            111.974
 Electronic               0.000              0.000              0.000
 Translational            0.889              2.981             41.740
 Rotational               0.889              2.981             31.784
 Vibrational            132.824             43.805             38.450
 Vibration     1          0.596              1.975              4.567
 Vibration     2          0.598              1.970              4.215
 Vibration     3          0.601              1.960              3.778
 Vibration     4          0.613              1.919              2.881
 Vibration     5          0.621              1.893              2.562
 Vibration     6          0.638              1.840              2.133
 Vibration     7          0.650              1.801              1.906
 Vibration     8          0.661              1.767              1.750
 Vibration     9          0.683              1.700              1.499
 Vibration    10          0.687              1.691              1.470
 Vibration    11          0.713              1.613              1.255
 Vibration    12          0.744              1.530              1.071
 Vibration    13          0.747              1.520              1.053
 Vibration    14          0.754              1.503              1.020
 Vibration    15          0.798              1.388              0.834
 Vibration    16          0.807              1.367              0.804
 Vibration    17          0.834              1.300              0.717
 Vibration    18          0.912              1.125              0.530
 Vibration    19          0.966              1.017              0.438
 Vibration    20          0.970              1.008              0.431

                           ! Non-Optimized Parameters !
 Normal termination of Gaussian 16 at Thu Dec 10 11:07:38 2020.

 ----------------------------------------------------------------------
 # B3LYP/6-311++G(d,p) empiricaldispersion=gd3bj scf=xqc pop=npa geom=c
 heck
 ----------------------------------------------------------------------

 ---------------------------------------
 CID_149719998_JID_4980_Energie_neutraal
 ---------------------------------------
 Structure from the checkpoint file:  "JID_4980.chk"
 Charge =  0 Multiplicity = 1

 SCF Done:  E(RB3LYP) =  -697.766725010     A.U. after   15 cycles
 Normal termination of Gaussian 16 at Thu Dec 10 11:09:55 2020.

 ----------------------------------------------------------------------
 # B3LYP/6-311++G(d,p) empiricaldispersion=gd3bj scf=xqc pop=npa geom=c
 heck
 ----------------------------------------------------------------------

 -------------------------------------
 CID_149719998_JID_4980_Energie_kation
 -------------------------------------
 Structure from the checkpoint file:  "JID_4980.chk"
 Charge =  1 Multiplicity = 2

 SCF Done:  E(UB3LYP) =  -697.477747400     A.U. after   27 cycles
 Normal termination of Gaussian 16 at Thu Dec 10 11:15:15 2020.
 Gaussian 16:  ES64L-G16RevA.03 25-Dec-2016

 ----------------------------------------------------------------------
 # B3LYP/6-311++G(d,p) empiricaldispersion=gd3bj scf=xqc pop=npa geom=c
 heck
 ----------------------------------------------------------------------

 ------------------------------------
 CID_149719998_JID_4980_Energie_anion
 ------------------------------------
 Structure from the checkpoint file:  "JID_4980.chk"
 Charge = -1 Multiplicity = 2

                         Standard orientation:
 ---------------------------------------------------------------------
 Center     Atomic      Atomic             Coordinates (Angstroms)
 Number     Number       Type             X           Y           Z
 ---------------------------------------------------------------------
      1          6           0        0.196539   -0.957526   -0.325756
      2          6           0       -1.006294   -0.308458   -0.475924
      3          6           0       -0.973675    1.117276   -0.318930
      4          7           0        0.144957    1.808447   -0.084280
      5          6           0        1.319499    1.165970    0.042406
      6          6           0        1.381905   -0.256005   -0.050278
      7          7           0        2.593195   -0.996904    0.093303
      8          8           0        2.548070   -2.230243    0.005398
      9          8           0        3.661215   -0.381634    0.304918
     10          7           0        2.396680    1.941640    0.273294
     11          7           0       -2.122952    1.844624   -0.448553
     12          6           0       -2.272691   -1.043218   -0.849916
     13          6           0       -3.200666   -1.386046    0.326600
     14          7           0       -3.610666   -0.172250    1.057794
     15          1           0        0.266227   -2.033556   -0.435753
     16          1           0        2.258636    2.940168    0.292746
     17          1           0        3.304004    1.504293    0.355970
     18          1           0       -2.022367    2.820388   -0.199773
     19          1           0       -2.983357    1.386289   -0.142947
     20          1           0       -2.838944   -0.446220   -1.575590
     21          1           0       -2.002657   -1.980787   -1.349882
     22          1           0       -4.105511   -1.858214   -0.071596
     23          1           0       -2.706480   -2.125038    0.976833
     24          1           0       -4.440152   -0.364831    1.615566
     25          1           0       -2.879878    0.081676    1.721765
 ---------------------------------------------------------------------

 SCF Done:  E(UB3LYP) =  -697.787992108     A.U. after   26 cycles

 The electronic state is 2-A.
 Alpha  occ. eigenvalues --  -18.93747 -18.93557 -14.31254 -14.21102 -14.18670
 Alpha  occ. eigenvalues --  -14.18650 -14.15995 -10.11476 -10.10088 -10.09978
 Alpha  occ. eigenvalues --  -10.06149 -10.05440 -10.03639 -10.02952  -1.01281
 Alpha  occ. eigenvalues --   -0.84565  -0.83783  -0.80227  -0.79202  -0.73326
 Alpha  occ. eigenvalues --   -0.68446  -0.65131  -0.59720  -0.53376  -0.51738
 Alpha  occ. eigenvalues --   -0.48654  -0.45240  -0.41815  -0.40937  -0.40158
 Alpha  occ. eigenvalues --   -0.38016  -0.36829  -0.35483  -0.34315  -0.33547
 Alpha  occ. eigenvalues --   -0.32821  -0.30531  -0.29451  -0.29038  -0.27468
 Alpha  occ. eigenvalues --   -0.26861  -0.25235  -0.23723  -0.21899  -0.17289
 Alpha  occ. eigenvalues --   -0.15896  -0.14280  -0.12775  -0.11945  -0.11789
 Alpha  occ. eigenvalues --   -0.09484  -0.07205   0.03812
 Alpha virt. eigenvalues --    0.05765   0.08299   0.09202   0.10017   0.10433
 Alpha virt. eigenvalues --    0.11393   0.12315   0.12470   0.13157   0.13988
 Alpha virt. eigenvalues --    0.14785   0.15147   0.15486   0.17050   0.17288

  Beta  occ. eigenvalues --  -18.93255 -18.93135 -14.30514 -14.21090 -14.18626
  Beta  occ. eigenvalues --  -14.18608 -14.16027 -10.11420 -10.09978 -10.09855
  Beta  occ. eigenvalues --  -10.06143 -10.05530 -10.03715 -10.02651  -1.00168
  Beta  occ. eigenvalues --   -0.84329  -0.83008  -0.80138  -0.79099  -0.73236
  Beta  occ. eigenvalues --   -0.68260  -0.64880  -0.59447  -0.52817  -0.51437
  Beta  occ. eigenvalues --   -0.48406  -0.44955  -0.41737  -0.40903  -0.39936
  Beta  occ. eigenvalues --   -0.37906  -0.36786  -0.35012  -0.33380  -0.32502
  Beta  occ. eigenvalues --   -0.31593  -0.30207  -0.29050  -0.28710  -0.27049
  Beta  occ. eigenvalues --   -0.26777  -0.25059  -0.23631  -0.21375  -0.17018
  Beta  occ. eigenvalues --   -0.15181  -0.14253  -0.11576  -0.11457  -0.09632
  Beta  occ. eigenvalues --   -0.09045  -0.06626
  Beta virt. eigenvalues --    0.05956   0.08277   0.09120   0.09921   0.10429
  Beta virt. eigenvalues --    0.10623   0.11486   0.12359   0.13052   0.13454
  Beta virt. eigenvalues --    0.13924   0.14789   0.15107   0.16656   0.17252

 Mulliken charges and spin densities:
               1          2
     1  C   -0.566686   0.217397
     2  C    1.461405  -0.179463
     3  C   -0.891865   0.208900
     4  N   -0.266917  -0.017762
     5  C    0.380913   0.028620
     6  C   -0.178987  -0.149408
     7  N   -0.365844   0.229944
     8  O   -0.168662   0.175360
     9  O   -0.232320   0.186164
    10  N   -0.386270   0.014488
    11  N   -0.348603   0.031441
    12  C   -0.736158   0.170276
    13  C   -0.212678  -0.271174
    14  N   -0.506309  -0.008456
    15  H    0.215120  -0.014845
    16  H    0.241445  -0.000766
    17  H    0.312637  -0.003044
    18  H    0.239201   0.006832
    19  H    0.319390  -0.014713
    20  H    0.111535   0.042591
    21  H    0.100994   0.050287
    22  H   -0.023362   0.151073
    23  H    0.149452  -0.002041
    24  H    0.109276   0.147400
    25  H    0.243296   0.000899
 Sum of Mulliken charges =  -1.00000   1.00000

 Dipole moment (field-independent basis, Debye):
    X=             -7.7150    Y=              3.5665    Z=              1.1766  Tot=              8.5805
 Quadrupole moment (field-independent basis, Debye-Ang):
   XX=           -132.6276   YY=           -101.2315   ZZ=            -90.6626
   XY=             17.3284   XZ=             -5.2986   YZ=              2.5788

 Summary of Natural Population Analysis:

                                       Natural Population
                Natural  -----------------------------------------------
    Atom  No    Charge         Core      Valence    Rydberg      Total
 -----------------------------------------------------------------------
      C    1   -0.00554      0.99950     1.99723    0.00881     3.00554
      C    2   -0.10780      0.99946     2.09656    0.01177     3.10780
      C    3    0.25119      0.99953     1.73516    0.01412     2.74881
      N    4   -0.31460      0.99964     2.80069    0.01427     3.81460
      C    5    0.21828      0.99956     1.76710    0.01507     2.78172
      C    6   -0.03727      0.99941     2.02315    0.01472     3.03727
      N    7    0.31935      0.99969     2.15616    0.02480     3.18065
      O    8   -0.20670      0.99990     3.19917    0.00763     4.20670
      O    9   -0.22160      0.99990     3.21402    0.00769     4.22160
      N   10   -0.39126      0.99968     2.88329    0.00828     3.89126
      N   11   -0.40006      0.99969     2.89088    0.00949     3.90006
      C   12   -0.19864      0.99961     2.18925    0.00978     3.19864
      C   13   -0.08828      0.99963     2.07615    0.01250     3.08828
      N   14   -0.43617      0.99977     2.92531    0.01109     3.93617
      H   15    0.11018      0.00000     0.38862    0.00120     0.38982
      H   16    0.18617      0.00000     0.31244    0.00139     0.31383
      H   17    0.21475      0.00000     0.28365    0.00160     0.28525
      H   18    0.18360      0.00000     0.31408    0.00232     0.31640
      H   19    0.20208      0.00000     0.29538    0.00253     0.29792
      H   20    0.09847      0.00000     0.39948    0.00205     0.40153
      H   21    0.10148      0.00000     0.39722    0.00130     0.39852
      H   22    0.08489      0.00000     0.41330    0.00181     0.41511
      H   23    0.08143      0.00000     0.41710    0.00147     0.41857
      H   24    0.17585      0.00000     0.32268    0.00147     0.32415
      H   25    0.18020      0.00000     0.31834    0.00147     0.31980
 =======================================================================
   * Total *   -0.00000     13.99497    37.81641    0.18861    52.00000

 Normal termination of Gaussian 16 at Thu Dec 10 11:20:27 2020.
