 Gaussian 16, Revision A.03,

 -----------------------------------------------------------
 # opt freq B3LYP/6-31G(d) empiricaldispersion=gd3bj scf=xqc
 -----------------------------------------------------------

 -------------------------------
 CID_151005036_JID_2092_neutraal
 -------------------------------
 Symbolic Z-matrix:
 Charge =  0 Multiplicity = 1

 SCF Done:  E(RB3LYP) =  -590.416041037     A.U. after   15 cycles
 SCF Done:  E(RB3LYP) =  -590.419115479     A.U. after   14 cycles
 SCF Done:  E(RB3LYP) =  -590.420789015     A.U. after   13 cycles
 SCF Done:  E(RB3LYP) =  -590.421768599     A.U. after   13 cycles
 SCF Done:  E(RB3LYP) =  -590.422115279     A.U. after   13 cycles
 SCF Done:  E(RB3LYP) =  -590.421517773     A.U. after   15 cycles
 SCF Done:  E(RB3LYP) =  -590.422185202     A.U. after   13 cycles
 SCF Done:  E(RB3LYP) =  -590.422625750     A.U. after   12 cycles
 SCF Done:  E(RB3LYP) =  -590.422659944     A.U. after   13 cycles
 SCF Done:  E(RB3LYP) =  -590.422769035     A.U. after   12 cycles
 SCF Done:  E(RB3LYP) =  -590.422785684     A.U. after   10 cycles
 SCF Done:  E(RB3LYP) =  -590.422790539     A.U. after   10 cycles
 SCF Done:  E(RB3LYP) =  -590.422791870     A.U. after    8 cycles
 SCF Done:  E(RB3LYP) =  -590.422792083     A.U. after    8 cycles
 Optimization completed.
    -- Stationary point found.
 Normal termination of Gaussian 16 at Wed Dec  9 16:48:36 2020.

 --------------------------------------------------------------------
 #N Geom=AllCheck Guess=TCheck SCRF=Check GenChk RB3LYP/6-31G(d) Freq
 --------------------------------------------------------------------

 Structure from the checkpoint file:  "JID_2092.chk"
 -------------------------------
 CID_151005036_JID_2092_neutraal
 -------------------------------
 Charge =  0 Multiplicity = 1

 SCF Done:  E(RB3LYP) =  -590.422792083     A.U. after    1 cycles

  Exact polarizability: 107.580   0.230  89.061 -12.764   5.167 101.016
 Approx polarizability: 139.809  -8.543 129.948 -32.113  23.713 182.486

                      1                      2                      3
                      A                      A                      A
 Frequencies --     40.6959                54.8691                80.5989
 Red. masses --      6.8297                 3.2216                 4.4532
 Frc consts  --      0.0067                 0.0057                 0.0170
 IR Inten    --      0.4369                 0.1613                 1.2664

                      4                      5                      6
                      A                      A                      A
 Frequencies --    107.2629               117.3095               152.4506
 Red. masses --      2.6989                 2.4495                 3.3833
 Frc consts  --      0.0183                 0.0199                 0.0463
 IR Inten    --      1.7714                 1.8456                 1.5064

                      7                      8                      9
                      A                      A                      A
 Frequencies --    182.2210               208.3330               223.9100
 Red. masses --      4.3694                 2.9039                 1.3849
 Frc consts  --      0.0855                 0.0743                 0.0409
 IR Inten    --      0.7506                 0.7926                 1.1009

                     10                     11                     12
                      A                      A                      A
 Frequencies --    238.7204               258.2887               271.6169
 Red. masses --      1.4302                 1.1697                 3.3043
 Frc consts  --      0.0480                 0.0460                 0.1436
 IR Inten    --      2.4707                86.4140                 4.3265

                     13                     14                     15
                      A                      A                      A
 Frequencies --    277.9257               304.9525               314.3609
 Red. masses --      2.7315                 2.9923                 2.0989
 Frc consts  --      0.1243                 0.1640                 0.1222
 IR Inten    --      2.4880                 6.3024                12.8857

                     16                     17                     18
                      A                      A                      A
 Frequencies --    415.1073               429.5590               475.2085
 Red. masses --      3.1655                 2.7198                 3.4194
 Frc consts  --      0.3214                 0.2957                 0.4550
 IR Inten    --      9.7135                 7.4677                 5.6969

                     19                     20                     21
                      A                      A                      A
 Frequencies --    531.1728               566.1301               640.0032
 Red. masses --      3.4528                13.5960                 5.9572
 Frc consts  --      0.5740                 2.5674                 1.4377
 IR Inten    --      9.3024                11.0361                 8.0061

                     22                     23                     24
                      A                      A                      A
 Frequencies --    678.8526               757.4983               801.3589
 Red. masses --      2.3562                 2.7930                 1.5455
 Frc consts  --      0.6398                 0.9442                 0.5848
 IR Inten    --      5.1278                 0.7596                13.3800

                     25                     26                     27
                      A                      A                      A
 Frequencies --    864.5917               900.8603               917.0841
 Red. masses --      2.2456                 2.9937                 2.1241
 Frc consts  --      0.9890                 1.4315                 1.0525
 IR Inten    --      7.0076                20.7057                 4.5577

                     28                     29                     30
                      A                      A                      A
 Frequencies --    965.6838               983.4211              1037.4941
 Red. masses --      2.2230                 2.8077                 2.8216
 Frc consts  --      1.2214                 1.5998                 1.7894
 IR Inten    --      5.9179                 7.5634                26.5554

                     31                     32                     33
                      A                      A                      A
 Frequencies --   1054.2027              1080.7219              1097.8934
 Red. masses --      2.0456                 2.1290                 2.4782
 Frc consts  --      1.3394                 1.4650                 1.7599
 IR Inten    --      5.7717                 5.1000                 2.1113

                     34                     35                     36
                      A                      A                      A
 Frequencies --   1145.6310              1165.0160              1176.8267
 Red. masses --      2.7071                 2.6217                 2.8894
 Frc consts  --      2.0933                 2.0965                 2.3576
 IR Inten    --     68.1917                91.3987                45.2233

                     37                     38                     39
                      A                      A                      A
 Frequencies --   1198.5437              1222.0353              1238.1238
 Red. masses --      1.2775                 1.1323                 1.4428
 Frc consts  --      1.0812                 0.9963                 1.3032
 IR Inten    --      3.2816                 8.2577                12.5550

                     40                     41                     42
                      A                      A                      A
 Frequencies --   1267.6992              1297.6924              1319.1243
 Red. masses --      1.3125                 1.3105                 1.3143
 Frc consts  --      1.2428                 1.3003                 1.3475
 IR Inten    --     14.0845                 8.1411                54.0806

                     43                     44                     45
                      A                      A                      A
 Frequencies --   1352.5626              1375.3769              1388.8008
 Red. masses --      1.2373                 1.8924                 1.7676
 Frc consts  --      1.3337                 2.1092                 2.0087
 IR Inten    --      0.5036                44.9898                53.2591

                     46                     47                     48
                      A                      A                      A
 Frequencies --   1397.5707              1416.3482              1429.3076
 Red. masses --      1.4180                 1.4376                 1.3034
 Frc consts  --      1.6318                 1.6991                 1.5689
 IR Inten    --      7.0029                 3.0886                29.2526

                     49                     50                     51
                      A                      A                      A
 Frequencies --   1437.7227              1451.4843              1460.5906
 Red. masses --      1.2348                 1.2528                 1.3909
 Frc consts  --      1.5039                 1.5550                 1.7482
 IR Inten    --      6.1621                 0.9552                 6.1745

                     52                     53                     54
                      A                      A                      A
 Frequencies --   1494.7923              1505.9962              1511.6014
 Red. masses --      1.0895                 1.1425                 1.0826
 Frc consts  --      1.4343                 1.5266                 1.4575
 IR Inten    --      2.6574                 2.2654                 8.5442

                     55                     56                     57
                      A                      A                      A
 Frequencies --   1519.5946              1520.4122              1531.7636
 Red. masses --      1.0644                 1.0607                 1.0522
 Frc consts  --      1.4481                 1.4447                 1.4545
 IR Inten    --      6.4507                 6.1873                 6.3501

                     58                     59                     60
                      A                      A                      A
 Frequencies --   1539.3504              1558.9657              2273.8016
 Red. masses --      1.0620                 1.0526                13.5995
 Frc consts  --      1.4827                 1.5073                41.4264
 IR Inten    --      7.4822                16.1922               469.8661

                     61                     62                     63
                      A                      A                      A
 Frequencies --   3002.6495              3026.8973              3033.8299
 Red. masses --      1.0843                 1.0677                 1.0685
 Frc consts  --      5.7596                 5.7636                 5.7946
 IR Inten    --     37.9744                33.1940                 8.7695

                     64                     65                     66
                      A                      A                      A
 Frequencies --   3050.9052              3051.6125              3062.6350
 Red. masses --      1.0315                 1.0361                 1.0683
 Frc consts  --      5.6570                 5.6849                 5.9037
 IR Inten    --     33.5998                31.8183                41.1792

                     67                     68                     69
                      A                      A                      A
 Frequencies --   3071.1575              3078.1120              3093.4719
 Red. masses --      1.0810                 1.0941                 1.0965
 Frc consts  --      6.0073                 6.1078                 6.1822
 IR Inten    --     46.3509                33.3053                13.7704

                     70                     71                     72
                      A                      A                      A
 Frequencies --   3117.9118              3121.5717              3123.4540
 Red. masses --      1.1015                 1.1046                 1.1021
 Frc consts  --      6.3091                 6.3415                 6.3348
 IR Inten    --     38.4888                27.3781                38.3830

                     73                     74                     75
                      A                      A                      A
 Frequencies --   3137.2528              3142.1383              3747.4728
 Red. masses --      1.1061                 1.0981                 1.0664
 Frc consts  --      6.4145                 6.3874                 8.8238
 IR Inten    --     32.6395                17.0260                17.3253

 - Thermochemistry -
 -------------------
 Temperature   298.150 Kelvin.  Pressure   1.00000 Atm.
 Atom     1 has atomic number  6 and mass  12.00000

 Molecular mass:   173.11643 amu.
 Principal axes and moments of inertia in atomic units:
                           1         2         3
     Eigenvalues --  1400.656612798.837293073.35042
           X            0.99901   0.04443  -0.00022
           Y           -0.04439   0.99794  -0.04635
           Z           -0.00184   0.04631   0.99893
 This molecule is an asymmetric top.
 Rotational symmetry number  1.
 Warning -- assumption of classical behavior for rotation
           may cause significant error
 Rotational temperatures (Kelvin)      0.06184     0.03095     0.02818
 Rotational constants (GHZ):           1.28850     0.64482     0.58722
 Zero-point vibrational energy     610622.8 (Joules/Mol)
                                  145.94236 (Kcal/Mol)
 Warning -- explicit consideration of  20 degrees of freedom as
           vibrations may cause significant error
 Vibrational temperatures:     58.55    78.94   115.96   154.33   168.78
          (Kelvin)            219.34   262.18   299.74   322.16   343.47
                              371.62   390.80   399.87   438.76   452.30
                              597.25   618.04   683.72   764.24   814.53
                              920.82   976.72  1089.87  1152.98  1243.95
                             1296.14  1319.48  1389.40  1414.92  1492.72
                             1516.76  1554.92  1579.62  1648.31  1676.20
                             1693.19  1724.44  1758.24  1781.38  1823.94
                             1867.09  1897.93  1946.04  1978.86  1998.17
                             2010.79  2037.81  2056.45  2068.56  2088.36
                             2101.46  2150.67  2166.79  2174.86  2186.36
                             2187.53  2203.87  2214.78  2243.00  3271.49
                             4320.14  4355.03  4365.00  4389.57  4390.59
                             4406.45  4418.71  4428.72  4450.82  4485.98
                             4491.25  4493.95  4513.81  4520.84  5391.78

 Zero-point correction=                           0.232574 (Hartree/Particle)
 Thermal correction to Energy=                    0.246513
 Thermal correction to Enthalpy=                  0.247457
 Thermal correction to Gibbs Free Energy=         0.191885
 Sum of electronic and zero-point Energies=           -590.190218
 Sum of electronic and thermal Energies=              -590.176279
 Sum of electronic and thermal Enthalpies=            -590.175335
 Sum of electronic and thermal Free Energies=         -590.230907

                     E (Thermal)             CV                S
                      KCal/Mol        Cal/Mol-Kelvin    Cal/Mol-Kelvin
 Total                  154.689             49.840            116.962
 Electronic               0.000              0.000              0.000
 Translational            0.889              2.981             41.354
 Rotational               0.889              2.981             30.867
 Vibrational            152.912             43.878             44.742
 Vibration     1          0.594              1.981              5.225
 Vibration     2          0.596              1.976              4.634
 Vibration     3          0.600              1.962              3.876
 Vibration     4          0.606              1.943              3.318
 Vibration     5          0.608              1.935              3.144
 Vibration     6          0.619              1.900              2.641
 Vibration     7          0.630              1.864              2.306
 Vibration     8          0.642              1.828              2.058
 Vibration     9          0.649              1.805              1.927
 Vibration    10          0.657              1.781              1.812
 Vibration    11          0.667              1.749              1.673
 Vibration    12          0.675              1.726              1.586
 Vibration    13          0.679              1.714              1.546
 Vibration    14          0.696              1.664              1.390
 Vibration    15          0.702              1.646              1.339
 Vibration    16          0.779              1.437              0.909
 Vibration    17          0.791              1.406              0.860
 Vibration    18          0.832              1.305              0.723
 Vibration    19          0.886              1.181              0.585
 Vibration    20          0.922              1.105              0.512

                           ! Non-Optimized Parameters !
 Normal termination of Gaussian 16 at Wed Dec  9 16:54:56 2020.

 ----------------------------------------------------------------------
 # B3LYP/6-311++G(d,p) empiricaldispersion=gd3bj scf=xqc pop=npa geom=c
 heck
 ----------------------------------------------------------------------

 ---------------------------------------
 CID_151005036_JID_2092_Energie_neutraal
 ---------------------------------------
 Structure from the checkpoint file:  "JID_2092.chk"
 Charge =  0 Multiplicity = 1

 SCF Done:  E(RB3LYP) =  -590.602580124     A.U. after   15 cycles
 Normal termination of Gaussian 16 at Wed Dec  9 16:57:15 2020.

 ----------------------------------------------------------------------
 # B3LYP/6-311++G(d,p) empiricaldispersion=gd3bj scf=xqc pop=npa geom=c
 heck
 ----------------------------------------------------------------------

 -------------------------------------
 CID_151005036_JID_2092_Energie_kation
 -------------------------------------
 Structure from the checkpoint file:  "JID_2092.chk"
 Charge =  1 Multiplicity = 2

 SCF Done:  E(UB3LYP) =  -590.283897553     A.U. after   24 cycles
 Normal termination of Gaussian 16 at Wed Dec  9 17:02:24 2020.
 Gaussian 16:  ES64L-G16RevA.03 25-Dec-2016

 ----------------------------------------------------------------------
 # B3LYP/6-311++G(d,p) empiricaldispersion=gd3bj scf=xqc pop=npa geom=c
 heck
 ----------------------------------------------------------------------

 ------------------------------------
 CID_151005036_JID_2092_Energie_anion
 ------------------------------------
 Structure from the checkpoint file:  "JID_2092.chk"
 Charge = -1 Multiplicity = 2

                         Standard orientation:
 ---------------------------------------------------------------------
 Center     Atomic      Atomic             Coordinates (Angstroms)
 Number     Number       Type             X           Y           Z
 ---------------------------------------------------------------------
      1          6           0       -3.613454   -0.602046    0.071852
      2          6           0       -2.238729   -1.136669   -0.339952
      3          6           0       -1.229796   -0.057008   -0.762525
      4          6           0       -0.863733    0.926457    0.360240
      5          6           0       -0.154294    0.318321    1.599615
      6          6           0        0.880721   -0.810529    1.475724
      7          7           0        2.194177   -0.361997    0.964537
      8          7           0        2.560474   -0.822614   -0.116614
      9          7           0        3.023641   -1.174413   -1.099788
     10          8           0       -0.290327    2.128787   -0.134726
     11          6           0        1.035286    2.104983   -0.649930
     12          8           0       -0.028890   -0.664617   -1.252142
     13          1           0       -3.568684   -0.032992    1.006509
     14          1           0       -4.320060   -1.424607    0.223135
     15          1           0       -4.029046    0.057938   -0.698951
     16          1           0       -1.808881   -1.741384    0.467700
     17          1           0       -2.361458   -1.817783   -1.194485
     18          1           0       -1.681894    0.556516   -1.557488
     19          1           0       -1.825170    1.291554    0.737631
     20          1           0        0.288514    1.152507    2.155705
     21          1           0       -0.944599   -0.088206    2.245647
     22          1           0        1.071756   -1.189986    2.486005
     23          1           0        0.496219   -1.632142    0.869233
     24          1           0        1.767279    1.854351    0.125967
     25          1           0        1.144241    1.399808   -1.479683
     26          1           0        1.227117    3.120695   -1.007009
     27          1           0       -0.245642   -1.167507   -2.052069
 ---------------------------------------------------------------------

 SCF Done:  E(UB3LYP) =  -590.592389855     A.U. after   32 cycles

 The electronic state is 2-A.
 Alpha  occ. eigenvalues --  -19.02057 -19.01563 -14.36184 -14.25929 -14.24376
 Alpha  occ. eigenvalues --  -10.11871 -10.11651 -10.10552 -10.09614 -10.07027
 Alpha  occ. eigenvalues --  -10.06252 -10.05615  -1.02302  -0.93282  -0.91565
 Alpha  occ. eigenvalues --   -0.86520  -0.70136  -0.67189  -0.62947  -0.57277
 Alpha  occ. eigenvalues --   -0.56073  -0.51066  -0.46133  -0.43245  -0.42662
 Alpha  occ. eigenvalues --   -0.40048  -0.39762  -0.38436  -0.35667  -0.35330
 Alpha  occ. eigenvalues --   -0.34143  -0.33055  -0.31568  -0.31462  -0.30753
 Alpha  occ. eigenvalues --   -0.29383  -0.28671  -0.26624  -0.25841  -0.25260
 Alpha  occ. eigenvalues --   -0.24063  -0.22961  -0.19944  -0.19263  -0.17243
 Alpha  occ. eigenvalues --   -0.14999  -0.14029   0.04492
 Alpha virt. eigenvalues --    0.06595   0.07518   0.08284   0.08350   0.09600
 Alpha virt. eigenvalues --    0.10346   0.10714   0.11160   0.11265   0.12325
 Alpha virt. eigenvalues --    0.12755   0.12820   0.13788   0.14642   0.15349

  Beta  occ. eigenvalues --  -19.02035 -19.01562 -14.36096 -14.25783 -14.24406
  Beta  occ. eigenvalues --  -10.11868 -10.11638 -10.10506 -10.09605 -10.06999
  Beta  occ. eigenvalues --  -10.06211 -10.05572  -1.02115  -0.93259  -0.91537
  Beta  occ. eigenvalues --   -0.86420  -0.70086  -0.67121  -0.62891  -0.57226
  Beta  occ. eigenvalues --   -0.55981  -0.50955  -0.46070  -0.43174  -0.42596
  Beta  occ. eigenvalues --   -0.39855  -0.39611  -0.38288  -0.35629  -0.35276
  Beta  occ. eigenvalues --   -0.33885  -0.32957  -0.31523  -0.31412  -0.30698
  Beta  occ. eigenvalues --   -0.29282  -0.28629  -0.26571  -0.25774  -0.25167
  Beta  occ. eigenvalues --   -0.24024  -0.22920  -0.19924  -0.19088  -0.17192
  Beta  occ. eigenvalues --   -0.14977  -0.13980
  Beta virt. eigenvalues --    0.07096   0.07699   0.08399   0.08760   0.09058
  Beta virt. eigenvalues --    0.10057   0.10872   0.11121   0.11411   0.11471
  Beta virt. eigenvalues --    0.12613   0.13221   0.13360   0.14057   0.14715

 Mulliken charges and spin densities:
               1          2
     1  C    1.756456  -2.402449
     2  C   -1.089714   0.909520
     3  C    1.013411  -0.939497
     4  C   -0.909278   0.549566
     5  C    0.740547  -1.116146
     6  C    0.157327  -0.564390
     7  N   -0.355136   0.072755
     8  N    0.432269   0.118937
     9  N   -0.221172  -0.023599
    10  O   -0.067252   0.007323
    11  C   -0.042170  -0.297883
    12  O   -0.283734   0.002916
    13  H   -0.258639   0.377601
    14  H   -0.592892   0.745957
    15  H   -0.089119   0.226191
    16  H   -0.106465   0.259050
    17  H   -0.816325   0.957676
    18  H   -0.155144   0.370904
    19  H    0.038163   0.181171
    20  H    0.203041  -0.001582
    21  H   -0.215332   0.371466
    22  H   -0.603281   0.806613
    23  H    0.202133  -0.045765
    24  H    0.016342   0.112054
    25  H    0.097333   0.068687
    26  H    0.073533   0.053164
    27  H    0.075096   0.199758
 Sum of Mulliken charges =  -1.00000   1.00000

 Dipole moment (field-independent basis, Debye):
    X=              4.1074    Y=              3.2826    Z=             -0.2929  Tot=              5.2661
 Quadrupole moment (field-independent basis, Debye-Ang):
   XX=           -136.2367   YY=           -108.3550   ZZ=           -113.6536
   XY=             -7.4698   XZ=             -1.8321   YZ=             -0.7480

 Summary of Natural Population Analysis:

                                       Natural Population
                Natural  -----------------------------------------------
    Atom  No    Charge         Core      Valence    Rydberg      Total
 -----------------------------------------------------------------------
      C    1   -0.28653      0.99966     2.28117    0.00570     3.28653
      C    2   -0.20198      0.99962     2.19299    0.00937     3.20198
      C    3    0.05506      0.99952     1.93082    0.01459     2.94494
      C    4    0.06231      0.99949     1.92172    0.01648     2.93769
      C    5   -0.21033      0.99959     2.20065    0.01010     3.21033
      C    6   -0.09612      0.99957     2.08443    0.01212     3.09612
      N    7   -0.19523      0.99969     2.68122    0.01432     3.69523
      N    8    0.13195      0.99970     2.35363    0.01473     3.36805
      N    9   -0.04445      0.99982     2.53134    0.01329     3.54445
      O   10   -0.30510      0.99988     3.29571    0.00951     4.30510
      C   11   -0.10460      0.99959     2.09692    0.00809     3.10460
      O   12   -0.38262      0.99989     3.37457    0.00816     4.38262
      H   13    0.09584      0.00000     0.40291    0.00125     0.40416
      H   14    0.10369      0.00000     0.39473    0.00158     0.39631
      H   15    0.09732      0.00000     0.40136    0.00132     0.40268
      H   16    0.09840      0.00000     0.39967    0.00193     0.40160
      H   17    0.09930      0.00000     0.39787    0.00283     0.40070
      H   18    0.08299      0.00000     0.41489    0.00213     0.41701
      H   19    0.09691      0.00000     0.40094    0.00215     0.40309
      H   20    0.10614      0.00000     0.39263    0.00123     0.39386
      H   21    0.10727      0.00000     0.39123    0.00149     0.39273
      H   22    0.09702      0.00000     0.40114    0.00184     0.40298
      H   23    0.10194      0.00000     0.39586    0.00220     0.39806
      H   24    0.08546      0.00000     0.41300    0.00153     0.41454
      H   25    0.08966      0.00000     0.40881    0.00152     0.41034
      H   26    0.08172      0.00000     0.41731    0.00097     0.41828
      H   27    0.23396      0.00000     0.26262    0.00342     0.26604
 =======================================================================
   * Total *    0.00000     11.99602    34.84013    0.16385    47.00000

 Normal termination of Gaussian 16 at Wed Dec  9 17:09:36 2020.
