 Gaussian 16, Revision A.03,

 -----------------------------------------------------------
 # opt freq B3LYP/6-31G(d) empiricaldispersion=gd3bj scf=xqc
 -----------------------------------------------------------

 ------------------------------
 CID_78969547_JID_7951_neutraal
 ------------------------------
 Symbolic Z-matrix:
 Charge =  0 Multiplicity = 1

 SCF Done:  E(RB3LYP) =  -770.064356671     A.U. after   15 cycles
 SCF Done:  E(RB3LYP) =  -770.070014108     A.U. after   12 cycles
 SCF Done:  E(RB3LYP) =  -770.069778723     A.U. after   12 cycles
 SCF Done:  E(RB3LYP) =  -770.071133630     A.U. after   13 cycles
 SCF Done:  E(RB3LYP) =  -770.071044753     A.U. after   13 cycles
 SCF Done:  E(RB3LYP) =  -770.071911196     A.U. after   13 cycles
 SCF Done:  E(RB3LYP) =  -770.072064884     A.U. after   12 cycles
 SCF Done:  E(RB3LYP) =  -770.072171544     A.U. after   11 cycles
 SCF Done:  E(RB3LYP) =  -770.072311174     A.U. after   12 cycles
 SCF Done:  E(RB3LYP) =  -770.072374420     A.U. after   12 cycles
 SCF Done:  E(RB3LYP) =  -770.085384223     A.U. after    9 cycles
 SCF Done:  E(RB3LYP) =  -770.085389842     A.U. after   10 cycles
 SCF Done:  E(RB3LYP) =  -770.085390789     A.U. after    8 cycles
 SCF Done:  E(RB3LYP) =  -770.085390959     A.U. after    7 cycles
 SCF Done:  E(RB3LYP) =  -770.085391015     A.U. after    7 cycles
 Optimization completed.
    -- Stationary point found.
 Normal termination of Gaussian 16 at Fri Dec 11 14:01:47 2020.

 --------------------------------------------------------------------
 #N Geom=AllCheck Guess=TCheck SCRF=Check GenChk RB3LYP/6-31G(d) Freq
 --------------------------------------------------------------------

 Structure from the checkpoint file:  "JID_7951.chk"
 ------------------------------
 CID_78969547_JID_7951_neutraal
 ------------------------------
 Charge =  0 Multiplicity = 1

 SCF Done:  E(RB3LYP) =  -770.085391015     A.U. after    1 cycles

  Exact polarizability: 178.592   8.226 130.381   3.660 -14.845 126.765
 Approx polarizability: 251.985  12.680 192.638   6.877 -29.409 215.367

                      1                      2                      3
                      A                      A                      A
 Frequencies --     36.8377                46.1815                53.8937
 Red. masses --      3.3979                 6.6691                 3.1099
 Frc consts  --      0.0027                 0.0084                 0.0053
 IR Inten    --      0.0543                 0.5955                 0.0641

                      4                      5                      6
                      A                      A                      A
 Frequencies --     77.7276                97.9607               151.3979
 Red. masses --      4.3105                 2.8868                 3.8118
 Frc consts  --      0.0153                 0.0163                 0.0515
 IR Inten    --      0.0815                 1.4690                 0.1766

                      7                      8                      9
                      A                      A                      A
 Frequencies --    155.0610               172.4603               184.2252
 Red. masses --      3.2062                 2.8891                 1.9076
 Frc consts  --      0.0454                 0.0506                 0.0381
 IR Inten    --      1.2414                 1.3874                 0.5870

                     10                     11                     12
                      A                      A                      A
 Frequencies --    221.7964               261.3164               279.0859
 Red. masses --      2.3806                 1.9696                 4.4294
 Frc consts  --      0.0690                 0.0792                 0.2033
 IR Inten    --      3.4760                 1.4768                 3.5849

                     13                     14                     15
                      A                      A                      A
 Frequencies --    308.6533               338.6197               350.8008
 Red. masses --      2.2369                 3.0892                 7.8539
 Frc consts  --      0.1256                 0.2087                 0.5695
 IR Inten    --      1.1590                 1.5417                 0.8946

                     16                     17                     18
                      A                      A                      A
 Frequencies --    388.2768               418.8634               439.2474
 Red. masses --      2.5762                 3.0929                 2.8831
 Frc consts  --      0.2288                 0.3197                 0.3277
 IR Inten    --      2.5321                 1.4800                 2.0697

                     19                     20                     21
                      A                      A                      A
 Frequencies --    450.6307               501.2808               527.4753
 Red. masses --      3.2030                 4.0033                 2.8276
 Frc consts  --      0.3832                 0.5927                 0.4635
 IR Inten    --      1.1267                 2.0059                 2.5266

                     22                     23                     24
                      A                      A                      A
 Frequencies --    557.4139               577.8165               609.7776
 Red. masses --      3.7608                 4.8586                 1.3199
 Frc consts  --      0.6885                 0.9557                 0.2892
 IR Inten    --      9.8461                15.8701                74.6332

                     25                     26                     27
                      A                      A                      A
 Frequencies --    634.1576               678.6785               732.4223
 Red. masses --      3.9931                 3.5471                 3.3124
 Frc consts  --      0.9461                 0.9626                 1.0469
 IR Inten    --      2.3617                36.3872                12.2578

                     28                     29                     30
                      A                      A                      A
 Frequencies --    753.8324               757.6227               769.7328
 Red. masses --      2.1965                 3.0668                 1.4517
 Frc consts  --      0.7354                 1.0371                 0.5068
 IR Inten    --     23.2966                26.4710                19.7823

                     31                     32                     33
                      A                      A                      A
 Frequencies --    784.8888               798.9540               833.7670
 Red. masses --      2.0759                 2.1783                 2.2176
 Frc consts  --      0.7535                 0.8192                 0.9083
 IR Inten    --      7.6181                 1.3232                 0.8135

                     34                     35                     36
                      A                      A                      A
 Frequencies --    872.0106               894.3625               897.3354
 Red. masses --      1.8966                 2.0843                 2.6883
 Frc consts  --      0.8497                 0.9823                 1.2754
 IR Inten    --      2.4085                 0.7222                 2.4034

                     37                     38                     39
                      A                      A                      A
 Frequencies --    921.8102               940.7677               943.6653
 Red. masses --      1.7559                 1.7671                 1.2520
 Frc consts  --      0.8791                 0.9215                 0.6569
 IR Inten    --      1.7500                 3.2601                 2.3815

                     40                     41                     42
                      A                      A                      A
 Frequencies --    972.0125               979.6490               996.7895
 Red. masses --      1.8622                 1.2530                 2.9896
 Frc consts  --      1.0366                 0.7085                 1.7501
 IR Inten    --      6.2336                 0.0165                 1.6753

                     43                     44                     45
                      A                      A                      A
 Frequencies --   1040.0351              1045.8748              1068.3197
 Red. masses --      2.0485                 3.5081                 2.3109
 Frc consts  --      1.3055                 2.2609                 1.5540
 IR Inten    --     15.8246                14.3885                 0.0816

                     46                     47                     48
                      A                      A                      A
 Frequencies --   1088.1806              1111.0830              1136.3961
 Red. masses --      2.5081                 2.5038                 3.3577
 Frc consts  --      1.7499                 1.8211                 2.5547
 IR Inten    --     28.1589                55.2517               195.9604

                     49                     50                     51
                      A                      A                      A
 Frequencies --   1145.0936              1155.8524              1180.5062
 Red. masses --      1.9148                 2.0941                 2.1217
 Frc consts  --      1.4793                 1.6483                 1.7421
 IR Inten    --      8.1654                59.4885               116.9704

                     52                     53                     54
                      A                      A                      A
 Frequencies --   1191.6414              1194.5657              1214.9857
 Red. masses --      1.7278                 1.1003                 2.5457
 Frc consts  --      1.4456                 0.9251                 2.2141
 IR Inten    --      5.4506                 0.0836                 3.1807

                     55                     56                     57
                      A                      A                      A
 Frequencies --   1232.8721              1247.8425              1264.7142
 Red. masses --      1.5604                 1.4364                 1.9820
 Frc consts  --      1.3974                 1.3178                 1.8679
 IR Inten    --      0.9454                 6.9201                 6.7488

                     58                     59                     60
                      A                      A                      A
 Frequencies --   1288.3102              1301.0967              1317.4971
 Red. masses --      1.1924                 1.5096                 1.4282
 Frc consts  --      1.1660                 1.5057                 1.4606
 IR Inten    --      0.7207                 7.0537                13.6005

                     61                     62                     63
                      A                      A                      A
 Frequencies --   1323.6309              1346.0258              1362.8395
 Red. masses --      1.2075                 1.2842                 2.0179
 Frc consts  --      1.2464                 1.3708                 2.2082
 IR Inten    --      7.9387                 3.6906                15.2817

                     64                     65                     66
                      A                      A                      A
 Frequencies --   1370.4135              1376.7718              1397.0837
 Red. masses --      3.6677                 1.6967                 1.3992
 Frc consts  --      4.0583                 1.8949                 1.6091
 IR Inten    --      1.1628                 4.8166                 1.6327

                     67                     68                     69
                      A                      A                      A
 Frequencies --   1406.8735              1434.4444              1447.9732
 Red. masses --      1.5774                 1.3612                 1.2769
 Frc consts  --      1.8395                 1.6502                 1.5774
 IR Inten    --      2.8996                 2.7014                 4.5158

                     70                     71                     72
                      A                      A                      A
 Frequencies --   1504.8727              1506.7332              1509.6280
 Red. masses --      1.3905                 1.4379                 1.0788
 Frc consts  --      1.8554                 1.9234                 1.4485
 IR Inten    --      1.1792                 0.8485                 0.5366

                     73                     74                     75
                      A                      A                      A
 Frequencies --   1518.5565              1524.8291              1527.4268
 Red. masses --      1.2153                 1.0481                 1.1282
 Frc consts  --      1.6512                 1.4358                 1.5509
 IR Inten    --     11.2548                 5.3975                 7.3996

                     76                     77                     78
                      A                      A                      A
 Frequencies --   1538.5527              1542.0036              1547.2353
 Red. masses --      1.0664                 2.2716                 1.0898
 Frc consts  --      1.4874                 3.1824                 1.5371
 IR Inten    --     15.2031                13.2159                 1.9160

                     79                     80                     81
                      A                      A                      A
 Frequencies --   1645.3367              1671.8460              1847.7710
 Red. masses --      6.0808                 6.1970                10.2018
 Frc consts  --      9.6989                10.2053                20.5221
 IR Inten    --      0.6466                 0.5092               266.3757

                     82                     83                     84
                      A                      A                      A
 Frequencies --   3020.5400              3037.0699              3043.9814
 Red. masses --      1.0709                 1.0600                 1.0617
 Frc consts  --      5.7565                 5.7606                 5.7963
 IR Inten    --     26.5636                16.9938                28.9192

                     85                     86                     87
                      A                      A                      A
 Frequencies --   3056.5502              3063.3954              3081.4415
 Red. masses --      1.0380                 1.0634                 1.0992
 Frc consts  --      5.7139                 5.8798                 6.1495
 IR Inten    --     21.7524                16.7439                24.7320

                     88                     89                     90
                      A                      A                      A
 Frequencies --   3087.0304              3094.0268              3095.3149
 Red. masses --      1.0696                 1.1024                 1.0834
 Frc consts  --      6.0054                 6.2178                 6.1159
 IR Inten    --     11.8734                43.8753                34.1677

                     91                     92                     93
                      A                      A                      A
 Frequencies --   3108.3979              3118.4758              3137.8241
 Red. masses --      1.1003                 1.1022                 1.1060
 Frc consts  --      6.2635                 6.3153                 6.4157
 IR Inten    --     13.3418                49.6610                14.1689

                     94                     95                     96
                      A                      A                      A
 Frequencies --   3143.2514              3173.0997              3178.2724
 Red. masses --      1.1005                 1.0866                 1.0884
 Frc consts  --      6.4063                 6.4458                 6.4778
 IR Inten    --     24.7844                12.3855                 2.7512

                     97                     98                     99
                      A                      A                      A
 Frequencies --   3192.8782              3207.9758              3680.4013
 Red. masses --      1.0915                 1.0972                 1.0641
 Frc consts  --      6.5561                 6.6525                 8.4926
 IR Inten    --     27.9375                28.9610                54.0870

 - Thermochemistry -
 -------------------
 Temperature   298.150 Kelvin.  Pressure   1.00000 Atm.
 Atom     1 has atomic number  6 and mass  12.00000

 Molecular mass:   234.12559 amu.
 Principal axes and moments of inertia in atomic units:
                           1         2         3
     Eigenvalues --  2564.266084503.921095738.88691
           X            0.99973   0.02288   0.00370
           Y           -0.02282   0.99964  -0.01441
           Z           -0.00403   0.01432   0.99989
 This molecule is an asymmetric top.
 Rotational symmetry number  1.
 Warning -- assumption of classical behavior for rotation
           may cause significant error
 Rotational temperatures (Kelvin)      0.03378     0.01923     0.01509
 Rotational constants (GHZ):           0.70380     0.40070     0.31448
 Zero-point vibrational energy     786334.7 (Joules/Mol)
                                  187.93851 (Kcal/Mol)
 Warning -- explicit consideration of  24 degrees of freedom as
           vibrations may cause significant error
 Vibrational temperatures:     53.00    66.44    77.54   111.83   140.94
          (Kelvin)            217.83   223.10   248.13   265.06   319.12
                              375.98   401.54   444.08   487.20   504.72
                              558.64   602.65   631.98   648.36   721.23
                              758.92   801.99   831.35   877.33   912.41
                              976.47  1053.79  1084.60  1090.05  1107.47
                             1129.28  1149.52  1199.60  1254.63  1286.79
                             1291.07  1326.28  1353.55  1357.72  1398.51
                             1409.50  1434.16  1496.38  1504.78  1537.07
                             1565.65  1598.60  1635.02  1647.53  1663.01
                             1698.49  1714.51  1718.71  1748.09  1773.83
                             1795.37  1819.64  1853.59  1871.99  1895.58
                             1904.41  1936.63  1960.82  1971.72  1980.87
                             2010.09  2024.18  2063.85  2083.31  2165.18
                             2167.85  2172.02  2184.86  2193.89  2197.63
                             2213.63  2218.60  2226.13  2367.27  2405.41
                             2658.53  4345.88  4369.67  4379.61  4397.69
                             4407.54  4433.51  4441.55  4451.61  4453.47
                             4472.29  4486.79  4514.63  4522.44  4565.38
                             4572.83  4593.84  4615.56  5295.28

 Zero-point correction=                           0.299499 (Hartree/Particle)
 Thermal correction to Energy=                    0.315286
 Thermal correction to Enthalpy=                  0.316230
 Thermal correction to Gibbs Free Energy=         0.255900
 Sum of electronic and zero-point Energies=           -769.785892
 Sum of electronic and thermal Energies=              -769.770105
 Sum of electronic and thermal Enthalpies=            -769.769161
 Sum of electronic and thermal Free Energies=         -769.829491

                     E (Thermal)             CV                S
                      KCal/Mol        Cal/Mol-Kelvin    Cal/Mol-Kelvin
 Total                  197.845             61.342            126.974
 Electronic               0.000              0.000              0.000
 Translational            0.889              2.981             42.254
 Rotational               0.889              2.981             32.561
 Vibrational            196.067             55.380             52.160
 Vibration     1          0.594              1.982              5.422
 Vibration     2          0.595              1.979              4.975
 Vibration     3          0.596              1.976              4.669
 Vibration     4          0.599              1.964              3.947
 Vibration     5          0.603              1.951              3.494
 Vibration     6          0.619              1.901              2.655
 Vibration     7          0.620              1.897              2.609
 Vibration     8          0.626              1.876              2.409
 Vibration     9          0.631              1.861              2.285
 Vibration    10          0.648              1.808              1.944
 Vibration    11          0.669              1.744              1.653
 Vibration    12          0.679              1.712              1.539
 Vibration    13          0.698              1.657              1.370
 Vibration    14          0.719              1.598              1.219
 Vibration    15          0.728              1.574              1.163
 Vibration    16          0.756              1.495              1.007
 Vibration    17          0.782              1.429              0.896
 Vibration    18          0.799              1.385              0.829
 Vibration    19          0.809              1.359              0.794
 Vibration    20          0.857              1.247              0.655
 Vibration    21          0.882              1.189              0.593
 Vibration    22          0.913              1.123              0.529
 Vibration    23          0.934              1.079              0.489
 Vibration    24          0.969              1.011              0.433

 Optimization completed.
    -- Stationary point found.
 Normal termination of Gaussian 16 at Fri Dec 11 14:16:11 2020.

 ----------------------------------------------------------------------
 # B3LYP/6-311++G(d,p) empiricaldispersion=gd3bj scf=xqc pop=npa geom=c
 heck
 ----------------------------------------------------------------------

 --------------------------------------
 CID_78969547_JID_7951_Energie_neutraal
 --------------------------------------
 Structure from the checkpoint file:  "JID_7951.chk"
 Charge =  0 Multiplicity = 1

 SCF Done:  E(RB3LYP) =  -770.304166915     A.U. after   15 cycles
 Normal termination of Gaussian 16 at Fri Dec 11 14:23:08 2020.

 ----------------------------------------------------------------------
 # B3LYP/6-311++G(d,p) empiricaldispersion=gd3bj scf=xqc pop=npa geom=c
 heck
 ----------------------------------------------------------------------

 ------------------------------------
 CID_78969547_JID_7951_Energie_kation
 ------------------------------------
 Structure from the checkpoint file:  "JID_7951.chk"
 Charge =  1 Multiplicity = 2

 SCF Done:  E(UB3LYP) =  -769.993239197     A.U. after   27 cycles
 Normal termination of Gaussian 16 at Fri Dec 11 14:40:17 2020.
 Gaussian 16:  ES64L-G16RevA.03 25-Dec-2016

 ----------------------------------------------------------------------
 # B3LYP/6-311++G(d,p) empiricaldispersion=gd3bj scf=xqc pop=npa geom=c
 heck
 ----------------------------------------------------------------------

 -----------------------------------
 CID_78969547_JID_7951_Energie_anion
 -----------------------------------
 Structure from the checkpoint file:  "JID_7951.chk"
 Charge = -1 Multiplicity = 2

                         Standard orientation:
 ---------------------------------------------------------------------
 Center     Atomic      Atomic             Coordinates (Angstroms)
 Number     Number       Type             X           Y           Z
 ---------------------------------------------------------------------
      1          6           0        1.388479    2.755935    0.792618
      2          6           0       -0.045493    3.124289    0.402670
      3          6           0       -0.763254    1.999356   -0.331157
      4          8           0       -0.850441    0.903051    0.578922
      5          6           0       -1.308229   -0.347705    0.108670
      6          6           0       -1.080655   -1.312277    1.301633
      7          6           0        0.280743   -2.053485    1.248910
      8          6           0        1.340549   -1.340981    0.446562
      9          6           0        2.670063   -1.242708    0.855921
     10          6           0        3.619647   -0.624381    0.039383
     11          6           0        3.239401   -0.098154   -1.194719
     12          6           0        1.905666   -0.177406   -1.600892
     13          6           0        0.956141   -0.795508   -0.789042
     14          6           0       -0.509223   -0.846038   -1.128865
     15          6           0       -2.803632   -0.275512   -0.217000
     16          8           0       -3.522628    0.684095   -0.063227
     17          8           0       -3.263572   -1.454328   -0.716705
     18          1           0        1.398637    1.861023    1.420666
     19          1           0        1.870846    3.571926    1.342146
     20          1           0        1.994460    2.537278   -0.093852
     21          1           0       -0.628182    3.380933    1.296036
     22          1           0       -0.050592    4.010490   -0.245911
     23          1           0       -1.767315    2.304594   -0.645867
     24          1           0       -0.185231    1.717317   -1.221160
     25          1           0       -1.147648   -0.690661    2.197876
     26          1           0       -1.884954   -2.051123    1.346323
     27          1           0        0.634911   -2.250829    2.265869
     28          1           0        0.115025   -3.038136    0.788349
     29          1           0        2.965503   -1.654596    1.818055
     30          1           0        4.652575   -0.553136    0.368263
     31          1           0        3.974168    0.382401   -1.834489
     32          1           0        1.599436    0.250091   -2.553018
     33          1           0       -0.840749   -1.867683   -1.349072
     34          1           0       -0.733611   -0.246293   -2.016026
     35          1           0       -4.215358   -1.318697   -0.884264
 ---------------------------------------------------------------------

 SCF Done:  E(UB3LYP) =  -770.291865508     A.U. after   33 cycles
 SCF Done:  E(UB3LYP) =  -770.291865508     a.u. after    1 cycles

 The electronic state is 2-A.
 Alpha  occ. eigenvalues --  -19.07235 -19.03131 -19.02352 -10.21002 -10.15457
 Alpha  occ. eigenvalues --  -10.11674 -10.08607 -10.08582 -10.08515 -10.08329
 Alpha  occ. eigenvalues --  -10.08180 -10.07997 -10.07922 -10.07876 -10.07829
 Alpha  occ. eigenvalues --  -10.07596 -10.06001  -1.01577  -0.95020  -0.92489
 Alpha  occ. eigenvalues --   -0.77644  -0.72929  -0.68861  -0.67850  -0.65565
 Alpha  occ. eigenvalues --   -0.63019  -0.58942  -0.56974  -0.54302  -0.51172
 Alpha  occ. eigenvalues --   -0.50245  -0.48362  -0.46205  -0.42878  -0.41060
 Alpha  occ. eigenvalues --   -0.40617  -0.39245  -0.37451  -0.37049  -0.36362
 Alpha  occ. eigenvalues --   -0.35546  -0.35087  -0.33926  -0.33019  -0.32167
 Alpha  occ. eigenvalues --   -0.31742  -0.30840  -0.30417  -0.29050  -0.28320
 Alpha  occ. eigenvalues --   -0.27098  -0.26148  -0.25659  -0.25283  -0.24621
 Alpha  occ. eigenvalues --   -0.24283  -0.23503  -0.23295  -0.21676  -0.19462
 Alpha  occ. eigenvalues --   -0.17049  -0.15588  -0.14843   0.04183
 Alpha virt. eigenvalues --    0.05801   0.06597   0.07294   0.07485   0.07733
 Alpha virt. eigenvalues --    0.08041   0.08743   0.09084   0.09592   0.09708
 Alpha virt. eigenvalues --    0.10054   0.10439   0.11405   0.12006   0.12113

  Beta  occ. eigenvalues --  -19.07175 -19.03126 -19.02335 -10.20995 -10.15449
  Beta  occ. eigenvalues --  -10.11669 -10.08600 -10.08568 -10.08505 -10.08313
  Beta  occ. eigenvalues --  -10.08168 -10.07990 -10.07907 -10.07863 -10.07808
  Beta  occ. eigenvalues --  -10.07592 -10.05993  -1.01506  -0.95000  -0.92430
  Beta  occ. eigenvalues --   -0.77619  -0.72899  -0.68841  -0.67822  -0.65533
  Beta  occ. eigenvalues --   -0.62978  -0.58920  -0.56913  -0.54252  -0.51130
  Beta  occ. eigenvalues --   -0.50198  -0.48323  -0.46165  -0.42828  -0.41018
  Beta  occ. eigenvalues --   -0.40584  -0.39211  -0.37431  -0.37013  -0.36324
  Beta  occ. eigenvalues --   -0.35513  -0.35055  -0.33889  -0.32998  -0.32123
  Beta  occ. eigenvalues --   -0.31717  -0.30808  -0.30391  -0.29017  -0.28296
  Beta  occ. eigenvalues --   -0.27065  -0.26129  -0.25638  -0.25254  -0.24607
  Beta  occ. eigenvalues --   -0.24251  -0.23479  -0.23249  -0.21642  -0.19429
  Beta  occ. eigenvalues --   -0.17016  -0.15547  -0.14794
  Beta virt. eigenvalues --    0.06216   0.07059   0.07234   0.07439   0.07758
  Beta virt. eigenvalues --    0.07981   0.08644   0.09127   0.09167   0.09809
  Beta virt. eigenvalues --    0.09920   0.10209   0.10861   0.11800   0.12135

 Mulliken charges and spin densities:
               1          2
     1  C   -0.102345  -0.254262
     2  C   -0.622260   0.115695
     3  C    0.249218  -0.226261
     4  O    0.061044   0.019561
     5  C   -0.592707   0.686290
     6  C   -0.719336   0.146612
     7  C    1.024168  -1.641199
     8  C   -1.356576   2.056021
     9  C   -0.442720   0.366951
    10  C    0.773866  -1.055259
    11  C    0.611062  -0.999983
    12  C   -0.201991  -0.109219
    13  C   -1.345600   1.825532
    14  C    2.245932  -3.457942
    15  C    1.535043  -1.320752
    16  O   -0.282607   0.017928
    17  O   -0.201740   0.075530
    18  H    0.100720   0.043815
    19  H    0.062842   0.084578
    20  H    0.095246   0.029888
    21  H    0.147693  -0.012115
    22  H    0.010893   0.123726
    23  H    0.156518   0.029907
    24  H    0.085468  -0.003410
    25  H    0.133199   0.039834
    26  H   -0.191983   0.406557
    27  H   -0.023110   0.180848
    28  H   -0.043004   0.222702
    29  H   -0.292573   0.456053
    30  H   -0.305308   0.474418
    31  H   -0.448654   0.621682
    32  H   -0.388085   0.550477
    33  H    0.059652   0.165350
    34  H   -0.240021   0.474500
    35  H   -0.551943   0.865949
 Sum of Mulliken charges =  -1.00000   1.00000

 Dipole moment (field-independent basis, Debye):
    X=              2.0536    Y=              3.0444    Z=              2.2129  Tot=              4.2875
 Quadrupole moment (field-independent basis, Debye-Ang):
   XX=           -189.7233   YY=           -143.5449   ZZ=           -137.2621
   XY=             -8.5932   XZ=             -2.3729   YZ=             -1.0174

 Summary of Natural Population Analysis:

                                       Natural Population
                Natural  -----------------------------------------------
    Atom  No    Charge         Core      Valence    Rydberg      Total
 -----------------------------------------------------------------------
      C    1   -0.28824      0.99966     2.28401    0.00456     3.28824
      C    2   -0.19486      0.99964     2.18836    0.00686     3.19486
      C    3   -0.01505      0.99955     2.00358    0.01192     3.01505
      O    4   -0.30743      0.99986     3.29715    0.01042     4.30743
      C    5    0.10336      0.99948     1.87943    0.01774     2.89664
      C    6   -0.18482      0.99957     2.17587    0.00937     3.18482
      C    7   -0.19852      0.99960     2.19038    0.00855     3.19852
      C    8   -0.00805      0.99946     1.99819    0.01040     3.00805
      C    9   -0.09734      0.99951     2.08816    0.00967     3.09734
      C   10   -0.10148      0.99956     2.09202    0.00991     3.10148
      C   11   -0.10159      0.99956     2.09159    0.01044     3.10159
      C   12   -0.09804      0.99950     2.08837    0.01016     3.09804
      C   13   -0.01409      0.99946     2.00252    0.01211     3.01409
      C   14   -0.21175      0.99956     2.20176    0.01043     3.21175
      C   15    0.40542      0.99963     1.56910    0.02586     2.59458
      O   16   -0.30153      0.99987     3.29546    0.00621     4.30153
      O   17   -0.34719      0.99988     3.33990    0.00741     4.34719
      H   18    0.10608      0.00000     0.39259    0.00134     0.39392
      H   19    0.09291      0.00000     0.40633    0.00076     0.40709
      H   20    0.09966      0.00000     0.39907    0.00127     0.40034
      H   21    0.09614      0.00000     0.40269    0.00117     0.40386
      H   22    0.09381      0.00000     0.40529    0.00091     0.40619
      H   23    0.09150      0.00000     0.40719    0.00131     0.40850
      H   24    0.08008      0.00000     0.41793    0.00199     0.41992
      H   25    0.10788      0.00000     0.39077    0.00135     0.39212
      H   26    0.10840      0.00000     0.39001    0.00159     0.39160
      H   27    0.10475      0.00000     0.39425    0.00100     0.39525
      H   28    0.10589      0.00000     0.39276    0.00135     0.39411
      H   29    0.09892      0.00000     0.39962    0.00147     0.40108
      H   30    0.10045      0.00000     0.39850    0.00105     0.39955
      H   31    0.10116      0.00000     0.39765    0.00119     0.39884
      H   32    0.10043      0.00000     0.39781    0.00176     0.39957
      H   33    0.11878      0.00000     0.37949    0.00173     0.38122
      H   34    0.10835      0.00000     0.39013    0.00152     0.39165
      H   35    0.24603      0.00000     0.22870    0.02527     0.25397
 =======================================================================
   * Total *    0.00000     16.99334    45.77662    0.23004    63.00000

 Normal termination of Gaussian 16 at Fri Dec 11 15:01:20 2020.
