 Gaussian 16, Revision A.03,

 -----------------------------------------------------------
 # opt freq B3LYP/6-31G(d) empiricaldispersion=gd3bj scf=xqc
 -----------------------------------------------------------

 -------------------------------
 CID_117105315_JID_3291_neutraal
 -------------------------------
 Symbolic Z-matrix:
 Charge =  0 Multiplicity = 1

 SCF Done:  E(RB3LYP) =  -570.391344201     A.U. after   15 cycles
 SCF Done:  E(RB3LYP) =  -570.396386557     A.U. after   12 cycles
 SCF Done:  E(RB3LYP) =  -570.396819561     A.U. after   12 cycles
 SCF Done:  E(RB3LYP) =  -570.396949071     A.U. after   11 cycles
 SCF Done:  E(RB3LYP) =  -570.397010170     A.U. after   10 cycles
 SCF Done:  E(RB3LYP) =  -570.397056000     A.U. after   11 cycles
 SCF Done:  E(RB3LYP) =  -570.397092481     A.U. after   11 cycles
 SCF Done:  E(RB3LYP) =  -570.397153983     A.U. after   11 cycles
 SCF Done:  E(RB3LYP) =  -570.397244574     A.U. after   12 cycles
 SCF Done:  E(RB3LYP) =  -570.397306362     A.U. after   11 cycles
 SCF Done:  E(RB3LYP) =  -570.397381032     A.U. after    9 cycles
 SCF Done:  E(RB3LYP) =  -570.397382845     A.U. after   11 cycles
 SCF Done:  E(RB3LYP) =  -570.397383640     A.U. after    9 cycles
 SCF Done:  E(RB3LYP) =  -570.397383620     A.U. after    8 cycles
 Optimization completed.
    -- Stationary point found.

 1\1\GINC-NODE225\FOpt\RB3LYP\6-31G(d)\C9H14N4\VSC10255\14-Dec-2020\0\\
 # opt freq B3LYP/6-31G(d) empiricaldispersion=gd3bj scf=xqc\\CID_11710
 5315_JID_3291_neutraal\\0,1\C,0.5184273299,-1.2017956124,0.0665601755\
 C,-0.8962635768,-0.6813819463,0.3859040753\N,-0.9881628376,0.541497058
 3,-0.4200381536\C,0.2933336916,1.214025022,-0.2111462101\C,1.315553589
 9,0.0677292401,-0.3589414248\C,2.5944204031,0.3077265991,0.4620581599\
 C,3.6029200923,-0.7974796434,0.2866374804\N,3.6073155764,-1.7425502991
 ,1.2417046889\N,4.443435387,-2.7788226859,1.1255306913\C,5.2572767292,

 Normal termination of Gaussian 16 at Mon Dec 14 16:34:28 2020.

 --------------------------------------------------------------------
 #N Geom=AllCheck Guess=TCheck SCRF=Check GenChk RB3LYP/6-31G(d) Freq
 --------------------------------------------------------------------

 Structure from the checkpoint file:  "JID_3291.chk"
 -------------------------------
 CID_117105315_JID_3291_neutraal
 -------------------------------
 Charge =  0 Multiplicity = 1

 SCF Done:  E(RB3LYP) =  -570.397383620     A.U. after    1 cycles

  Exact polarizability: 152.535   2.611 113.987  17.313   0.973  82.054
 Approx polarizability: 201.628   6.839 197.053  35.511  11.819 129.805

                      1                      2                      3
                      A                      A                      A
 Frequencies --     24.3240                55.0126                62.0917
 Red. masses --      3.4757                 2.6479                 3.6859
 Frc consts  --      0.0012                 0.0047                 0.0084
 IR Inten    --      4.4440                 1.0485                 3.4386

                      4                      5                      6
                      A                      A                      A
 Frequencies --     80.9244               201.7382               224.0192
 Red. masses --      3.9040                 3.9964                 4.3864
 Frc consts  --      0.0151                 0.0958                 0.1297
 IR Inten    --      0.2292                 2.6995                 2.7900

                      7                      8                      9
                      A                      A                      A
 Frequencies --    262.6147               294.7292               311.9403
 Red. masses --      2.6141                 3.4692                 2.1827
 Frc consts  --      0.1062                 0.1776                 0.1251
 IR Inten    --      0.9304                 0.2895                 4.3762

                     10                     11                     12
                      A                      A                      A
 Frequencies --    370.5355               404.8581               430.3975
 Red. masses --      1.0752                 2.4250                 2.2587
 Frc consts  --      0.0870                 0.2342                 0.2465
 IR Inten    --     12.1580                 1.9517                 4.2088

                     13                     14                     15
                      A                      A                      A
 Frequencies --    458.6972               493.2035               550.8373
 Red. masses --      2.1691                 1.8503                 5.5602
 Frc consts  --      0.2689                 0.2652                 0.9940
 IR Inten    --     96.7334               254.9181                10.1734

                     16                     17                     18
                      A                      A                      A
 Frequencies --    569.7408               608.3476               614.0700
 Red. masses --      2.9285                 2.9388                 3.9518
 Frc consts  --      0.5601                 0.6408                 0.8780
 IR Inten    --     18.8505                39.6133                 2.7138

                     19                     20                     21
                      A                      A                      A
 Frequencies --    676.1672               761.3922               789.0496
 Red. masses --      4.2351                 4.2589                 3.7257
 Frc consts  --      1.1408                 1.4547                 1.3667
 IR Inten    --      5.7046                 5.8344                 1.2202

                     22                     23                     24
                      A                      A                      A
 Frequencies --    804.3563               860.7407               878.6088
 Red. masses --      2.0355                 2.0697                 1.7353
 Frc consts  --      0.7759                 0.9034                 0.7892
 IR Inten    --     15.8426                28.4509                 9.5408

                     25                     26                     27
                      A                      A                      A
 Frequencies --    891.9740               901.4384               930.2403
 Red. masses --      1.8655                 1.3493                 1.7060
 Frc consts  --      0.8745                 0.6460                 0.8698
 IR Inten    --     46.9405                 1.2123                 6.9663

                     28                     29                     30
                      A                      A                      A
 Frequencies --    951.8189              1000.7025              1010.6434
 Red. masses --      2.5801                 3.1210                 1.9965
 Frc consts  --      1.3772                 1.8414                 1.2015
 IR Inten    --      4.4288                 3.8279                 1.8963

                     31                     32                     33
                      A                      A                      A
 Frequencies --   1031.2893              1036.4536              1053.7366
 Red. masses --      1.4685                 7.1229                 2.5919
 Frc consts  --      0.9202                 4.5082                 1.6957
 IR Inten    --      3.7110                13.1484                 4.3158

                     34                     35                     36
                      A                      A                      A
 Frequencies --   1086.0257              1106.2664              1121.9313
 Red. masses --      1.8340                 1.8858                 2.2294
 Frc consts  --      1.2745                 1.3597                 1.6534
 IR Inten    --      3.2413                 4.0208                 1.2995

                     37                     38                     39
                      A                      A                      A
 Frequencies --   1141.6546              1156.0799              1182.1525
 Red. masses --      2.6077                 2.1416                 1.2800
 Frc consts  --      2.0025                 1.6864                 1.0539
 IR Inten    --     13.3846                 2.0016                 2.7489

                     40                     41                     42
                      A                      A                      A
 Frequencies --   1208.2975              1220.8345              1257.6819
 Red. masses --      1.9106                 1.2820                 1.3718
 Frc consts  --      1.6435                 1.1257                 1.2784
 IR Inten    --     38.5294                 0.7238                 2.9971

                     43                     44                     45
                      A                      A                      A
 Frequencies --   1269.7568              1298.8745              1305.5944
 Red. masses --      1.4306                 1.5460                 1.3635
 Frc consts  --      1.3590                 1.5367                 1.3693
 IR Inten    --     13.6556                 4.2398                16.1577

                     46                     47                     48
                      A                      A                      A
 Frequencies --   1329.8152              1342.1385              1361.1790
 Red. masses --      1.2914                 1.2894                 1.3121
 Frc consts  --      1.3456                 1.3685                 1.4324
 IR Inten    --     16.3031                 1.0137                 4.7254

                     49                     50                     51
                      A                      A                      A
 Frequencies --   1374.7972              1394.8447              1423.4043
 Red. masses --      1.9209                 1.7443                 1.4673
 Frc consts  --      2.1391                 1.9995                 1.7516
 IR Inten    --     27.2304                 9.7589                 0.8910

                     52                     53                     54
                      A                      A                      A
 Frequencies --   1454.7287              1456.5727              1494.5942
 Red. masses --      1.7482                 2.2852                 2.5574
 Frc consts  --      2.1797                 2.8565                 3.3658
 IR Inten    --     15.9713                22.0206                 5.9718

                     55                     56                     57
                      A                      A                      A
 Frequencies --   1511.2616              1531.5129              1538.8682
 Red. masses --      1.2366                 1.0856                 1.0913
 Frc consts  --      1.6640                 1.5002                 1.5227
 IR Inten    --      2.9788                 1.9074                 2.6274

                     58                     59                     60
                      A                      A                      A
 Frequencies --   1556.8836              1596.4419              1648.4044
 Red. masses --      1.1044                 6.3171                 3.8508
 Frc consts  --      1.5772                 9.4858                 6.1649
 IR Inten    --      1.2870                 5.0025               143.5025

                     61                     62                     63
                      A                      A                      A
 Frequencies --   1692.8076              2922.1735              2945.0955
 Red. masses --      1.2861                 1.0735                 1.0743
 Frc consts  --      2.1715                 5.4007                 5.4902
 IR Inten    --    176.0112                70.6650               101.2391

                     64                     65                     66
                      A                      A                      A
 Frequencies --   3042.0903              3053.6745              3080.2077
 Red. masses --      1.0650                 1.0844                 1.0811
 Frc consts  --      5.8071                 5.9578                 6.0435
 IR Inten    --     30.7493                 8.9940                38.1779

                     67                     68                     69
                      A                      A                      A
 Frequencies --   3083.3168              3094.0811              3107.2624
 Red. masses --      1.0810                 1.0778                 1.0985
 Frc consts  --      6.0549                 6.0793                 6.2489
 IR Inten    --     36.4100                40.3929                19.4983

                     70                     71                     72
                      A                      A                      A
 Frequencies --   3133.3898              3167.6683              3180.1389
 Red. masses --      1.1055                 1.0903                 1.0912
 Frc consts  --      6.3950                 6.4461                 6.5021
 IR Inten    --     19.4924                25.9768                11.6710

                     73                     74                     75
                      A                      A                      A
 Frequencies --   3502.5732              3572.0493              3675.3705
 Red. masses --      1.0748                 1.0470                 1.1006
 Frc consts  --      7.7685                 7.8707                 8.7594
 IR Inten    --      3.8393                32.7311                17.7067

 - Thermochemistry -
 -------------------
 Temperature   298.150 Kelvin.  Pressure   1.00000 Atm.
 Atom     1 has atomic number  6 and mass  12.00000

 Molecular mass:   178.12185 amu.
 Principal axes and moments of inertia in atomic units:
                           1         2         3
     Eigenvalues --   935.509784636.367514998.16728
           X            0.99992   0.01159   0.00548
           Y           -0.01130   0.99867  -0.05027
           Z           -0.00606   0.05021   0.99872
 This molecule is an asymmetric top.
 Rotational symmetry number  1.
 Warning -- assumption of classical behavior for rotation
           may cause significant error
 Rotational temperatures (Kelvin)      0.09258     0.01868     0.01733
 Rotational constants (GHZ):           1.92915     0.38926     0.36108
 Zero-point vibrational energy     611406.5 (Joules/Mol)
                                  146.12967 (Kcal/Mol)
 Warning -- explicit consideration of  18 degrees of freedom as
           vibrations may cause significant error
 Vibrational temperatures:     35.00    79.15    89.34   116.43   290.26
          (Kelvin)            322.31   377.84   424.05   448.81   533.12
                              582.50   619.25   659.96   709.61   792.53
                              819.73   875.28   883.51   972.85  1095.47
                             1135.27  1157.29  1238.41  1264.12  1283.35
                             1296.97  1338.41  1369.46  1439.79  1454.09
                             1483.80  1491.23  1516.09  1562.55  1591.67
                             1614.21  1642.59  1663.34  1700.85  1738.47
                             1756.51  1809.52  1826.90  1868.79  1878.46
                             1913.31  1931.04  1958.43  1978.03  2006.87
                             2047.96  2093.03  2095.68  2150.39  2174.37
                             2203.51  2214.09  2240.01  2296.92  2371.69
                             2435.57  4204.36  4237.34  4376.89  4393.56
                             4431.73  4436.21  4451.69  4470.66  4508.25
                             4557.57  4575.51  5039.42  5139.38  5288.04

 Zero-point correction=                           0.232872 (Hartree/Particle)
 Thermal correction to Energy=                    0.244635
 Thermal correction to Enthalpy=                  0.245579
 Thermal correction to Gibbs Free Energy=         0.193436
 Sum of electronic and zero-point Energies=           -570.164511
 Sum of electronic and thermal Energies=              -570.152748
 Sum of electronic and thermal Enthalpies=            -570.151804
 Sum of electronic and thermal Free Energies=         -570.203947

                     E (Thermal)             CV                S
                      KCal/Mol        Cal/Mol-Kelvin    Cal/Mol-Kelvin
 Total                  153.511             45.372            109.745
 Electronic               0.000              0.000              0.000
 Translational            0.889              2.981             41.439
 Rotational               0.889              2.981             31.450
 Vibrational            151.733             39.410             36.855
 Vibration     1          0.593              1.985              6.246
 Vibration     2          0.596              1.976              4.629
 Vibration     3          0.597              1.972              4.390
 Vibration     4          0.600              1.962              3.868
 Vibration     5          0.639              1.837              2.117
 Vibration     6          0.649              1.804              1.926
 Vibration     7          0.670              1.741              1.644
 Vibration     8          0.689              1.684              1.447
 Vibration     9          0.700              1.651              1.352
 Vibration    10          0.743              1.533              1.078
 Vibration    11          0.770              1.460              0.945
 Vibration    12          0.792              1.404              0.857
 Vibration    13          0.817              1.342              0.770
 Vibration    14          0.849              1.265              0.675
 Vibration    15          0.906              1.138              0.542
 Vibration    16          0.926              1.097              0.505
 Vibration    17          0.967              1.014              0.436
 Vibration    18          0.973              1.002              0.426

 Optimization completed.
    -- Stationary point found.

 1\1\GINC-NODE225\Freq\RB3LYP\6-31G(d)\C9H14N4\VSC10255\14-Dec-2020\0\\
 #N Geom=AllCheck Guess=TCheck SCRF=Check GenChk RB3LYP/6-31G(d) Freq\\
 CID_117105315_JID_3291_neutraal\\0,1\C,0.5184273299,-1.2017956124,0.06
 65601755\C,-0.8962635768,-0.6813819463,0.3859040753\N,-0.9881628376,0.
 5414970583,-0.4200381536\C,0.2933336916,1.214025022,-0.2111462101\C,1.
 3155535899,0.0677292401,-0.3589414248\C,2.5944204031,0.3077265991,0.46
 20581599\C,3.6029200923,-0.7974796434,0.2866374804\N,3.6073155764,-1.7
 425502991,1.2417046889\N,4.443435387,-2.7788226859,1.1255306913\C,5.25

 Normal termination of Gaussian 16 at Mon Dec 14 16:40:36 2020.

 ----------------------------------------------------------------------
 # B3LYP/6-311++G(d,p) empiricaldispersion=gd3bj scf=xqc pop=npa geom=c
 heck
 ----------------------------------------------------------------------

 ---------------------------------------
 CID_117105315_JID_3291_Energie_neutraal
 ---------------------------------------
 Structure from the checkpoint file:  "JID_3291.chk"
 Charge =  0 Multiplicity = 1

 SCF Done:  E(RB3LYP) =  -570.559452608     A.U. after   15 cycles
 Normal termination of Gaussian 16 at Mon Dec 14 16:43:42 2020.

 ----------------------------------------------------------------------
 # B3LYP/6-311++G(d,p) empiricaldispersion=gd3bj scf=xqc pop=npa geom=c
 heck
 ----------------------------------------------------------------------

 -------------------------------------
 CID_117105315_JID_3291_Energie_kation
 -------------------------------------
 Structure from the checkpoint file:  "JID_3291.chk"
 Charge =  1 Multiplicity = 2

 SCF Done:  E(UB3LYP) =  -570.172852197     A.U. after   33 cycles
 SCF Done:  E(UB3LYP) =  -570.266110854     a.u. after   41 cycles
 Normal termination of Gaussian 16 at Mon Dec 14 17:46:40 2020.
 Gaussian 16:  ES64L-G16RevA.03 25-Dec-2016

 ------------------------------------
 CID_117105315_JID_3291_Energie_anion
 ------------------------------------
 Structure from the checkpoint file:  "JID_3291.chk"
 Charge = -1 Multiplicity = 2

                         Standard orientation:
 ---------------------------------------------------------------------
 Center     Atomic      Atomic             Coordinates (Angstroms)
 Number     Number       Type             X           Y           Z
 ---------------------------------------------------------------------
      1          6           0        1.882210    0.736053   -0.786268
      2          6           0        3.412428    0.904293   -0.720767
      3          7           0        3.887199   -0.468763   -0.514056
      4          6           0        2.991342   -1.015861    0.503927
      5          6           0        1.597297   -0.568658    0.016670
      6          6           0        0.598409   -0.386283    1.172568
      7          6           0       -0.769984    0.016498    0.688219
      8          7           0       -1.042596    1.331444    0.732162
      9          7           0       -2.220375    1.765805    0.273228
     10          6           0       -3.106221    0.910398   -0.215626
     11          6           0       -2.895539   -0.484596   -0.291331
     12          6           0       -1.666690   -0.930520    0.186902
     13          7           0       -3.837982   -1.320247   -0.850101
     14          1           0        1.355248    1.594755   -0.362152
     15          1           0        1.548684    0.624850   -1.821714
     16          1           0        3.838580    1.328008   -1.636163
     17          1           0        3.677154    1.577099    0.116318
     18          1           0        4.859667   -0.492426   -0.214103
     19          1           0        3.175784   -0.598011    1.513643
     20          1           0        3.089688   -2.105217    0.570925
     21          1           0        1.204929   -1.331046   -0.666046
     22          1           0        0.529603   -1.321405    1.744314
     23          1           0        0.962797    0.393555    1.849023
     24          1           0       -4.038994    1.347643   -0.568816
     25          1           0       -1.404463   -1.985820    0.171390
     26          1           0       -4.787335   -0.974977   -0.891596
     27          1           0       -3.774581   -2.302626   -0.619406
 ---------------------------------------------------------------------

 SCF Done:  E(UB3LYP) =  -570.554722132     A.U. after   33 cycles
 SCF Done:  E(UB3LYP) =  -570.554722132     a.u. after    1 cycles

 The electronic state is 2-A.
 Alpha  occ. eigenvalues --  -14.21850 -14.21738 -14.20986 -14.20865 -10.11923
 Alpha  occ. eigenvalues --  -10.10090 -10.10042 -10.09861 -10.08803 -10.08013
 Alpha  occ. eigenvalues --  -10.07054 -10.06584 -10.06579  -0.89143  -0.82976
 Alpha  occ. eigenvalues --   -0.81876  -0.72804  -0.68016  -0.67306  -0.63676
 Alpha  occ. eigenvalues --   -0.58931  -0.54373  -0.50957  -0.50252  -0.46440
 Alpha  occ. eigenvalues --   -0.43540  -0.41893  -0.41285  -0.39110  -0.37342
 Alpha  occ. eigenvalues --   -0.36110  -0.34371  -0.32702  -0.31340  -0.30939
 Alpha  occ. eigenvalues --   -0.29497  -0.28769  -0.28058  -0.26816  -0.25197
 Alpha  occ. eigenvalues --   -0.24219  -0.23269  -0.22351  -0.18826  -0.16791
 Alpha  occ. eigenvalues --   -0.14267  -0.12484  -0.11808   0.04116
 Alpha virt. eigenvalues --    0.05593   0.06796   0.07585   0.08326   0.08771
 Alpha virt. eigenvalues --    0.08945   0.09469   0.10640   0.10902   0.11085
 Alpha virt. eigenvalues --    0.12151   0.12567   0.13038   0.14636   0.15170

  Beta  occ. eigenvalues --  -14.21701 -14.21638 -14.20965 -14.20855 -10.11881
  Beta  occ. eigenvalues --  -10.10085 -10.10044 -10.09849 -10.08786 -10.08013
  Beta  occ. eigenvalues --  -10.07047 -10.06579 -10.06486  -0.88982  -0.82962
  Beta  occ. eigenvalues --   -0.81739  -0.72707  -0.67935  -0.67178  -0.63656
  Beta  occ. eigenvalues --   -0.58886  -0.54153  -0.50868  -0.50221  -0.46414
  Beta  occ. eigenvalues --   -0.43459  -0.41844  -0.41192  -0.39069  -0.37210
  Beta  occ. eigenvalues --   -0.36007  -0.34341  -0.32585  -0.31231  -0.30822
  Beta  occ. eigenvalues --   -0.29422  -0.28720  -0.28002  -0.26791  -0.25164
  Beta  occ. eigenvalues --   -0.23916  -0.23242  -0.22330  -0.18740  -0.16413
  Beta  occ. eigenvalues --   -0.14247  -0.12194  -0.11676
  Beta virt. eigenvalues --    0.05908   0.07553   0.07668   0.08089   0.08542
  Beta virt. eigenvalues --    0.08875   0.09543   0.09910   0.10850   0.11030
  Beta virt. eigenvalues --    0.11353   0.12437   0.12619   0.13221   0.14856

 Mulliken charges and spin densities:
               1          2
     1  C   -0.517501  -0.044225
     2  C   -0.134551  -0.303477
     3  N   -0.174734   0.038544
     4  C    0.091801  -0.532859
     5  C   -0.001071   0.310515
     6  C    0.563622  -1.639656
     7  C    0.830870  -0.646107
     8  N   -0.087085   0.097262
     9  N    0.017585  -0.031222
    10  C   -1.207859   0.968142
    11  C    1.731314  -2.150090
    12  C   -0.933578   1.498049
    13  N   -0.281575  -0.027517
    14  H    0.201637  -0.033764
    15  H    0.111326   0.047547
    16  H    0.127595   0.021601
    17  H   -0.005008   0.129642
    18  H    0.070704   0.166219
    19  H   -0.002044   0.125843
    20  H   -0.083376   0.240339
    21  H    0.215254  -0.045746
    22  H   -0.023472   0.188449
    23  H    0.235147  -0.034329
    24  H   -0.231300   0.412873
    25  H   -0.664024   0.866303
    26  H   -0.383480   0.643192
    27  H   -0.466198   0.734473
 Sum of Mulliken charges =  -1.00000   1.00000

 Dipole moment (field-independent basis, Debye):
    X=              8.3205    Y=              3.0839    Z=              0.4013  Tot=              8.8827
 Quadrupole moment (field-independent basis, Debye-Ang):
   XX=           -160.3040   YY=           -124.2095   ZZ=           -101.4557
   XY=            -11.2897   XZ=             -3.9942   YZ=             -4.2109

 Summary of Natural Population Analysis:

                                       Natural Population
                Natural  -----------------------------------------------
    Atom  No    Charge         Core      Valence    Rydberg      Total
 -----------------------------------------------------------------------
      C    1   -0.19859      0.99962     2.19176    0.00721     3.19859
      C    2   -0.08832      0.99965     2.07934    0.00934     3.08832
      N    3   -0.34089      0.99975     2.83047    0.01067     3.84089
      C    4   -0.08698      0.99961     2.07548    0.01189     3.08698
      C    5   -0.10860      0.99959     2.09841    0.01060     3.10860
      C    6   -0.20246      0.99958     2.19177    0.01112     3.20246
      C    7    0.10042      0.99954     1.88514    0.01490     2.89958
      N    8   -0.16158      0.99968     2.64704    0.01485     3.66158
      N    9   -0.10262      0.99972     2.58859    0.01431     3.60262
      C   10   -0.01366      0.99956     1.99892    0.01518     3.01366
      C   11    0.09319      0.99949     1.89536    0.01196     2.90681
      C   12   -0.12221      0.99945     2.11267    0.01008     3.12221
      N   13   -0.38476      0.99971     2.87438    0.01067     3.88476
      H   14    0.11219      0.00000     0.38647    0.00134     0.38781
      H   15    0.09960      0.00000     0.39942    0.00098     0.40040
      H   16    0.09159      0.00000     0.40716    0.00125     0.40841
      H   17    0.07608      0.00000     0.42214    0.00178     0.42392
      H   18    0.17194      0.00000     0.32510    0.00296     0.32806
      H   19    0.07622      0.00000     0.42238    0.00140     0.42378
      H   20    0.09574      0.00000     0.40319    0.00106     0.40426
      H   21    0.09977      0.00000     0.39874    0.00150     0.40023
      H   22    0.10294      0.00000     0.39604    0.00103     0.39706
      H   23    0.10581      0.00000     0.39252    0.00168     0.39419
      H   24    0.09088      0.00000     0.40753    0.00159     0.40912
      H   25    0.10499      0.00000     0.39362    0.00139     0.39501
      H   26    0.19266      0.00000     0.29966    0.00768     0.30734
      H   27    0.19665      0.00000     0.28556    0.01779     0.30335
 =======================================================================
   * Total *   -0.00000     12.99496    34.80885    0.19619    48.00000

 Normal termination of Gaussian 16 at Mon Dec 14 17:55:17 2020.
