 Gaussian 16, Revision A.03,

 -----------------------------------------------------------
 # opt freq B3LYP/6-31G(d) empiricaldispersion=gd3bj scf=xqc
 -----------------------------------------------------------

 -------------------------------
 CID_104470275_JID_6366_neutraal
 -------------------------------
 Symbolic Z-matrix:
 Charge =  0 Multiplicity = 1

 SCF Done:  E(RB3LYP) =  -1012.77918840     A.U. after   16 cycles
 SCF Done:  E(RB3LYP) =  -1012.78222972     A.U. after   12 cycles
 SCF Done:  E(RB3LYP) =  -1012.78314055     A.U. after   13 cycles
 SCF Done:  E(RB3LYP) =  -1012.78420236     A.U. after   15 cycles
 SCF Done:  E(RB3LYP) =  -1012.78536339     A.U. after   12 cycles
 SCF Done:  E(RB3LYP) =  -1012.78656514     A.U. after   14 cycles
 SCF Done:  E(RB3LYP) =  -1012.78674321     A.U. after   12 cycles
 SCF Done:  E(RB3LYP) =  -1012.78678302     A.U. after   11 cycles
 SCF Done:  E(RB3LYP) =  -1012.78679366     A.U. after   10 cycles
 SCF Done:  E(RB3LYP) =  -1012.78679552     A.U. after    9 cycles
 SCF Done:  E(RB3LYP) =  -1012.78688238     A.U. after    9 cycles
 SCF Done:  E(RB3LYP) =  -1012.78688286     A.U. after    8 cycles
 SCF Done:  E(RB3LYP) =  -1012.78688337     A.U. after   10 cycles
 SCF Done:  E(RB3LYP) =  -1012.78688335     A.U. after    7 cycles
 SCF Done:  E(RB3LYP) =  -1012.78688337     A.U. after    8 cycles
 SCF Done:  E(RB3LYP) =  -1012.78688339     A.U. after    8 cycles
 Optimization completed on the basis of negligible forces.
    -- Stationary point found.
 Normal termination of Gaussian 16 at Thu Dec 10 22:42:15 2020.

 --------------------------------------------------------------------
 #N Geom=AllCheck Guess=TCheck SCRF=Check GenChk RB3LYP/6-31G(d) Freq
 --------------------------------------------------------------------

 Structure from the checkpoint file:  "JID_6366.chk"
 -------------------------------
 CID_104470275_JID_6366_neutraal
 -------------------------------
 Charge =  0 Multiplicity = 1

 SCF Done:  E(RB3LYP) =  -1012.78688339     A.U. after    1 cycles

  Exact polarizability: 247.552 -10.830 172.549  -1.473  -2.357  93.630
 Approx polarizability: 338.888 -15.846 310.054  -4.414  -9.543 140.674

                      1                      2                      3
                      A                      A                      A
 Frequencies --     14.3636                22.1053                37.5239
 Red. masses --      4.1292                 1.0292                 3.3497
 Frc consts  --      0.0005                 0.0003                 0.0028
 IR Inten    --      0.7347                 0.3219                 0.0611

                      4                      5                      6
                      A                      A                      A
 Frequencies --     65.1182                75.3255                96.4508
 Red. masses --      2.7183                 5.3592                 2.5385
 Frc consts  --      0.0068                 0.0179                 0.0139
 IR Inten    --      0.4338                 1.4636                 0.5100

                      7                      8                      9
                      A                      A                      A
 Frequencies --    120.6990               164.7787               210.6434
 Red. masses --      4.1532                 3.0824                 3.6113
 Frc consts  --      0.0356                 0.0493                 0.0944
 IR Inten    --      0.6730                 0.4623                 0.2621

                     10                     11                     12
                      A                      A                      A
 Frequencies --    220.5759               249.1514               252.3295
 Red. masses --      1.0373                 1.9218                 3.4728
 Frc consts  --      0.0297                 0.0703                 0.1303
 IR Inten    --      0.1202                 0.3216                 0.2628

                     13                     14                     15
                      A                      A                      A
 Frequencies --    281.7049               316.3097               324.9048
 Red. masses --      2.2232                 5.0805                 2.8032
 Frc consts  --      0.1040                 0.2995                 0.1744
 IR Inten    --      0.2945                 1.2629                 0.4310

                     16                     17                     18
                      A                      A                      A
 Frequencies --    341.8690               355.0028               424.9005
 Red. masses --      4.4235                 3.9873                 3.9336
 Frc consts  --      0.3046                 0.2961                 0.4184
 IR Inten    --      0.3968                 1.3278                 0.6948

                     19                     20                     21
                      A                      A                      A
 Frequencies --    445.5547               480.5283               523.2432
 Red. masses --      3.0546                 2.7221                 5.2354
 Frc consts  --      0.3573                 0.3703                 0.8445
 IR Inten    --      4.1132                 0.6313                 6.7784

                     22                     23                     24
                      A                      A                      A
 Frequencies --    526.1964               622.1905               627.3709
 Red. masses --      5.4738                 5.4588                 4.7186
 Frc consts  --      0.8930                 1.2451                 1.0942
 IR Inten    --      5.5292                 2.6415                 1.2199

                     25                     26                     27
                      A                      A                      A
 Frequencies --    709.1714               718.5965               727.4472
 Red. masses --      4.1076                 3.0778                 5.3746
 Frc consts  --      1.2171                 0.9364                 1.6757
 IR Inten    --      2.2318                 5.0385                11.1518

                     28                     29                     30
                      A                      A                      A
 Frequencies --    752.5649               768.3753               789.5817
 Red. masses --      1.9509                 2.9749                 1.4181
 Frc consts  --      0.6510                 1.0348                 0.5209
 IR Inten    --     16.7452                 2.6864                 0.7420

                     31                     32                     33
                      A                      A                      A
 Frequencies --    826.8408               846.0876               867.9579
 Red. masses --      2.5259                 1.3709                 3.8840
 Frc consts  --      1.0175                 0.5782                 1.7240
 IR Inten    --      5.2577                21.4784                17.5332

                     34                     35                     36
                      A                      A                      A
 Frequencies --    877.7308               900.1224               955.5042
 Red. masses --      3.1766                 1.3851                 2.4461
 Frc consts  --      1.4419                 0.6612                 1.3158
 IR Inten    --     11.8974                 1.9340                 3.7403

                     37                     38                     39
                      A                      A                      A
 Frequencies --    984.1365               984.4289              1002.5452
 Red. masses --      1.3775                 1.4473                 1.7713
 Frc consts  --      0.7861                 0.8264                 1.0489
 IR Inten    --      0.6845                 3.4758                 1.7077

                     40                     41                     42
                      A                      A                      A
 Frequencies --   1011.5458              1024.9541              1048.6573
 Red. masses --      5.7563                 1.7400                 2.5357
 Frc consts  --      3.4703                 1.0770                 1.6429
 IR Inten    --      6.6443                18.1434                 9.7834

                     43                     44                     45
                      A                      A                      A
 Frequencies --   1052.6312              1076.0484              1095.2330
 Red. masses --      2.9836                 1.5456                 1.8068
 Frc consts  --      1.9478                 1.0544                 1.2770
 IR Inten    --     36.7040                 5.7271                16.3375

                     46                     47                     48
                      A                      A                      A
 Frequencies --   1145.5372              1146.3806              1159.0376
 Red. masses --      1.5852                 1.9722                 1.3707
 Frc consts  --      1.2256                 1.5271                 1.0849
 IR Inten    --      7.4101                 2.5362                 0.0891

                     49                     50                     51
                      A                      A                      A
 Frequencies --   1206.4656              1219.8878              1295.2759
 Red. masses --      1.8574                 1.7763                 1.8508
 Frc consts  --      1.5928                 1.5575                 1.8295
 IR Inten    --      2.6405                 3.9101                 5.5946

                     52                     53                     54
                      A                      A                      A
 Frequencies --   1307.6977              1315.7409              1325.2640
 Red. masses --      2.2973                 8.0282                 1.7358
 Frc consts  --      2.3146                 8.1886                 1.7962
 IR Inten    --      8.6200                 4.5282                 0.5163

                     55                     56                     57
                      A                      A                      A
 Frequencies --   1344.1171              1365.4578              1375.6582
 Red. masses --      1.6780                 1.7346                 1.5385
 Frc consts  --      1.7862                 1.9055                 1.7154
 IR Inten    --      8.1479                 6.6276                 6.8620

                     58                     59                     60
                      A                      A                      A
 Frequencies --   1400.6494              1431.8623              1434.3018
 Red. masses --      1.4550                 2.7205                 1.2812
 Frc consts  --      1.6818                 3.2863                 1.5530
 IR Inten    --      2.9499                18.9905                 5.9009

                     61                     62                     63
                      A                      A                      A
 Frequencies --   1441.4030              1442.3554              1514.1784
 Red. masses --      1.2329                 1.2549                 1.0543
 Frc consts  --      1.5092                 1.5382                 1.4242
 IR Inten    --      0.8483                 0.2594                 7.4082

                     64                     65                     66
                      A                      A                      A
 Frequencies --   1517.7975              1518.7314              1522.8079
 Red. masses --      1.0783                 1.1443                 1.1553
 Frc consts  --      1.4636                 1.5550                 1.5785
 IR Inten    --      0.4343                 6.5012                18.9611

                     67                     68                     69
                      A                      A                      A
 Frequencies --   1524.6139              1527.4275              1534.5700
 Red. masses --      2.1676                 1.4153                 1.1558
 Frc consts  --      2.9686                 1.9454                 1.6036
 IR Inten    --     16.5236                 9.1982                 6.2354

                     70                     71                     72
                      A                      A                      A
 Frequencies --   1540.3062              1544.6740              1575.2403
 Red. masses --      1.2948                 1.4277                 7.6040
 Frc consts  --      1.8100                 2.0071                11.1170
 IR Inten    --     15.7860                11.8552                50.1157

                     73                     74                     75
                      A                      A                      A
 Frequencies --   1619.4875              1656.3056              3029.2271
 Red. masses --      5.9411                 5.3002                 1.0834
 Frc consts  --      9.1807                 8.5668                 5.8576
 IR Inten    --     23.9925               101.1482                20.8811

                     76                     77                     78
                      A                      A                      A
 Frequencies --   3044.3704              3044.8796              3050.7005
 Red. masses --      1.0409                 1.0603                 1.0378
 Frc consts  --      5.6840                 5.7920                 5.6907
 IR Inten    --     26.8594                37.2638                22.0286

                     79                     80                     81
                      A                      A                      A
 Frequencies --   3057.8876              3085.1263              3107.3466
 Red. masses --      1.0353                 1.0990                 1.0995
 Frc consts  --      5.7036                 6.1630                 6.2552
 IR Inten    --     21.6230                 6.5156                14.8322

                     82                     83                     84
                      A                      A                      A
 Frequencies --   3109.7174              3119.4537              3126.3415
 Red. masses --      1.1006                 1.1027                 1.1015
 Frc consts  --      6.2707                 6.3220                 6.3432
 IR Inten    --     37.5777                52.4836                27.9520

                     85                     86                     87
                      A                      A                      A
 Frequencies --   3134.6757              3136.9304              3169.3846
 Red. masses --      1.1022                 1.1028                 1.0886
 Frc consts  --      6.3812                 6.3939                 6.4427
 IR Inten    --     13.4150                33.5316                26.9278

                     88                     89                     90
                      A                      A                      A
 Frequencies --   3192.7855              3199.2577              3272.5268
 Red. masses --      1.0904                 1.0941                 1.0943
 Frc consts  --      6.5488                 6.5981                 6.9050
 IR Inten    --      9.5995                21.9309                 1.1697

 - Thermochemistry -
 -------------------
 Temperature   298.150 Kelvin.  Pressure   1.00000 Atm.
 Atom     1 has atomic number  6 and mass  12.00000

 Molecular mass:   232.10342 amu.
 Principal axes and moments of inertia in atomic units:
                           1         2         3
     Eigenvalues --  1756.442467831.050879032.59033
           X            0.99989   0.01450   0.00037
           Y           -0.01451   0.99987   0.00763
           Z           -0.00025  -0.00764   0.99997
 This molecule is an asymmetric top.
 Rotational symmetry number  1.
 Warning -- assumption of classical behavior for rotation
           may cause significant error
 Rotational temperatures (Kelvin)      0.04931     0.01106     0.00959
 Rotational constants (GHZ):           1.02750     0.23046     0.19980
 Zero-point vibrational energy     697739.0 (Joules/Mol)
                                  166.76362 (Kcal/Mol)
 Warning -- explicit consideration of  22 degrees of freedom as
           vibrations may cause significant error
 Vibrational temperatures:     20.67    31.80    53.99    93.69   108.38
          (Kelvin)            138.77   173.66   237.08   303.07   317.36
                              358.47   363.05   405.31   455.10   467.47
                              491.87   510.77   611.34   641.05   691.37
                              752.83   757.08   895.19   902.65  1020.34
                             1033.90  1046.63  1082.77  1105.52  1136.03
                             1189.64  1217.33  1248.80  1262.86  1295.08
                             1374.76  1415.95  1416.37  1442.44  1455.39
                             1474.68  1508.78  1514.50  1548.19  1575.80
                             1648.17  1649.39  1667.60  1735.83  1755.15
                             1863.61  1881.49  1893.06  1906.76  1933.88
                             1964.59  1979.27  2015.22  2060.13  2063.64
                             2073.86  2075.23  2178.57  2183.77  2185.12
                             2190.98  2193.58  2197.63  2207.90  2216.16
                             2222.44  2266.42  2330.08  2383.05  4358.38
                             4380.17  4380.90  4389.28  4399.62  4438.81
                             4470.78  4474.19  4488.20  4498.11  4510.10
                             4513.34  4560.04  4593.71  4603.02  4708.44

 Zero-point correction=                           0.265755 (Hartree/Particle)
 Thermal correction to Energy=                    0.281874
 Thermal correction to Enthalpy=                  0.282818
 Thermal correction to Gibbs Free Energy=         0.219104
 Sum of electronic and zero-point Energies=          -1012.521129
 Sum of electronic and thermal Energies=             -1012.505009
 Sum of electronic and thermal Enthalpies=           -1012.504065
 Sum of electronic and thermal Free Energies=        -1012.567780

                     E (Thermal)             CV                S
                      KCal/Mol        Cal/Mol-Kelvin    Cal/Mol-Kelvin
 Total                  176.879             59.421            134.099
 Electronic               0.000              0.000              0.000
 Translational            0.889              2.981             42.228
 Rotational               0.889              2.981             33.185
 Vibrational            175.101             53.459             58.686
 Vibration     1          0.593              1.986              7.292
 Vibration     2          0.593              1.985              6.435
 Vibration     3          0.594              1.982              5.386
 Vibration     4          0.597              1.971              4.296
 Vibration     5          0.599              1.965              4.009
 Vibration     6          0.603              1.952              3.525
 Vibration     7          0.609              1.932              3.089
 Vibration     8          0.623              1.886              2.494
 Vibration     9          0.643              1.825              2.038
 Vibration    10          0.647              1.810              1.954
 Vibration    11          0.662              1.764              1.737
 Vibration    12          0.664              1.759              1.714
 Vibration    13          0.681              1.708              1.523
 Vibration    14          0.703              1.642              1.329
 Vibration    15          0.709              1.626              1.285
 Vibration    16          0.721              1.592              1.203
 Vibration    17          0.731              1.565              1.144
 Vibration    18          0.787              1.416              0.875
 Vibration    19          0.805              1.371              0.809
 Vibration    20          0.837              1.293              0.709
 Vibration    21          0.878              1.199              0.602
 Vibration    22          0.881              1.192              0.596

 Optimization completed on the basis of negligible forces.
    -- Stationary point found.
 Normal termination of Gaussian 16 at Thu Dec 10 22:51:04 2020.

 ----------------------------------------------------------------------
 # B3LYP/6-311++G(d,p) empiricaldispersion=gd3bj scf=xqc pop=npa geom=c
 heck
 ----------------------------------------------------------------------

 ---------------------------------------
 CID_104470275_JID_6366_Energie_neutraal
 ---------------------------------------
 Structure from the checkpoint file:  "JID_6366.chk"
 Charge =  0 Multiplicity = 1

 SCF Done:  E(RB3LYP) =  -1012.97061923     A.U. after   16 cycles
 Normal termination of Gaussian 16 at Thu Dec 10 22:55:42 2020.

 ----------------------------------------------------------------------
 # B3LYP/6-311++G(d,p) empiricaldispersion=gd3bj scf=xqc pop=npa geom=c
 heck
 ----------------------------------------------------------------------

 -------------------------------------
 CID_104470275_JID_6366_Energie_kation
 -------------------------------------
 Structure from the checkpoint file:  "JID_6366.chk"
 Charge =  1 Multiplicity = 2

 SCF Done:  E(UB3LYP) =  -1012.67972196     A.U. after   25 cycles
 Normal termination of Gaussian 16 at Thu Dec 10 23:04:54 2020.
 Gaussian 16:  ES64L-G16RevA.03 25-Dec-2016

 ----------------------------------------------------------------------
 # B3LYP/6-311++G(d,p) empiricaldispersion=gd3bj scf=xqc pop=npa geom=c
 heck
 ----------------------------------------------------------------------

 ------------------------------------
 CID_104470275_JID_6366_Energie_anion
 ------------------------------------
 Structure from the checkpoint file:  "JID_6366.chk"
 Charge = -1 Multiplicity = 2

                         Standard orientation:
 ---------------------------------------------------------------------
 Center     Atomic      Atomic             Coordinates (Angstroms)
 Number     Number       Type             X           Y           Z
 ---------------------------------------------------------------------
      1          6           0       -5.143131   -1.371431   -0.776008
      2          6           0       -3.705968   -0.847122   -0.818095
      3          6           0       -3.361156    0.142859    0.316373
      4          6           0       -3.488064   -0.490573    1.712207
      5          6           0       -1.967195    0.680511    0.117183
      6          6           0       -1.629755    1.985726   -0.123392
      7         16           0        0.085772    2.153076   -0.298448
      8          6           0        0.239257    0.409597   -0.020946
      9          7           0       -0.901305   -0.190556    0.169792
     10          6           0        1.554389   -0.257877   -0.023758
     11          7           0        1.542176   -1.599470   -0.093661
     12          6           0        2.723480   -2.220509   -0.095004
     13          6           0        3.952812   -1.566154   -0.035597
     14          6           0        3.974294   -0.169032    0.037614
     15          6           0        2.742794    0.484723    0.048913
     16          6           0        5.272130    0.594110    0.096149
     17          1           0       -5.331290   -1.979396    0.115014
     18          1           0       -5.352667   -1.997486   -1.650367
     19          1           0       -5.867075   -0.546633   -0.776195
     20          1           0       -2.994579   -1.680672   -0.775761
     21          1           0       -3.532025   -0.342384   -1.777242
     22          1           0       -4.056249    0.991769    0.252253
     23          1           0       -2.802421   -1.339166    1.803511
     24          1           0       -3.232451    0.235200    2.491671
     25          1           0       -4.507584   -0.841833    1.898663
     26          1           0       -2.285964    2.840692   -0.208843
     27          1           0        2.685899   -3.307331   -0.148934
     28          1           0        4.877524   -2.136637   -0.042300
     29          1           0        2.710026    1.567708    0.127367
     30          1           0        5.105998    1.649622    0.330380
     31          1           0        5.943254    0.175956    0.854495
     32          1           0        5.797839    0.542581   -0.865304
 ---------------------------------------------------------------------

 SCF Done:  E(UB3LYP) =  -1012.98242641     A.U. after   27 cycles

 The electronic state is 2-A.
 Alpha  occ. eigenvalues --  -88.71828 -14.14309 -14.14075 -10.06517 -10.06428
 Alpha  occ. eigenvalues --  -10.06357 -10.05863 -10.05818 -10.05775 -10.05550
 Alpha  occ. eigenvalues --  -10.05084 -10.04909 -10.04743 -10.04221 -10.02868
 Alpha  occ. eigenvalues --  -10.02068  -7.80526  -5.76804  -5.76468  -5.76145
 Alpha  occ. eigenvalues --   -0.80941  -0.78487  -0.69786  -0.68036  -0.64134
 Alpha  occ. eigenvalues --   -0.63638  -0.61892  -0.58410  -0.57338  -0.53423
 Alpha  occ. eigenvalues --   -0.49532  -0.47484  -0.45452  -0.43304  -0.38748
 Alpha  occ. eigenvalues --   -0.36993  -0.35274  -0.34963  -0.34646  -0.32667
 Alpha  occ. eigenvalues --   -0.31166  -0.31036  -0.29883  -0.29277  -0.28441
 Alpha  occ. eigenvalues --   -0.27501  -0.26661  -0.26103  -0.25540  -0.25476
 Alpha  occ. eigenvalues --   -0.24133  -0.23672  -0.22323  -0.21897  -0.21497
 Alpha  occ. eigenvalues --   -0.19626  -0.14703  -0.13465  -0.12944  -0.11800
 Alpha  occ. eigenvalues --   -0.10289  -0.08294   0.04371
 Alpha virt. eigenvalues --    0.07103   0.08070   0.09024   0.09427   0.09942
 Alpha virt. eigenvalues --    0.10419   0.10636   0.11345   0.11639   0.12347
 Alpha virt. eigenvalues --    0.12388   0.12576   0.13362   0.13773   0.14204

  Beta  occ. eigenvalues --  -88.71769 -14.14059 -14.13790 -10.06515 -10.06353
  Beta  occ. eigenvalues --  -10.06206 -10.05953 -10.05846 -10.05823 -10.05554
  Beta  occ. eigenvalues --  -10.05053 -10.04747 -10.04667 -10.03972 -10.02816
  Beta  occ. eigenvalues --  -10.01793  -7.80474  -5.76779  -5.76444  -5.75949
  Beta  occ. eigenvalues --   -0.80492  -0.78069  -0.69763  -0.67757  -0.63700
  Beta  occ. eigenvalues --   -0.63388  -0.61642  -0.58191  -0.57195  -0.53308
  Beta  occ. eigenvalues --   -0.49033  -0.47397  -0.45244  -0.43041  -0.38524
  Beta  occ. eigenvalues --   -0.36864  -0.35225  -0.34802  -0.34508  -0.32542
  Beta  occ. eigenvalues --   -0.31073  -0.30881  -0.29769  -0.29152  -0.28391
  Beta  occ. eigenvalues --   -0.27419  -0.26055  -0.25735  -0.25452  -0.25173
  Beta  occ. eigenvalues --   -0.23916  -0.23081  -0.22246  -0.21593  -0.21362
  Beta  occ. eigenvalues --   -0.19482  -0.13130  -0.12525  -0.11693  -0.11409
  Beta  occ. eigenvalues --   -0.09953  -0.06989
  Beta virt. eigenvalues --    0.07051   0.07996   0.08973   0.09384   0.09746
  Beta virt. eigenvalues --    0.09896   0.10387   0.10871   0.11297   0.11590
  Beta virt. eigenvalues --    0.12310   0.12531   0.12615   0.13300   0.13744

 Mulliken charges and spin densities:
               1          2
     1  C   -0.517464  -0.032381
     2  C   -0.353646   0.016762
     3  C    0.054345   0.021496
     4  C   -0.687216   0.001236
     5  C   -0.992674  -0.096726
     6  C    0.730748   0.204907
     7  S   -0.779526   0.107500
     8  C    0.502375   0.107074
     9  N    0.285143   0.138887
    10  C   -0.799272   0.128024
    11  N   -0.017576   0.120386
    12  C    0.270228  -0.036591
    13  C   -0.964413   0.238931
    14  C    0.718030   0.013522
    15  C   -0.243824   0.043078
    16  C   -0.277112   0.000973
    17  H    0.125061   0.007095
    18  H    0.120180   0.005379
    19  H    0.114498   0.009017
    20  H    0.170666  -0.001675
    21  H    0.132184   0.002962
    22  H    0.125189  -0.004528
    23  H    0.177066   0.004825
    24  H    0.124670  -0.000944
    25  H    0.110149   0.002132
    26  H    0.216022  -0.012917
    27  H    0.135192   0.003842
    28  H    0.095257  -0.020344
    29  H    0.058298  -0.004814
    30  H    0.132658   0.000400
    31  H    0.107968   0.017164
    32  H    0.126799   0.015326
 Sum of Mulliken charges =  -1.00000   1.00000

 Dipole moment (field-independent basis, Debye):
    X=             -2.6804    Y=              1.3762    Z=              0.0685  Tot=              3.0138
 Quadrupole moment (field-independent basis, Debye-Ang):
   XX=           -139.3335   YY=           -121.8030   ZZ=           -115.6751
   XY=              3.0988   XZ=              0.5838   YZ=              0.5589

 Summary of Natural Population Analysis:

                                       Natural Population
                Natural  -----------------------------------------------
    Atom  No    Charge         Core      Valence    Rydberg      Total
 -----------------------------------------------------------------------
      C    1   -0.28611      0.99967     2.28249    0.00394     3.28611
      C    2   -0.18841      0.99963     2.18121    0.00758     3.18841
      C    3   -0.11385      0.99956     2.10453    0.00976     3.11385
      C    4   -0.28513      0.99966     2.28046    0.00501     3.28513
      C    5    0.04023      0.99948     1.94499    0.01530     2.95977
      C    6   -0.17042      0.99946     2.16095    0.01001     3.17042
      S    7    0.17018      4.99946     2.80804    0.02232     7.82982
      C    8    0.07077      0.99957     1.91261    0.01705     2.92923
      N    9   -0.20476      0.99962     2.69221    0.01294     3.70476
      C   10    0.11932      0.99937     1.86739    0.01392     2.88068
      N   11   -0.18889      0.99969     2.67911    0.01008     3.68889
      C   12    0.00821      0.99960     1.97725    0.01494     2.99179
      C   13   -0.08697      0.99951     2.07825    0.00921     3.08697
      C   14   -0.00953      0.99953     2.00167    0.00833     3.00953
      C   15   -0.10228      0.99943     2.09507    0.00777     3.10228
      C   16   -0.29111      0.99964     2.28673    0.00474     3.29111
      H   17    0.09384      0.00000     0.40526    0.00090     0.40616
      H   18    0.09440      0.00000     0.40469    0.00090     0.40560
      H   19    0.09042      0.00000     0.40856    0.00103     0.40958
      H   20    0.10630      0.00000     0.39253    0.00117     0.39370
      H   21    0.09610      0.00000     0.40279    0.00111     0.40390
      H   22    0.08918      0.00000     0.40905    0.00177     0.41082
      H   23    0.10784      0.00000     0.39120    0.00096     0.39216
      H   24    0.09897      0.00000     0.40015    0.00088     0.40103
      H   25    0.08804      0.00000     0.41108    0.00088     0.41196
      H   26    0.09814      0.00000     0.40066    0.00120     0.40186
      H   27    0.07795      0.00000     0.42065    0.00140     0.42205
      H   28    0.08788      0.00000     0.41090    0.00121     0.41212
      H   29    0.09575      0.00000     0.40290    0.00135     0.40425
      H   30    0.09752      0.00000     0.40150    0.00099     0.40248
      H   31    0.09762      0.00000     0.40133    0.00105     0.40238
      H   32    0.09879      0.00000     0.40017    0.00104     0.40121
 =======================================================================
   * Total *    0.00000     19.99288    41.81639    0.19073    62.00000

 Normal termination of Gaussian 16 at Thu Dec 10 23:14:29 2020.
