 Gaussian 16, Revision A.03,

 -----------------------------------------------------------
 # opt freq B3LYP/6-31G(d) empiricaldispersion=gd3bj scf=xqc
 -----------------------------------------------------------

 ------------------------------
 CID_88964510_JID_1128_neutraal
 ------------------------------
 Symbolic Z-matrix:
 Charge =  0 Multiplicity = 1

 SCF Done:  E(RB3LYP) =  -533.822013889     A.U. after   15 cycles
 SCF Done:  E(RB3LYP) =  -533.827769868     A.U. after   15 cycles
 SCF Done:  E(RB3LYP) =  -533.821792753     A.U. after   17 cycles
 SCF Done:  E(RB3LYP) =  -533.833336089     A.U. after   14 cycles
 SCF Done:  E(RB3LYP) =  -533.834790710     A.U. after   16 cycles
 SCF Done:  E(RB3LYP) =  -533.835318338     A.U. after   14 cycles
 SCF Done:  E(RB3LYP) =  -533.835598873     A.U. after   14 cycles
 SCF Done:  E(RB3LYP) =  -533.835708100     A.U. after   13 cycles
 SCF Done:  E(RB3LYP) =  -533.835741045     A.U. after   12 cycles
 SCF Done:  E(RB3LYP) =  -533.835767204     A.U. after   12 cycles
 SCF Done:  E(RB3LYP) =  -533.835774390     A.U. after   11 cycles
 SCF Done:  E(RB3LYP) =  -533.835776483     A.U. after    9 cycles
 SCF Done:  E(RB3LYP) =  -533.835779879     A.U. after   10 cycles
 SCF Done:  E(RB3LYP) =  -533.835781040     A.U. after   10 cycles
 SCF Done:  E(RB3LYP) =  -533.835781267     A.U. after    8 cycles
 Optimization completed.
    -- Stationary point found.
 Normal termination of Gaussian 16 at Tue Dec  8 19:16:11 2020.

 --------------------------------------------------------------------
 #N Geom=AllCheck Guess=TCheck SCRF=Check GenChk RB3LYP/6-31G(d) Freq
 --------------------------------------------------------------------

 Structure from the checkpoint file:  "JID_1128.chk"
 ------------------------------
 CID_88964510_JID_1128_neutraal
 ------------------------------
 Charge =  0 Multiplicity = 1

 SCF Done:  E(RB3LYP) =  -533.835781267     A.U. after    1 cycles

  Exact polarizability: 153.066 -10.064  95.740  -1.635   1.731  66.507
 Approx polarizability: 226.573 -28.101 143.683   7.775   3.260 109.530

                      1                      2                      3
                      A                      A                      A
 Frequencies --     55.8838                64.6958               101.1694
 Red. masses --      8.4170                 2.8406                 1.4570
 Frc consts  --      0.0155                 0.0070                 0.0088
 IR Inten    --      0.6935                 2.6653                 3.1451

                      4                      5                      6
                      A                      A                      A
 Frequencies --    112.6209               144.7528               156.3357
 Red. masses --      2.6870                 1.3679                 1.9639
 Frc consts  --      0.0201                 0.0169                 0.0283
 IR Inten    --      0.4690                 0.3451                 0.3892

                      7                      8                      9
                      A                      A                      A
 Frequencies --    172.3804               199.2486               212.9488
 Red. masses --      2.9519                 1.8431                 1.3456
 Frc consts  --      0.0517                 0.0431                 0.0360
 IR Inten    --      1.0484                 0.5621                 0.6947

                     10                     11                     12
                      A                      A                      A
 Frequencies --    238.9707               253.5705               353.9435
 Red. masses --      3.4887                 2.3068                 4.7273
 Frc consts  --      0.1174                 0.0874                 0.3489
 IR Inten    --      2.7502                 0.8761                 2.4997

                     13                     14                     15
                      A                      A                      A
 Frequencies --    367.5362               378.5742               418.5204
 Red. masses --      3.0398                 4.8501                 3.9319
 Frc consts  --      0.2419                 0.4095                 0.4058
 IR Inten    --      4.0413                 5.9809                 1.2893

                     16                     17                     18
                      A                      A                      A
 Frequencies --    462.9387               570.7183               605.7217
 Red. masses --      3.3433                 3.5475                 3.9921
 Frc consts  --      0.4222                 0.6808                 0.8630
 IR Inten    --      2.6477                 6.7666                 1.7826

                     19                     20                     21
                      A                      A                      A
 Frequencies --    691.4411               769.8056               805.6497
 Red. masses --      4.6110                 6.4956                 1.2315
 Frc consts  --      1.2988                 2.2680                 0.4709
 IR Inten    --      2.7401                 3.4359                 0.2134

                     22                     23                     24
                      A                      A                      A
 Frequencies --    835.6850               899.1364               902.0820
 Red. masses --      4.6982                 2.2195                 1.4355
 Frc consts  --      1.9332                 1.0572                 0.6882
 IR Inten    --     31.8361                14.4265                 7.0637

                     25                     26                     27
                      A                      A                      A
 Frequencies --    962.6639               993.3899              1030.8284
 Red. masses --      2.1172                 2.7839                 1.7284
 Frc consts  --      1.1560                 1.6186                 1.0821
 IR Inten    --     25.5970                 1.6660                 4.7072

                     28                     29                     30
                      A                      A                      A
 Frequencies --   1046.0346              1100.8877              1107.7121
 Red. masses --      1.4085                 1.6263                 1.8572
 Frc consts  --      0.9080                 1.1613                 1.3426
 IR Inten    --      7.5739                 0.3101                12.3461

                     31                     32                     33
                      A                      A                      A
 Frequencies --   1117.1030              1168.6318              1195.0568
 Red. masses --      2.1637                 2.3028                 2.6861
 Frc consts  --      1.5909                 1.8529                 2.2602
 IR Inten    --      5.6704                 9.9375                 4.9985

                     34                     35                     36
                      A                      A                      A
 Frequencies --   1268.1421              1330.3359              1367.2647
 Red. masses --      2.2941                 1.4241                 1.4303
 Frc consts  --      2.1737                 1.4850                 1.5754
 IR Inten    --      0.9406                 1.7825                 1.9806

                     37                     38                     39
                      A                      A                      A
 Frequencies --   1390.6524              1414.5646              1427.0723
 Red. masses --      4.2760                 1.4517                 1.2848
 Frc consts  --      4.8722                 1.7115                 1.5416
 IR Inten    --    123.9350                27.0678                 2.3578

                     40                     41                     42
                      A                      A                      A
 Frequencies --   1432.7666              1440.1017              1498.9795
 Red. masses --      1.2424                 1.3740                 1.0648
 Frc consts  --      1.5026                 1.6790                 1.4097
 IR Inten    --      7.7535                 7.2453                17.3330

                     43                     44                     45
                      A                      A                      A
 Frequencies --   1503.1370              1503.8191              1517.2568
 Red. masses --      1.0570                 1.0693                 1.0598
 Frc consts  --      1.4070                 1.4247                 1.4375
 IR Inten    --      7.7350                 8.3310                 9.5684

                     46                     47                     48
                      A                      A                      A
 Frequencies --   1525.1347              1529.7725              1544.1103
 Red. masses --      1.0669                 1.0563                 1.0859
 Frc consts  --      1.4621                 1.4565                 1.5254
 IR Inten    --      0.4201                 3.8614                 4.7957

                     49                     50                     51
                      A                      A                      A
 Frequencies --   1623.3100              1698.4708              1736.5523
 Red. masses --      9.8910                 7.3526                 7.2682
 Frc consts  --     15.3566                12.4971                12.9138
 IR Inten    --    216.3801                31.7874                92.3488

                     52                     53                     54
                      A                      A                      A
 Frequencies --   3039.5153              3041.9029              3050.4555
 Red. masses --      1.0388                 1.0464                 1.0652
 Frc consts  --      5.6544                 5.7050                 5.8400
 IR Inten    --     17.6066                 8.0979                40.7332

                     55                     56                     57
                      A                      A                      A
 Frequencies --   3061.3078              3088.2526              3090.0558
 Red. masses --      1.0366                 1.0991                 1.0974
 Frc consts  --      5.7239                 6.1761                 6.1740
 IR Inten    --     36.3305                11.6161                18.9476

                     58                     59                     60
                      A                      A                      A
 Frequencies --   3100.4617              3117.8999              3133.4633
 Red. masses --      1.0869                 1.0988                 1.0970
 Frc consts  --      6.1562                 6.2933                 6.3462
 IR Inten    --     13.5229                 8.9669                32.4897

                     61                     62                     63
                      A                      A                      A
 Frequencies --   3156.9781              3157.2428              3187.9662
 Red. masses --      1.1023                 1.1005                 1.0965
 Frc consts  --      6.4726                 6.4631                 6.5658
 IR Inten    --     15.0734                15.3237                 3.8880

 - Thermochemistry -
 -------------------
 Temperature   298.150 Kelvin.  Pressure   1.00000 Atm.
 Atom     1 has atomic number  6 and mass  12.00000

 Molecular mass:   156.08988 amu.
 Principal axes and moments of inertia in atomic units:
                           1         2         3
     Eigenvalues --  1122.422042350.991063152.94349
           X            0.99999  -0.00232  -0.00304
           Y            0.00233   0.99998   0.00539
           Z            0.00303  -0.00539   0.99998
 This molecule is an asymmetric top.
 Rotational symmetry number  1.
 Warning -- assumption of classical behavior for rotation
           may cause significant error
 Rotational temperatures (Kelvin)      0.07717     0.03684     0.02747
 Rotational constants (GHZ):           1.60790     0.76765     0.57240
 Zero-point vibrational energy     499282.9 (Joules/Mol)
                                  119.33148 (Kcal/Mol)
 Warning -- explicit consideration of  18 degrees of freedom as
           vibrations may cause significant error
 Vibrational temperatures:     80.40    93.08   145.56   162.04   208.27
          (Kelvin)            224.93   248.02   286.67   306.39   343.83
                              364.83   509.25   528.80   544.68   602.16
                              666.07   821.14   871.50   994.83  1107.58
                             1159.15  1202.36  1293.66  1297.89  1385.06
                             1429.27  1483.13  1505.01  1583.93  1593.75
                             1607.26  1681.40  1719.42  1824.57  1914.06
                             1967.19  2000.84  2035.24  2053.24  2061.43
                             2071.99  2156.70  2162.68  2163.66  2182.99
                             2194.33  2201.00  2221.63  2335.58  2443.72
                             2498.51  4373.18  4376.62  4388.93  4404.54
                             4443.31  4445.90  4460.87  4485.96  4508.35
                             4542.19  4542.57  4586.77

 Zero-point correction=                           0.190167 (Hartree/Particle)
 Thermal correction to Energy=                    0.202768
 Thermal correction to Enthalpy=                  0.203712
 Thermal correction to Gibbs Free Energy=         0.151210
 Sum of electronic and zero-point Energies=           -533.645614
 Sum of electronic and thermal Energies=              -533.633013
 Sum of electronic and thermal Enthalpies=            -533.632069
 Sum of electronic and thermal Free Energies=         -533.684572

                     E (Thermal)             CV                S
                      KCal/Mol        Cal/Mol-Kelvin    Cal/Mol-Kelvin
 Total                  127.239             44.209            110.501
 Electronic               0.000              0.000              0.000
 Translational            0.889              2.981             41.045
 Rotational               0.889              2.981             30.499
 Vibrational            125.461             38.247             38.957
 Vibration     1          0.596              1.975              4.598
 Vibration     2          0.597              1.971              4.309
 Vibration     3          0.604              1.948              3.432
 Vibration     4          0.607              1.939              3.223
 Vibration     5          0.616              1.908              2.740
 Vibration     6          0.620              1.896              2.594
 Vibration     7          0.626              1.876              2.409
 Vibration     8          0.637              1.841              2.140
 Vibration     9          0.644              1.821              2.018
 Vibration    10          0.657              1.781              1.811
 Vibration    11          0.665              1.757              1.706
 Vibration    12          0.730              1.567              1.149
 Vibration    13          0.740              1.539              1.090
 Vibration    14          0.749              1.516              1.045
 Vibration    15          0.781              1.430              0.897
 Vibration    16          0.821              1.332              0.758
 Vibration    17          0.927              1.095              0.503
 Vibration    18          0.964              1.020              0.440

                           ! Non-Optimized Parameters !
 Normal termination of Gaussian 16 at Tue Dec  8 19:20:41 2020.

 ----------------------------------------------------------------------
 # B3LYP/6-311++G(d,p) empiricaldispersion=gd3bj scf=xqc pop=npa geom=c
 heck
 ----------------------------------------------------------------------

 --------------------------------------
 CID_88964510_JID_1128_Energie_neutraal
 --------------------------------------
 Structure from the checkpoint file:  "JID_1128.chk"
 Charge =  0 Multiplicity = 1

 SCF Done:  E(RB3LYP) =  -533.991065610     A.U. after   15 cycles
 Normal termination of Gaussian 16 at Tue Dec  8 19:22:42 2020.

 ----------------------------------------------------------------------
 # B3LYP/6-311++G(d,p) empiricaldispersion=gd3bj scf=xqc pop=npa geom=c
 heck
 ----------------------------------------------------------------------

 ------------------------------------
 CID_88964510_JID_1128_Energie_kation
 ------------------------------------
 Structure from the checkpoint file:  "JID_1128.chk"
 Charge =  1 Multiplicity = 2

 SCF Done:  E(UB3LYP) =  -533.667252812     A.U. after   24 cycles
 Normal termination of Gaussian 16 at Tue Dec  8 19:27:12 2020.
 Gaussian 16:  ES64L-G16RevA.03 25-Dec-2016

 ----------------------------------------------------------------------
 # B3LYP/6-311++G(d,p) empiricaldispersion=gd3bj scf=xqc pop=npa geom=c
 heck
 ----------------------------------------------------------------------

 -----------------------------------
 CID_88964510_JID_1128_Energie_anion
 -----------------------------------
 Structure from the checkpoint file:  "JID_1128.chk"
 Charge = -1 Multiplicity = 2

                         Standard orientation:
 ---------------------------------------------------------------------
 Center     Atomic      Atomic             Coordinates (Angstroms)
 Number     Number       Type             X           Y           Z
 ---------------------------------------------------------------------
      1          6           0        3.195378   -0.185574    0.804501
      2          6           0        2.373593   -0.170492   -0.498055
      3          6           0        1.006763   -0.781083   -0.312257
      4          6           0       -0.130236   -0.073240   -0.124788
      5          7           0       -1.361983   -0.677404    0.053856
      6          6           0       -2.482173   -0.072356    0.170209
      7          6           0       -3.740735   -0.843602    0.411371
      8          7           0       -0.051797    1.413762   -0.118383
      9          8           0        0.760470    1.958332    0.629338
     10          8           0       -0.842759    2.018714   -0.845580
     11          6           0        0.952260   -2.282306   -0.359282
     12          1           0        2.709972    0.438522    1.558359
     13          1           0        4.200529    0.207833    0.620658
     14          1           0        3.299472   -1.200128    1.204018
     15          1           0        2.309582    0.856732   -0.863180
     16          1           0        2.899913   -0.755105   -1.263662
     17          1           0       -2.577391    1.015723    0.095459
     18          1           0       -3.534249   -1.914971    0.463653
     19          1           0       -4.214513   -0.517809    1.347032
     20          1           0       -4.466089   -0.650369   -0.390136
     21          1           0        1.227915   -2.631610   -1.363328
     22          1           0        1.688864   -2.707309    0.333750
     23          1           0       -0.038339   -2.660459   -0.111196
 ---------------------------------------------------------------------

 SCF Done:  E(UB3LYP) =  -534.010665240     A.U. after   28 cycles

 The electronic state is 2-A.
 Alpha  occ. eigenvalues --  -18.93591 -18.93551 -14.30187 -14.16689 -10.06707
 Alpha  occ. eigenvalues --  -10.06183 -10.04974 -10.03320 -10.03040 -10.02854
 Alpha  occ. eigenvalues --  -10.02009  -1.01286  -0.84210  -0.78666  -0.67940
 Alpha  occ. eigenvalues --   -0.62886  -0.59478  -0.57120  -0.50215  -0.48186
 Alpha  occ. eigenvalues --   -0.43281  -0.38977  -0.36048  -0.34849  -0.31960
 Alpha  occ. eigenvalues --   -0.30850  -0.30727  -0.30367  -0.29247  -0.27486
 Alpha  occ. eigenvalues --   -0.26412  -0.26036  -0.25605  -0.23702  -0.21211
 Alpha  occ. eigenvalues --   -0.21027  -0.20167  -0.14341  -0.12486  -0.10463
 Alpha  occ. eigenvalues --   -0.09238  -0.07988   0.04777
 Alpha virt. eigenvalues --    0.08480   0.08876   0.10083   0.10436   0.11394
 Alpha virt. eigenvalues --    0.12237   0.12355   0.13393   0.14036   0.14569
 Alpha virt. eigenvalues --    0.15175   0.16128   0.16358   0.17845   0.18251

  Beta  occ. eigenvalues --  -18.93174 -18.93068 -14.29431 -14.16665 -10.06777
  Beta  occ. eigenvalues --  -10.06052 -10.04981 -10.03352 -10.03003 -10.02886
  Beta  occ. eigenvalues --  -10.01533  -1.00175  -0.83355  -0.78503  -0.67459
  Beta  occ. eigenvalues --   -0.62722  -0.59321  -0.56681  -0.49973  -0.47464
  Beta  occ. eigenvalues --   -0.42910  -0.38566  -0.35280  -0.34205  -0.30657
  Beta  occ. eigenvalues --   -0.30630  -0.30046  -0.29397  -0.28855  -0.27325
  Beta  occ. eigenvalues --   -0.26197  -0.25941  -0.25156  -0.23534  -0.20932
  Beta  occ. eigenvalues --   -0.20869  -0.20021  -0.14136  -0.09798  -0.09501
  Beta  occ. eigenvalues --   -0.08867  -0.06754
  Beta virt. eigenvalues --    0.08452   0.08791   0.10281   0.10771   0.11514
  Beta virt. eigenvalues --    0.12164   0.12309   0.13316   0.13748   0.14151
  Beta virt. eigenvalues --    0.14519   0.15274   0.16088   0.16413   0.17774

 Mulliken charges and spin densities:
               1          2
     1  C   -0.564323  -0.056507
     2  C   -0.431972  -0.007631
     3  C    0.492481   0.331588
     4  C   -0.100003  -0.060104
     5  N    0.018420  -0.001837
     6  C    0.255606   0.098499
     7  C   -0.627004  -0.023633
     8  N   -0.375091   0.246938
     9  O   -0.165219   0.183134
    10  O   -0.168409   0.161924
    11  C   -0.738962  -0.025500
    12  H    0.157816   0.017872
    13  H    0.055182   0.043969
    14  H    0.099135  -0.002263
    15  H    0.185229  -0.004718
    16  H    0.063766   0.027073
    17  H    0.139991   0.002996
    18  H    0.116722   0.007165
    19  H    0.109143   0.016156
    20  H    0.121224   0.002552
    21  H    0.108409   0.018631
    22  H    0.100850   0.020649
    23  H    0.147010   0.003045
 Sum of Mulliken charges =  -1.00000   1.00000

 Dipole moment (field-independent basis, Debye):
    X=             -0.3126    Y=             -4.6683    Z=              0.2536  Tot=              4.6856
 Quadrupole moment (field-independent basis, Debye-Ang):
   XX=            -84.0570   YY=            -93.6601   ZZ=            -76.6077
   XY=             -0.3643   XZ=             -3.3108   YZ=              0.7807

 Summary of Natural Population Analysis:

                                       Natural Population
                Natural  -----------------------------------------------
    Atom  No    Charge         Core      Valence    Rydberg      Total
 -----------------------------------------------------------------------
      C    1   -0.27648      0.99966     2.27265    0.00417     3.27648
      C    2   -0.20356      0.99961     2.19664    0.00731     3.20356
      C    3    0.09546      0.99947     1.89562    0.00944     2.90454
      C    4    0.09951      0.99929     1.88428    0.01692     2.90049
      N    5   -0.25025      0.99962     2.73674    0.01390     3.75025
      C    6    0.07768      0.99964     1.90775    0.01492     2.92232
      C    7   -0.30744      0.99966     2.30392    0.00386     3.30744
      N    8    0.31519      0.99972     2.15708    0.02801     3.18481
      O    9   -0.19690      0.99990     3.18805    0.00896     4.19690
      O   10   -0.20903      0.99990     3.20001    0.00913     4.20903
      C   11   -0.30133      0.99964     2.29693    0.00476     3.30133
      H   12    0.10985      0.00000     0.38908    0.00106     0.39015
      H   13    0.08699      0.00000     0.41125    0.00176     0.41301
      H   14    0.08628      0.00000     0.41277    0.00095     0.41372
      H   15    0.11151      0.00000     0.38738    0.00111     0.38849
      H   16    0.08683      0.00000     0.41140    0.00177     0.41317
      H   17    0.07980      0.00000     0.41693    0.00328     0.42020
      H   18    0.09948      0.00000     0.39820    0.00232     0.40052
      H   19    0.09678      0.00000     0.40224    0.00098     0.40322
      H   20    0.09627      0.00000     0.40273    0.00100     0.40373
      H   21    0.09608      0.00000     0.40273    0.00120     0.40392
      H   22    0.09513      0.00000     0.40367    0.00120     0.40487
      H   23    0.11214      0.00000     0.38690    0.00095     0.38786
 =======================================================================
   * Total *   -0.00000     10.99611    30.86495    0.13894    42.00000

 Normal termination of Gaussian 16 at Tue Dec  8 19:32:28 2020.
