 Gaussian 16, Revision A.03,

 -----------------------------------------------------------
 # opt freq B3LYP/6-31G(d) empiricaldispersion=gd3bj scf=xqc
 -----------------------------------------------------------

 ------------------------------
 CID_73843128_JID_4194_neutraal
 ------------------------------
 Symbolic Z-matrix:
 Charge =  0 Multiplicity = 1

 SCF Done:  E(RB3LYP) =  -685.358895662     A.U. after   15 cycles
 SCF Done:  E(RB3LYP) =  -685.386498916     A.U. after   13 cycles
 SCF Done:  E(RB3LYP) =  -685.388014929     A.U. after   13 cycles
 SCF Done:  E(RB3LYP) =  -685.389358540     A.U. after   13 cycles
 SCF Done:  E(RB3LYP) =  -685.390194427     A.U. after   12 cycles
 SCF Done:  E(RB3LYP) =  -685.390190812     A.U. after   13 cycles
 SCF Done:  E(RB3LYP) =  -685.390880476     A.U. after   12 cycles
 SCF Done:  E(RB3LYP) =  -685.391008188     A.U. after   12 cycles
 SCF Done:  E(RB3LYP) =  -685.391063477     A.U. after   11 cycles
 SCF Done:  E(RB3LYP) =  -685.391087065     A.U. after   10 cycles
 SCF Done:  E(RB3LYP) =  -685.391102450     A.U. after   10 cycles
 SCF Done:  E(RB3LYP) =  -685.391113435     A.U. after   10 cycles
 SCF Done:  E(RB3LYP) =  -685.391121948     A.U. after    9 cycles
 SCF Done:  E(RB3LYP) =  -685.391130445     A.U. after   10 cycles
 SCF Done:  E(RB3LYP) =  -685.391130934     A.U. after    9 cycles
 SCF Done:  E(RB3LYP) =  -685.391131081     A.U. after    8 cycles
 Optimization completed.
    -- Stationary point found.
 Normal termination of Gaussian 16 at Thu Dec 10 09:21:08 2020.

 --------------------------------------------------------------------
 #N Geom=AllCheck Guess=TCheck SCRF=Check GenChk RB3LYP/6-31G(d) Freq
 --------------------------------------------------------------------

 Structure from the checkpoint file:  "JID_4194.chk"
 ------------------------------
 CID_73843128_JID_4194_neutraal
 ------------------------------
 Charge =  0 Multiplicity = 1

 SCF Done:  E(RB3LYP) =  -685.391131081     A.U. after    1 cycles

  Exact polarizability: 146.086  -8.610 137.621   0.497   4.727  71.852
 Approx polarizability: 189.005 -20.486 217.273   1.150  12.593 104.863

                      1                      2                      3
                      A                      A                      A
 Frequencies --     43.5708                56.1775                74.7511
 Red. masses --      3.2718                 3.6909                 4.0798
 Frc consts  --      0.0037                 0.0069                 0.0134
 IR Inten    --      0.9353                 0.4011                 0.1854

                      4                      5                      6
                      A                      A                      A
 Frequencies --     84.0991               110.3657               120.9525
 Red. masses --      4.4758                 5.5287                 3.7352
 Frc consts  --      0.0187                 0.0397                 0.0322
 IR Inten    --      0.1722                 1.2626                 0.3885

                      7                      8                      9
                      A                      A                      A
 Frequencies --    136.4212               154.9441               225.0210
 Red. masses --      8.1167                 2.6757                 4.9316
 Frc consts  --      0.0890                 0.0378                 0.1471
 IR Inten    --      2.6769                 0.8751                 5.5581

                     10                     11                     12
                      A                      A                      A
 Frequencies --    234.6427               285.6615               316.3114
 Red. masses --      1.4677                 4.2385                 1.8703
 Frc consts  --      0.0476                 0.2038                 0.1103
 IR Inten    --      2.6465                 3.1327                10.4960

                     13                     14                     15
                      A                      A                      A
 Frequencies --    343.1604               383.7105               425.0208
 Red. masses --      2.8803                 6.7730                 4.7879
 Frc consts  --      0.1998                 0.5875                 0.5096
 IR Inten    --      9.4686                 9.8714                 6.7014

                     16                     17                     18
                      A                      A                      A
 Frequencies --    490.6083               493.9480               522.6054
 Red. masses --      6.8361                 4.7706                 6.0947
 Frc consts  --      0.9695                 0.6858                 0.9807
 IR Inten    --      1.0275                 2.3664                 0.6378

                     19                     20                     21
                      A                      A                      A
 Frequencies --    535.0303               565.5126               647.1833
 Red. masses --      8.6801                 2.5824                 1.1258
 Frc consts  --      1.4640                 0.4866                 0.2778
 IR Inten    --      2.2434                 0.3563                69.6214

                     22                     23                     24
                      A                      A                      A
 Frequencies --    689.8492               740.0390               748.5724
 Red. masses --      9.7373                 2.9012                 8.7721
 Frc consts  --      2.7302                 0.9361                 2.8961
 IR Inten    --      3.0208                 5.9532                28.9372

                     25                     26                     27
                      A                      A                      A
 Frequencies --    798.0906               837.6263               876.0885
 Red. masses --      1.8562                 2.0376                 3.1301
 Frc consts  --      0.6966                 0.8423                 1.4155
 IR Inten    --      6.5259                 1.0025                 7.7465

                     28                     29                     30
                      A                      A                      A
 Frequencies --    891.0691               913.9876               946.6633
 Red. masses --      2.7822                 1.3889                 2.7577
 Frc consts  --      1.3016                 0.6836                 1.4561
 IR Inten    --      0.0893                 0.0746                12.3929

                     31                     32                     33
                      A                      A                      A
 Frequencies --    980.0098              1016.3494              1057.1749
 Red. masses --      2.4694                 3.3134                 3.7449
 Frc consts  --      1.3973                 2.0166                 2.4659
 IR Inten    --      7.5316                18.8336                24.0453

                     34                     35                     36
                      A                      A                      A
 Frequencies --   1100.6505              1116.9873              1131.7161
 Red. masses --      2.7992                 6.3574                 2.0548
 Frc consts  --      1.9979                 4.6733                 1.5506
 IR Inten    --     17.7756               476.6124               107.6424

                     37                     38                     39
                      A                      A                      A
 Frequencies --   1158.4935              1203.7754              1215.1590
 Red. masses --      1.9161                 1.8102                 2.0650
 Frc consts  --      1.5151                 1.5455                 1.7965
 IR Inten    --     15.5190                32.8387                54.2245

                     40                     41                     42
                      A                      A                      A
 Frequencies --   1242.9487              1269.2582              1308.3829
 Red. masses --      1.2597                 1.6752                 1.7369
 Frc consts  --      1.1466                 1.5901                 1.7518
 IR Inten    --      2.9469                94.7585                58.7974

                     43                     44                     45
                      A                      A                      A
 Frequencies --   1320.1719              1344.1628              1366.8291
 Red. masses --      1.7567                 1.1066                 1.7416
 Frc consts  --      1.8038                 1.1780                 1.9170
 IR Inten    --     11.7751                 6.5974               136.7290

                     46                     47                     48
                      A                      A                      A
 Frequencies --   1400.6931              1414.3577              1427.2604
 Red. masses --      1.4770                 1.2969                 1.3646
 Frc consts  --      1.7073                 1.5286                 1.6378
 IR Inten    --      5.3841                 0.5396                83.7730

                     49                     50                     51
                      A                      A                      A
 Frequencies --   1442.1169              1473.0019              1507.9330
 Red. masses --      1.3097                 2.2286                 1.4163
 Frc consts  --      1.6048                 2.8489                 1.8975
 IR Inten    --     17.6939                82.4648                89.8166

                     52                     53                     54
                      A                      A                      A
 Frequencies --   1510.0253              1514.2038              1518.3485
 Red. masses --      1.2509                 1.0656                 1.1040
 Frc consts  --      1.6806                 1.4395                 1.4995
 IR Inten    --     29.0261                24.7847                26.8374

                     55                     56                     57
                      A                      A                      A
 Frequencies --   1538.3107              1547.2717              1555.3330
 Red. masses --      1.0559                 1.1477                 1.4341
 Frc consts  --      1.4721                 1.6188                 2.0440
 IR Inten    --      4.4708                14.2122               157.7723

                     58                     59                     60
                      A                      A                      A
 Frequencies --   1687.6754              1794.8497              2344.2733
 Red. masses --      3.0778                11.3829                12.6688
 Frc consts  --      5.1650                21.6053                41.0206
 IR Inten    --    785.6202               321.6156                76.6978

                     61                     62                     63
                      A                      A                      A
 Frequencies --   3028.9729              3054.4403              3059.9624
 Red. masses --      1.0691                 1.0706                 1.0369
 Frc consts  --      5.7790                 5.8852                 5.7202
 IR Inten    --     60.3751                42.2937                18.1196

                     64                     65                     66
                      A                      A                      A
 Frequencies --   3075.6146              3091.5104              3093.1643
 Red. masses --      1.0653                 1.0914                 1.0617
 Frc consts  --      5.9374                 6.1457                 5.9847
 IR Inten    --      7.6035                32.2564                35.3814

                     67                     68                     69
                      A                      A                      A
 Frequencies --   3123.0042              3127.2942              3146.7931
 Red. masses --      1.1027                 1.1048                 1.1010
 Frc consts  --      6.3363                 6.3661                 6.4236
 IR Inten    --     26.1748                26.6183                 9.9629

                     70                     71                     72
                      A                      A                      A
 Frequencies --   3156.3921              3162.6375              3535.1736
 Red. masses --      1.0986                 1.1064                 1.0776
 Frc consts  --      6.4485                 6.5200                 7.9350
 IR Inten    --     16.2004                19.0685               213.1209

 - Thermochemistry -
 -------------------
 Temperature   298.150 Kelvin.  Pressure   1.00000 Atm.
 Atom     1 has atomic number  6 and mass  12.00000

 Molecular mass:   196.08479 amu.
 Principal axes and moments of inertia in atomic units:
                           1         2         3
     Eigenvalues --  1841.009263663.990085259.02698
           X            0.99993   0.01019  -0.00530
           Y           -0.01023   0.99993  -0.00649
           Z            0.00523   0.00654   0.99996
 This molecule is an asymmetric top.
 Rotational symmetry number  1.
 Warning -- assumption of classical behavior for rotation
           may cause significant error
 Rotational temperatures (Kelvin)      0.04705     0.02364     0.01647
 Rotational constants (GHZ):           0.98030     0.49256     0.34317
 Zero-point vibrational energy     555392.5 (Joules/Mol)
                                  132.74198 (Kcal/Mol)
 Warning -- explicit consideration of  20 degrees of freedom as
           vibrations may cause significant error
 Vibrational temperatures:     62.69    80.83   107.55   121.00   158.79
          (Kelvin)            174.02   196.28   222.93   323.76   337.60
                              411.00   455.10   493.73   552.07   611.51
                              705.88   710.68   751.91   769.79   813.65
                              931.15   992.54  1064.75  1077.03  1148.27
                             1205.16  1260.50  1282.05  1315.02  1362.04
                             1410.02  1462.30  1521.04  1583.59  1607.10
                             1628.29  1666.81  1731.96  1748.34  1788.33
                             1826.18  1882.47  1899.43  1933.95  1966.56
                             2015.29  2034.95  2053.51  2074.88  2119.32
                             2169.58  2172.59  2178.60  2184.56  2213.29
                             2226.18  2237.78  2428.19  2582.39  3372.89
                             4358.02  4394.66  4402.60  4425.12  4447.99
                             4450.37  4493.31  4499.48  4527.53  4541.34
                             4550.33  5086.33

 Zero-point correction=                           0.211538 (Hartree/Particle)
 Thermal correction to Energy=                    0.225362
 Thermal correction to Enthalpy=                  0.226306
 Thermal correction to Gibbs Free Energy=         0.169890
 Sum of electronic and zero-point Energies=           -685.179593
 Sum of electronic and thermal Energies=              -685.165769
 Sum of electronic and thermal Enthalpies=            -685.164825
 Sum of electronic and thermal Free Energies=         -685.221241

                     E (Thermal)             CV                S
                      KCal/Mol        Cal/Mol-Kelvin    Cal/Mol-Kelvin
 Total                  141.417             49.874            118.738
 Electronic               0.000              0.000              0.000
 Translational            0.889              2.981             41.725
 Rotational               0.889              2.981             31.940
 Vibrational            139.639             43.913             45.073
 Vibration     1          0.595              1.980              5.090
 Vibration     2          0.596              1.975              4.587
 Vibration     3          0.599              1.966              4.024
 Vibration     4          0.601              1.960              3.793
 Vibration     5          0.606              1.941              3.262
 Vibration     6          0.609              1.932              3.085
 Vibration     7          0.614              1.917              2.853
 Vibration     8          0.620              1.897              2.611
 Vibration     9          0.650              1.803              1.918
 Vibration    10          0.654              1.788              1.843
 Vibration    11          0.683              1.700              1.500
 Vibration    12          0.703              1.642              1.329
 Vibration    13          0.722              1.589              1.197
 Vibration    14          0.753              1.505              1.025
 Vibration    15          0.787              1.416              0.875
 Vibration    16          0.846              1.271              0.682
 Vibration    17          0.850              1.263              0.673
 Vibration    18          0.878              1.200              0.604
 Vibration    19          0.890              1.173              0.576
 Vibration    20          0.921              1.106              0.513

 Optimization completed.
    -- Stationary point found.
 Normal termination of Gaussian 16 at Thu Dec 10 09:27:46 2020.

 ----------------------------------------------------------------------
 # B3LYP/6-311++G(d,p) empiricaldispersion=gd3bj scf=xqc pop=npa geom=c
 heck
 ----------------------------------------------------------------------

 --------------------------------------
 CID_73843128_JID_4194_Energie_neutraal
 --------------------------------------
 Structure from the checkpoint file:  "JID_4194.chk"
 Charge =  0 Multiplicity = 1

 SCF Done:  E(RB3LYP) =  -685.589080572     A.U. after   15 cycles
 Normal termination of Gaussian 16 at Thu Dec 10 09:30:12 2020.

 ----------------------------------------------------------------------
 # B3LYP/6-311++G(d,p) empiricaldispersion=gd3bj scf=xqc pop=npa geom=c
 heck
 ----------------------------------------------------------------------

 ------------------------------------
 CID_73843128_JID_4194_Energie_kation
 ------------------------------------
 Structure from the checkpoint file:  "JID_4194.chk"
 Charge =  1 Multiplicity = 2

 SCF Done:  E(UB3LYP) =  -685.295047536     A.U. after   21 cycles
 Normal termination of Gaussian 16 at Thu Dec 10 09:34:36 2020.
 Gaussian 16:  ES64L-G16RevA.03 25-Dec-2016

 ----------------------------------------------------------------------
 # B3LYP/6-311++G(d,p) empiricaldispersion=gd3bj scf=xqc pop=npa geom=c
 heck
 ----------------------------------------------------------------------

 -----------------------------------
 CID_73843128_JID_4194_Energie_anion
 -----------------------------------
 Structure from the checkpoint file:  "JID_4194.chk"
 Charge = -1 Multiplicity = 2

                         Standard orientation:
 ---------------------------------------------------------------------
 Center     Atomic      Atomic             Coordinates (Angstroms)
 Number     Number       Type             X           Y           Z
 ---------------------------------------------------------------------
      1          6           0       -3.671515   -1.437678    0.896768
      2          6           0       -3.061036   -1.239028   -0.480627
      3          8           0       -1.698291   -0.762692   -0.387030
      4          6           0       -1.549692    0.600395   -0.199452
      5          8           0       -2.508154    1.344970   -0.157189
      6          6           0       -0.157737    1.015906   -0.073806
      7          6           0        0.962600    0.180382   -0.088881
      8          7           0        0.925003   -1.153068   -0.273026
      9          6           0        2.058057   -2.063955   -0.162428
     10          6           0        3.227555   -1.351107    0.508499
     11          6           0        3.350785    0.031128   -0.108603
     12          8           0        2.144516    0.783432    0.109100
     13          6           0        0.066036    2.411962    0.088363
     14          7           0        0.259206    3.552520    0.220412
     15          1           0       -3.064112   -2.122520    1.498151
     16          1           0       -4.677540   -1.861874    0.801837
     17          1           0       -3.747856   -0.479801    1.417118
     18          1           0       -2.981753   -2.181344   -1.029040
     19          1           0       -3.637139   -0.522902   -1.069361
     20          1           0       -0.010485   -1.520959   -0.415328
     21          1           0        2.352481   -2.412613   -1.162221
     22          1           0        1.746337   -2.941442    0.414012
     23          1           0        4.152089   -1.919266    0.367320
     24          1           0        3.050207   -1.249682    1.584770
     25          1           0        3.537420   -0.029293   -1.188615
     26          1           0        4.136002    0.631831    0.351606
 ---------------------------------------------------------------------

 SCF Done:  E(UB3LYP) =  -685.590846457     A.U. after   29 cycles

 The electronic state is 2-A.
 Alpha  occ. eigenvalues --  -19.08687 -19.07531 -19.00609 -14.26079 -14.18927
 Alpha  occ. eigenvalues --  -10.21210 -10.20743 -10.14814 -10.14372 -10.12350
 Alpha  occ. eigenvalues --  -10.09693 -10.09600 -10.09192 -10.08367  -1.01843
 Alpha  occ. eigenvalues --   -1.00793  -0.92193  -0.86212  -0.78853  -0.74205
 Alpha  occ. eigenvalues --   -0.69491  -0.66951  -0.62388  -0.58675  -0.56671
 Alpha  occ. eigenvalues --   -0.49743  -0.48442  -0.47288  -0.44488  -0.43155
 Alpha  occ. eigenvalues --   -0.40784  -0.39057  -0.37660  -0.36790  -0.36444
 Alpha  occ. eigenvalues --   -0.36121  -0.35218  -0.33419  -0.32076  -0.30582
 Alpha  occ. eigenvalues --   -0.30005  -0.28421  -0.26776  -0.26077  -0.25244
 Alpha  occ. eigenvalues --   -0.24835  -0.24024  -0.21823  -0.21728  -0.20315
 Alpha  occ. eigenvalues --   -0.18785  -0.12583   0.03387
 Alpha virt. eigenvalues --    0.05776   0.06987   0.07498   0.07599   0.08626
 Alpha virt. eigenvalues --    0.08896   0.09727   0.10981   0.11082   0.11264
 Alpha virt. eigenvalues --    0.12130   0.12658   0.12978   0.13340   0.13700

  Beta  occ. eigenvalues --  -19.08687 -19.07519 -19.00595 -14.26065 -14.18924
  Beta  occ. eigenvalues --  -10.21161 -10.20734 -10.14782 -10.14359 -10.12283
  Beta  occ. eigenvalues --  -10.09697 -10.09599 -10.09148 -10.08355  -1.01814
  Beta  occ. eigenvalues --   -1.00771  -0.92169  -0.86161  -0.78847  -0.74144
  Beta  occ. eigenvalues --   -0.69458  -0.66919  -0.62304  -0.58591  -0.56630
  Beta  occ. eigenvalues --   -0.49697  -0.48351  -0.47230  -0.44439  -0.43114
  Beta  occ. eigenvalues --   -0.40723  -0.39016  -0.37599  -0.36729  -0.36372
  Beta  occ. eigenvalues --   -0.36089  -0.35166  -0.33333  -0.32040  -0.30521
  Beta  occ. eigenvalues --   -0.29970  -0.28371  -0.26692  -0.26049  -0.25220
  Beta  occ. eigenvalues --   -0.24801  -0.23996  -0.21816  -0.21680  -0.20260
  Beta  occ. eigenvalues --   -0.18762  -0.12532
  Beta virt. eigenvalues --    0.06042   0.06513   0.07499   0.08043   0.08410
  Beta virt. eigenvalues --    0.09073   0.09646   0.09875   0.11377   0.11672
  Beta virt. eigenvalues --    0.11707   0.12264   0.12929   0.13132   0.13565

 Mulliken charges and spin densities:
               1          2
     1  C   -0.062947  -0.259153
     2  C   -0.042647  -0.165079
     3  O   -0.141490   0.013537
     4  C   -0.800299   0.183382
     5  O   -0.282096   0.005525
     6  C    1.746398  -0.239877
     7  C    0.474657  -0.407431
     8  N   -0.558483   0.344889
     9  C    2.062121  -2.287255
    10  C   -0.580520   0.266736
    11  C    0.623482  -0.806665
    12  O   -0.136188   0.041267
    13  C   -1.141733   0.060819
    14  N   -0.301678  -0.001102
    15  H    0.002864   0.144241
    16  H    0.052029   0.072158
    17  H    0.128431   0.044680
    18  H   -0.216900   0.378613
    19  H    0.181417  -0.012026
    20  H    0.324974   0.153348
    21  H   -0.522893   0.729425
    22  H   -0.821691   1.007070
    23  H   -0.842928   1.053685
    24  H    0.108660   0.052737
    25  H   -0.089018   0.275639
    26  H   -0.163520   0.350837
 Sum of Mulliken charges =  -1.00000   1.00000

 Dipole moment (field-independent basis, Debye):
    X=             -5.1445    Y=              0.4889    Z=              0.4285  Tot=              5.1854
 Quadrupole moment (field-independent basis, Debye-Ang):
   XX=           -138.3500   YY=           -158.5880   ZZ=           -105.4429
   XY=             21.3892   XZ=              4.4713   YZ=             -3.3051

 Summary of Natural Population Analysis:

                                       Natural Population
                Natural  -----------------------------------------------
    Atom  No    Charge         Core      Valence    Rydberg      Total
 -----------------------------------------------------------------------
      C    1   -0.30071      0.99966     2.29607    0.00498     3.30071
      C    2   -0.01477      0.99958     2.00347    0.01172     3.01477
      O    3   -0.30655      0.99987     3.29728    0.00941     4.30655
      C    4    0.39725      0.99963     1.57861    0.02451     2.60275
      O    5   -0.31389      0.99987     3.30909    0.00492     4.31389
      C    6   -0.22511      0.99937     2.21594    0.00981     3.22511
      C    7    0.33415      0.99948     1.65031    0.01605     2.66585
      N    8   -0.30175      0.99965     2.79356    0.00853     3.80175
      C    9   -0.08261      0.99961     2.07174    0.01126     3.08261
      C   10   -0.21241      0.99963     2.20427    0.00850     3.21241
      C   11   -0.00786      0.99956     1.99661    0.01169     3.00786
      O   12   -0.26172      0.99985     3.25402    0.00786     4.26172
      C   13    0.16314      0.99964     1.81811    0.01911     2.83686
      N   14   -0.19985      0.99978     2.68926    0.01080     3.69985
      H   15    0.10236      0.00000     0.39661    0.00103     0.39764
      H   16    0.09867      0.00000     0.40070    0.00063     0.40133
      H   17    0.10752      0.00000     0.39161    0.00088     0.39248
      H   18    0.09063      0.00000     0.40820    0.00117     0.40937
      H   19    0.09585      0.00000     0.40304    0.00111     0.40415
      H   20    0.21946      0.00000     0.27801    0.00253     0.28054
      H   21    0.10203      0.00000     0.39165    0.00632     0.39797
      H   22    0.10706      0.00000     0.38818    0.00476     0.39294
      H   23    0.11774      0.00000     0.37730    0.00496     0.38226
      H   24    0.10223      0.00000     0.39641    0.00136     0.39777
      H   25    0.09121      0.00000     0.40724    0.00155     0.40879
      H   26    0.09793      0.00000     0.40078    0.00129     0.40207
 =======================================================================
   * Total *   -0.00000     13.99519    37.81805    0.18676    52.00000

 Normal termination of Gaussian 16 at Thu Dec 10 09:40:36 2020.
