 Gaussian 16, Revision A.03,

 -----------------------------------------------------------
 # opt freq B3LYP/6-31G(d) empiricaldispersion=gd3bj scf=xqc
 -----------------------------------------------------------

 -------------------------------
 CID_106929727_JID_4907_neutraal
 -------------------------------
 Symbolic Z-matrix:
 Charge =  0 Multiplicity = 1

 SCF Done:  E(RB3LYP) =  -1005.66944943     A.U. after   14 cycles
 SCF Done:  E(RB3LYP) =  -1005.67578654     A.U. after   13 cycles
 SCF Done:  E(RB3LYP) =  -1005.67543507     A.U. after   15 cycles
 SCF Done:  E(RB3LYP) =  -1005.67619924     A.U. after   13 cycles
 SCF Done:  E(RB3LYP) =  -1005.67677722     A.U. after   15 cycles
 SCF Done:  E(RB3LYP) =  -1005.67406591     A.U. after   14 cycles
 SCF Done:  E(RB3LYP) =  -1005.67592065     A.U. after   13 cycles
 SCF Done:  E(RB3LYP) =  -1005.67796452     A.U. after   10 cycles
 SCF Done:  E(RB3LYP) =  -1005.67848728     A.U. after   11 cycles
 SCF Done:  E(RB3LYP) =  -1005.67897027     A.U. after   12 cycles
 SCF Done:  E(RB3LYP) =  -1005.67955292     A.U. after    9 cycles
 SCF Done:  E(RB3LYP) =  -1005.67955991     A.U. after   10 cycles
 SCF Done:  E(RB3LYP) =  -1005.67956371     A.U. after    9 cycles
 SCF Done:  E(RB3LYP) =  -1005.67956458     A.U. after    8 cycles
 SCF Done:  E(RB3LYP) =  -1005.67956471     A.U. after    7 cycles
 Optimization completed.
    -- Stationary point found.
 Normal termination of Gaussian 16 at Thu Dec 10 10:55:25 2020.

 --------------------------------------------------------------------
 #N Geom=AllCheck Guess=TCheck SCRF=Check GenChk RB3LYP/6-31G(d) Freq
 --------------------------------------------------------------------

 Structure from the checkpoint file:  "JID_4907.chk"
 -------------------------------
 CID_106929727_JID_4907_neutraal
 -------------------------------
 Charge =  0 Multiplicity = 1

 SCF Done:  E(RB3LYP) =  -1005.67956471     A.U. after    1 cycles

  Exact polarizability: 128.935  12.491 138.379  -6.673   1.370 105.499
 Approx polarizability: 179.776  20.904 202.707 -17.307   3.071 179.918

                      1                      2                      3
                      A                      A                      A
 Frequencies --     22.3245                54.8764                67.4416
 Red. masses --      5.2084                 4.6049                 3.4463
 Frc consts  --      0.0015                 0.0082                 0.0092
 IR Inten    --      1.3545                 4.8494                 1.9748

                      4                      5                      6
                      A                      A                      A
 Frequencies --     83.8014               110.2768               118.2853
 Red. masses --      3.7541                 3.1131                 1.1107
 Frc consts  --      0.0155                 0.0223                 0.0092
 IR Inten    --      1.2887                 2.2484                 0.4013

                      7                      8                      9
                      A                      A                      A
 Frequencies --    157.3282               169.4635               198.3086
 Red. masses --      3.7615                 3.0537                 3.3067
 Frc consts  --      0.0549                 0.0517                 0.0766
 IR Inten    --      0.1693                 6.3778                 0.7750

                     10                     11                     12
                      A                      A                      A
 Frequencies --    233.8773               252.1021               284.2855
 Red. masses --      3.0228                 5.8052                 2.7660
 Frc consts  --      0.0974                 0.2174                 0.1317
 IR Inten    --      5.4226                 2.4719                 3.2176

                     13                     14                     15
                      A                      A                      A
 Frequencies --    289.3520               310.6242               351.4578
 Red. masses --      1.2526                 3.2288                 2.0538
 Frc consts  --      0.0618                 0.1836                 0.1495
 IR Inten    --     33.4745                17.2209                 0.2956

                     16                     17                     18
                      A                      A                      A
 Frequencies --    369.8259               430.9880               473.9049
 Red. masses --      3.9276                 7.5835                 9.9509
 Frc consts  --      0.3165                 0.8299                 1.3167
 IR Inten    --      2.9926                 1.8101                 5.2800

                     19                     20                     21
                      A                      A                      A
 Frequencies --    515.3148               578.6693               647.6361
 Red. masses --      3.9416                 3.1183                 6.1380
 Frc consts  --      0.6167                 0.6152                 1.5168
 IR Inten    --      7.0038                 4.6801                49.6424

                     22                     23                     24
                      A                      A                      A
 Frequencies --    686.3166               690.0057               697.0426
 Red. masses --      8.6758                 5.0562                 5.1958
 Frc consts  --      2.4077                 1.4183                 1.4874
 IR Inten    --     11.3462                17.8976                28.5935

                     25                     26                     27
                      A                      A                      A
 Frequencies --    779.1977               787.8874               817.6364
 Red. masses --      6.5979                 2.2755                 1.1923
 Frc consts  --      2.3602                 0.8323                 0.4696
 IR Inten    --      7.0342                 2.1595                 2.2594

                     28                     29                     30
                      A                      A                      A
 Frequencies --    821.2167               832.1827               880.7526
 Red. masses --      1.0874                 1.5392                 3.2560
 Frc consts  --      0.4321                 0.6280                 1.4881
 IR Inten    --      3.7172               229.0654                14.1254

                     31                     32                     33
                      A                      A                      A
 Frequencies --    937.4707               994.5236              1007.9649
 Red. masses --      2.0371                 3.3220                 2.0352
 Frc consts  --      1.0548                 1.9359                 1.2183
 IR Inten    --     25.2877                 2.1785                 1.3089

                     34                     35                     36
                      A                      A                      A
 Frequencies --   1019.5516              1066.8935              1080.9674
 Red. masses --      2.2074                 1.4232                 7.6606
 Frc consts  --      1.3519                 0.9545                 5.2740
 IR Inten    --      4.4579                 6.4222                11.9032

                     37                     38                     39
                      A                      A                      A
 Frequencies --   1088.7041              1108.2635              1136.4334
 Red. masses --      1.4761                 1.6182                 2.1161
 Frc consts  --      1.0309                 1.1711                 1.6102
 IR Inten    --      1.9914                 9.7995                78.7083

                     40                     41                     42
                      A                      A                      A
 Frequencies --   1142.4604              1145.1890              1159.3430
 Red. masses --      1.5824                 1.4626                 1.9726
 Frc consts  --      1.2169                 1.1301                 1.5621
 IR Inten    --     15.9054                21.7492                46.2022

                     43                     44                     45
                      A                      A                      A
 Frequencies --   1170.4097              1171.3667              1218.6580
 Red. masses --      2.5120                 1.3432                 1.3581
 Frc consts  --      2.0274                 1.0859                 1.1883
 IR Inten    --    115.3335                13.9765                 0.1543

                     46                     47                     48
                      A                      A                      A
 Frequencies --   1242.1191              1281.0857              1286.7343
 Red. masses --      1.8562                 1.1099                 3.9698
 Frc consts  --      1.6873                 1.0732                 3.8725
 IR Inten    --     14.6773                 3.3718                 2.9946

                     49                     50                     51
                      A                      A                      A
 Frequencies --   1300.8087              1353.9344              1366.9536
 Red. masses --      1.2017                 1.2328                 4.8007
 Frc consts  --      1.1981                 1.3315                 5.2853
 IR Inten    --     37.3164                27.5512                13.5326

                     52                     53                     54
                      A                      A                      A
 Frequencies --   1425.1519              1439.3420              1459.6398
 Red. masses --      1.5237                 1.5407                 1.5029
 Frc consts  --      1.8233                 1.8807                 1.8866
 IR Inten    --      1.3424                14.8604                18.8742

                     55                     56                     57
                      A                      A                      A
 Frequencies --   1461.8985              1486.7443              1501.2260
 Red. masses --      6.1454                 1.0902                 1.1044
 Frc consts  --      7.7381                 1.4198                 1.4665
 IR Inten    --      4.2742                 1.2020                 3.6293

                     58                     59                     60
                      A                      A                      A
 Frequencies --   1513.7886              1536.4410              1539.2306
 Red. masses --      1.1396                 1.4291                 1.1191
 Frc consts  --      1.5386                 1.9876                 1.5621
 IR Inten    --     29.2803                 0.2473                 0.4304

                     61                     62                     63
                      A                      A                      A
 Frequencies --   1544.2366              1550.6088              1591.8131
 Red. masses --      2.2452                 1.1961                 3.4532
 Frc consts  --      3.1546                 1.6944                 5.1553
 IR Inten    --     48.0672                11.4433               121.4897

                     64                     65                     66
                      A                      A                      A
 Frequencies --   1686.0088              2995.8001              3032.3926
 Red. masses --      1.2629                 1.0628                 1.0683
 Frc consts  --      2.1151                 5.6200                 5.7880
 IR Inten    --    102.5595                59.0423                67.6390

                     67                     68                     69
                      A                      A                      A
 Frequencies --   3044.5670              3071.0430              3139.1734
 Red. masses --      1.0968                 1.0347                 1.1041
 Frc consts  --      5.9900                 5.7494                 6.4103
 IR Inten    --     24.9977                23.2026                 8.5447

                     70                     71                     72
                      A                      A                      A
 Frequencies --   3145.5560              3155.1443              3160.3712
 Red. masses --      1.0557                 1.0691                 1.0741
 Frc consts  --      6.1544                 6.2707                 6.3207
 IR Inten    --     15.8295                15.2246                15.7308

                     73                     74                     75
                      A                      A                      A
 Frequencies --   3170.8208              3177.3833              3232.4317
 Red. masses --      1.0998                 1.1032                 1.1175
 Frc consts  --      6.5149                 6.5619                 6.8792
 IR Inten    --      2.8138                 1.8281                 1.2067

                     76                     77                     78
                      A                      A                      A
 Frequencies --   3246.7077              3504.1560              3604.1735
 Red. masses --      1.1162                 1.0505                 1.0933
 Frc consts  --      6.9322                 7.5999                 8.3679
 IR Inten    --     14.7377                 8.5398                27.3897

 - Thermochemistry -
 -------------------
 Temperature   298.150 Kelvin.  Pressure   1.00000 Atm.
 Atom     1 has atomic number  6 and mass  12.00000

 Molecular mass:   214.08883 amu.
 Principal axes and moments of inertia in atomic units:
                           1         2         3
     Eigenvalues --  2352.406713336.508434572.57377
           X            0.99989   0.01115   0.00926
           Y           -0.01128   0.99985   0.01322
           Z           -0.00911  -0.01332   0.99987
 This molecule is an asymmetric top.
 Rotational symmetry number  1.
 Warning -- assumption of classical behavior for rotation
           may cause significant error
 Rotational temperatures (Kelvin)      0.03682     0.02596     0.01894
 Rotational constants (GHZ):           0.76719     0.54091     0.39469
 Zero-point vibrational energy     606554.9 (Joules/Mol)
                                  144.97011 (Kcal/Mol)
 Warning -- explicit consideration of  20 degrees of freedom as
           vibrations may cause significant error
 Vibrational temperatures:     32.12    78.95    97.03   120.57   158.66
          (Kelvin)            170.19   226.36   243.82   285.32   336.50
                              362.72   409.02   416.31   446.92   505.67
                              532.10   620.10   681.84   741.42   832.58
                              931.80   987.46   992.76  1002.89  1121.09
                             1133.59  1176.40  1181.55  1197.33  1267.21
                             1348.81  1430.90  1450.24  1466.91  1535.02
                             1555.27  1566.40  1594.54  1635.07  1643.75
                             1647.67  1668.04  1683.96  1685.34  1753.38
                             1787.13  1843.20  1851.32  1871.57  1948.01
                             1966.74  2050.48  2070.89  2100.10  2103.35
                             2139.09  2159.93  2178.00  2210.60  2214.61
                             2221.81  2230.98  2290.26  2425.79  4310.29
                             4362.94  4380.45  4418.55  4516.57  4525.75
                             4539.55  4547.07  4562.10  4571.55  4650.75
                             4671.29  5041.70  5185.60

 Zero-point correction=                           0.231025 (Hartree/Particle)
 Thermal correction to Energy=                    0.245693
 Thermal correction to Enthalpy=                  0.246637
 Thermal correction to Gibbs Free Energy=         0.188097
 Sum of electronic and zero-point Energies=          -1005.448540
 Sum of electronic and thermal Energies=             -1005.433872
 Sum of electronic and thermal Enthalpies=           -1005.432928
 Sum of electronic and thermal Free Energies=        -1005.491468

                     E (Thermal)             CV                S
                      KCal/Mol        Cal/Mol-Kelvin    Cal/Mol-Kelvin
 Total                  154.175             53.407            123.209
 Electronic               0.000              0.000              0.000
 Translational            0.889              2.981             41.987
 Rotational               0.889              2.981             31.951
 Vibrational            152.397             47.446             49.271
 Vibration     1          0.593              1.985              6.416
 Vibration     2          0.596              1.976              4.633
 Vibration     3          0.598              1.970              4.227
 Vibration     4          0.601              1.960              3.800
 Vibration     5          0.606              1.941              3.264
 Vibration     6          0.608              1.934              3.128
 Vibration     7          0.621              1.894              2.582
 Vibration     8          0.625              1.880              2.441
 Vibration     9          0.637              1.842              2.149
 Vibration    10          0.654              1.789              1.849
 Vibration    11          0.664              1.759              1.716
 Vibration    12          0.683              1.703              1.508
 Vibration    13          0.686              1.694              1.478
 Vibration    14          0.699              1.653              1.359
 Vibration    15          0.728              1.572              1.160
 Vibration    16          0.742              1.534              1.081
 Vibration    17          0.792              1.403              0.855
 Vibration    18          0.831              1.308              0.727
 Vibration    19          0.870              1.216              0.621
 Vibration    20          0.935              1.077              0.488

 Optimization completed.
    -- Stationary point found.
 Normal termination of Gaussian 16 at Thu Dec 10 11:04:07 2020.

 ----------------------------------------------------------------------
 # B3LYP/6-311++G(d,p) empiricaldispersion=gd3bj scf=xqc pop=npa geom=c
 heck
 ----------------------------------------------------------------------

 ---------------------------------------
 CID_106929727_JID_4907_Energie_neutraal
 ---------------------------------------
 Structure from the checkpoint file:  "JID_4907.chk"
 Charge =  0 Multiplicity = 1

 SCF Done:  E(RB3LYP) =  -1005.88110069     A.U. after   14 cycles
 Normal termination of Gaussian 16 at Thu Dec 10 11:07:23 2020.

 ----------------------------------------------------------------------
 # B3LYP/6-311++G(d,p) empiricaldispersion=gd3bj scf=xqc pop=npa geom=c
 heck
 ----------------------------------------------------------------------

 -------------------------------------
 CID_106929727_JID_4907_Energie_kation
 -------------------------------------
 Structure from the checkpoint file:  "JID_4907.chk"
 Charge =  1 Multiplicity = 2

 SCF Done:  E(UB3LYP) =  -1005.57836929     A.U. after   26 cycles
 Normal termination of Gaussian 16 at Thu Dec 10 11:14:36 2020.
 Gaussian 16:  ES64L-G16RevA.03 25-Dec-2016

 ----------------------------------------------------------------------
 # B3LYP/6-311++G(d,p) empiricaldispersion=gd3bj scf=xqc pop=npa geom=c
 heck
 ----------------------------------------------------------------------

 ------------------------------------
 CID_106929727_JID_4907_Energie_anion
 ------------------------------------
 Structure from the checkpoint file:  "JID_4907.chk"
 Charge = -1 Multiplicity = 2

                         Standard orientation:
 ---------------------------------------------------------------------
 Center     Atomic      Atomic             Coordinates (Angstroms)
 Number     Number       Type             X           Y           Z
 ---------------------------------------------------------------------
      1          6           0        0.904763    0.666420    1.899502
      2          7           0        1.414519    0.261923    0.602503
      3          6           0        2.167801    1.022316   -0.247177
      4          7           0        2.511581    0.337034   -1.319286
      5          7           0        1.975031   -0.929463   -1.178391
      6          6           0        1.312495   -0.961031   -0.045649
      7         16           0        0.325668   -2.290366    0.543620
      8          6           0       -1.098065   -2.066932   -0.648691
      9          8           0       -1.637870   -0.787225   -0.660609
     10          6           0       -2.384591   -0.421018    0.493384
     11          6           0       -2.682886    1.059002    0.428729
     12          6           0       -1.687681    2.020213   -0.178611
     13          6           0       -2.991306    1.727106   -0.884421
     14          7           0        2.569520    2.314510    0.072268
     15          1           0       -0.023904    1.236293    1.794135
     16          1           0        1.659736    1.281212    2.396651
     17          1           0        0.705759   -0.225674    2.493840
     18          1           0       -0.707743   -2.251599   -1.649155
     19          1           0       -1.827771   -2.839084   -0.366000
     20          1           0       -3.318150   -1.005807    0.528363
     21          1           0       -1.807080   -0.656989    1.398197
     22          1           0       -3.235881    1.413445    1.296670
     23          1           0       -1.561104    2.992987    0.289835
     24          1           0       -0.790653    1.595685   -0.618141
     25          1           0       -2.936888    1.114925   -1.778772
     26          1           0       -3.757265    2.496963   -0.901557
     27          1           0        3.162989    2.675422   -0.668874
     28          1           0        1.792491    2.951403    0.229714
 ---------------------------------------------------------------------

 SCF Done:  E(UB3LYP) =  -1005.87355090     A.U. after   33 cycles
 SCF Done:  E(UB3LYP) =  -1005.87355090     a.u. after    1 cycles

 The electronic state is 2-A.
 Alpha  occ. eigenvalues --  -88.76877 -19.05839 -14.28525 -14.23383 -14.22987
 Alpha  occ. eigenvalues --  -14.21982 -10.17164 -10.16921 -10.15675 -10.13312
 Alpha  occ. eigenvalues --  -10.11734 -10.08461 -10.07292 -10.06971  -7.85531
 Alpha  occ. eigenvalues --   -5.81931  -5.81547  -5.80897  -0.97630  -0.97130
 Alpha  occ. eigenvalues --   -0.83954  -0.82259  -0.76507  -0.72537  -0.67178
 Alpha  occ. eigenvalues --   -0.63777  -0.62872  -0.56425  -0.52514  -0.50387
 Alpha  occ. eigenvalues --   -0.48902  -0.47409  -0.43568  -0.42999  -0.41662
 Alpha  occ. eigenvalues --   -0.40168  -0.39550  -0.39046  -0.37475  -0.36818
 Alpha  occ. eigenvalues --   -0.35232  -0.33328  -0.32655  -0.31458  -0.29267
 Alpha  occ. eigenvalues --   -0.26941  -0.26706  -0.25140  -0.24023  -0.21743
 Alpha  occ. eigenvalues --   -0.20315  -0.20045  -0.19420  -0.18123  -0.17395
 Alpha  occ. eigenvalues --   -0.16178  -0.13553   0.04100
 Alpha virt. eigenvalues --    0.05889   0.06895   0.07459   0.08355   0.08926
 Alpha virt. eigenvalues --    0.09703   0.09868   0.10298   0.10951   0.11586
 Alpha virt. eigenvalues --    0.12411   0.12673   0.12846   0.13378   0.13845

  Beta  occ. eigenvalues --  -88.76874 -19.05836 -14.28520 -14.23318 -14.22984
  Beta  occ. eigenvalues --  -14.21978 -10.17159 -10.16917 -10.15675 -10.13297
  Beta  occ. eigenvalues --  -10.11688 -10.08442 -10.07284 -10.06939  -7.85527
  Beta  occ. eigenvalues --   -5.81928  -5.81545  -5.80891  -0.97623  -0.97119
  Beta  occ. eigenvalues --   -0.83917  -0.82204  -0.76467  -0.72513  -0.67156
  Beta  occ. eigenvalues --   -0.63721  -0.62845  -0.56403  -0.52480  -0.50330
  Beta  occ. eigenvalues --   -0.48857  -0.47367  -0.43490  -0.42955  -0.41637
  Beta  occ. eigenvalues --   -0.40121  -0.39521  -0.39008  -0.37418  -0.36779
  Beta  occ. eigenvalues --   -0.35208  -0.33300  -0.32619  -0.31433  -0.29245
  Beta  occ. eigenvalues --   -0.26909  -0.26660  -0.25115  -0.23990  -0.21716
  Beta  occ. eigenvalues --   -0.20293  -0.20014  -0.19406  -0.18102  -0.17379
  Beta  occ. eigenvalues --   -0.16161  -0.13526
  Beta virt. eigenvalues --    0.06100   0.06989   0.07819   0.07964   0.08772
  Beta virt. eigenvalues --    0.09375   0.10015   0.10453   0.10949   0.11286
  Beta virt. eigenvalues --    0.11678   0.12758   0.12945   0.13057   0.13614

 Mulliken charges and spin densities:
               1          2
     1  C    0.768566  -1.154988
     2  N    0.063373   0.032008
     3  C   -0.329893   0.179489
     4  N   -0.047719  -0.076745
     5  N   -0.024265   0.051591
     6  C   -0.104587  -0.415674
     7  S    0.647412  -0.415425
     8  C   -0.567235   0.074191
     9  O   -0.020016   0.019530
    10  C    0.537682  -0.974641
    11  C   -0.877768   1.131475
    12  C    0.753218  -1.224599
    13  C    0.481939  -0.984270
    14  N   -0.310512   0.033218
    15  H   -0.259094   0.499377
    16  H   -0.331568   0.533152
    17  H   -0.312431   0.446785
    18  H    0.234103   0.001567
    19  H    0.112930   0.063572
    20  H   -0.068993   0.216619
    21  H    0.018742   0.108545
    22  H   -0.929755   1.176249
    23  H   -0.553774   0.751123
    24  H    0.523471  -0.326518
    25  H    0.093636   0.046778
    26  H   -0.070535   0.231794
    27  H   -0.145443   0.433320
    28  H   -0.281485   0.542476
 Sum of Mulliken charges =  -1.00000   1.00000

 Dipole moment (field-independent basis, Debye):
    X=             -0.9354    Y=             -7.4059    Z=             -2.9448  Tot=              8.0246
 Quadrupole moment (field-independent basis, Debye-Ang):
   XX=           -146.7846   YY=           -147.1773   ZZ=           -133.4402
   XY=              6.7643   XZ=             14.0761   YZ=            -10.1870

 Summary of Natural Population Analysis:

                                       Natural Population
                Natural  -----------------------------------------------
    Atom  No    Charge         Core      Valence    Rydberg      Total
 -----------------------------------------------------------------------
      C    1   -0.18205      0.99963     2.17344    0.00898     3.18205
      N    2   -0.22403      0.99956     2.71181    0.01266     3.72403
      C    3    0.27323      0.99960     1.70896    0.01821     2.72677
      N    4   -0.18787      0.99968     2.67510    0.01309     3.68787
      N    5   -0.15904      0.99966     2.64617    0.01322     3.65904
      C    6    0.09022      0.99954     1.88769    0.02255     2.90978
      S    7    0.08793      4.99955     2.89366    0.01886     7.91207
      C    8   -0.05878      0.99960     2.04396    0.01522     3.05878
      O    9   -0.29310      0.99987     3.28352    0.00971     4.29310
      C   10   -0.01089      0.99955     1.99823    0.01312     3.01089
      C   11   -0.13055      0.99959     2.11719    0.01377     3.13055
      C   12   -0.20252      0.99961     2.19110    0.01181     3.20252
      C   13   -0.19747      0.99962     2.19018    0.00768     3.19747
      N   14   -0.40538      0.99972     2.89563    0.01003     3.90538
      H   15    0.10743      0.00000     0.39000    0.00258     0.39257
      H   16    0.10927      0.00000     0.38910    0.00162     0.39073
      H   17    0.10815      0.00000     0.39032    0.00153     0.39185
      H   18    0.10152      0.00000     0.39726    0.00122     0.39848
      H   19    0.08385      0.00000     0.41471    0.00145     0.41615
      H   20    0.08120      0.00000     0.41747    0.00133     0.41880
      H   21    0.09011      0.00000     0.40778    0.00211     0.40989
      H   22    0.11052      0.00000     0.38618    0.00330     0.38948
      H   23    0.10824      0.00000     0.38875    0.00301     0.39176
      H   24    0.10556      0.00000     0.39209    0.00236     0.39444
      H   25    0.10401      0.00000     0.39481    0.00117     0.39599
      H   26    0.10144      0.00000     0.39769    0.00087     0.39856
      H   27    0.19355      0.00000     0.30412    0.00233     0.30645
      H   28    0.19548      0.00000     0.29832    0.00621     0.30452
 =======================================================================
   * Total *    0.00000     17.99479    38.78523    0.21998    57.00000

 Normal termination of Gaussian 16 at Thu Dec 10 11:23:37 2020.
