 Gaussian 16, Revision A.03,

 -----------------------------------------------------------
 # opt freq B3LYP/6-31G(d) empiricaldispersion=gd3bj scf=xqc
 -----------------------------------------------------------

 ------------------------------
 CID_20787920_JID_9022_neutraal
 ------------------------------
 Symbolic Z-matrix:
 Charge =  0 Multiplicity = 1

 SCF Done:  E(RB3LYP) =  -808.939063149     A.U. after   15 cycles
 SCF Done:  E(RB3LYP) =  -808.943318298     A.U. after   12 cycles
 SCF Done:  E(RB3LYP) =  -808.942173176     A.U. after   13 cycles
 SCF Done:  E(RB3LYP) =  -808.945925929     A.U. after   12 cycles
 SCF Done:  E(RB3LYP) =  -808.948022024     A.U. after   12 cycles
 SCF Done:  E(RB3LYP) =  -808.948460764     A.U. after   12 cycles
 SCF Done:  E(RB3LYP) =  -808.949285614     A.U. after   11 cycles
 SCF Done:  E(RB3LYP) =  -808.950217536     A.U. after   12 cycles
 SCF Done:  E(RB3LYP) =  -808.951584092     A.U. after   14 cycles
 SCF Done:  E(RB3LYP) =  -808.953200385     A.U. after   12 cycles
 SCF Done:  E(RB3LYP) =  -808.955841321     A.U. after    9 cycles
 SCF Done:  E(RB3LYP) =  -808.955841067     A.U. after    8 cycles
 SCF Done:  E(RB3LYP) =  -808.955841469     A.U. after    9 cycles
 SCF Done:  E(RB3LYP) =  -808.955841485     A.U. after    7 cycles
 SCF Done:  E(RB3LYP) =  -808.955841499     A.U. after    7 cycles
 Optimization completed.
    -- Stationary point found.
 Normal termination of Gaussian 16 at Sun Dec 13 13:24:07 2020.

 --------------------------------------------------------------------
 #N Geom=AllCheck Guess=TCheck SCRF=Check GenChk RB3LYP/6-31G(d) Freq
 --------------------------------------------------------------------

 Structure from the checkpoint file:  "JID_9022.chk"
 ------------------------------
 CID_20787920_JID_9022_neutraal
 ------------------------------
 Charge =  0 Multiplicity = 1

 SCF Done:  E(RB3LYP) =  -808.955841499     A.U. after    1 cycles

  Exact polarizability: 223.013  -4.681 189.609 -20.384  -6.725 132.184
 Approx polarizability: 291.997  -8.600 283.046 -43.004 -18.788 217.861

                      1                      2                      3
                      A                      A                      A
 Frequencies --     12.8536                30.3181                42.1401
 Red. masses --      4.2351                 3.6856                 3.2523
 Frc consts  --      0.0004                 0.0020                 0.0034
 IR Inten    --      0.1587                 0.2151                 0.0276

                      4                      5                      6
                      A                      A                      A
 Frequencies --     52.3595                61.0992                62.5385
 Red. masses --      3.3367                 4.0195                 3.7138
 Frc consts  --      0.0054                 0.0088                 0.0086
 IR Inten    --      0.1163                 1.3587                 0.7037

                      7                      8                      9
                      A                      A                      A
 Frequencies --     79.7812                88.7620               100.6488
 Red. masses --      4.4903                 3.0617                 2.4702
 Frc consts  --      0.0168                 0.0142                 0.0147
 IR Inten    --      3.0535                 0.1107                 0.5474

                     10                     11                     12
                      A                      A                      A
 Frequencies --    127.4391               146.3164               166.1297
 Red. masses --      2.7409                 3.6098                 3.4987
 Frc consts  --      0.0262                 0.0455                 0.0569
 IR Inten    --      0.9162                 2.0315                 1.6076

                     13                     14                     15
                      A                      A                      A
 Frequencies --    221.2991               241.6257               270.7208
 Red. masses --      1.5496                 3.2763                 2.8389
 Frc consts  --      0.0447                 0.1127                 0.1226
 IR Inten    --      1.6397                 0.7051                 0.3185

                     16                     17                     18
                      A                      A                      A
 Frequencies --    294.7071               305.4578               323.0622
 Red. masses --      2.3131                 2.2346                 3.2757
 Frc consts  --      0.1184                 0.1228                 0.2014
 IR Inten    --      0.2950                 2.1831                 5.0384

                     19                     20                     21
                      A                      A                      A
 Frequencies --    340.1227               383.1221               396.1372
 Red. masses --      2.5289                 2.4126                 2.0103
 Frc consts  --      0.1724                 0.2086                 0.1859
 IR Inten    --      0.9099                 0.4407                 0.1378

                     22                     23                     24
                      A                      A                      A
 Frequencies --    419.6178               425.0224               474.9323
 Red. masses --      3.1091                 2.5625                 2.6453
 Frc consts  --      0.3225                 0.2727                 0.3515
 IR Inten    --      0.8868                 1.7535                 6.3421

                     25                     26                     27
                      A                      A                      A
 Frequencies --    478.7995               522.7308               555.6135
 Red. masses --      2.7889                 2.4403                 2.8634
 Frc consts  --      0.3767                 0.3929                 0.5208
 IR Inten    --      5.5494                 2.9964                 1.4278

                     28                     29                     30
                      A                      A                      A
 Frequencies --    579.7855               592.2998               635.9410
 Red. masses --      2.9730                 2.3786                 6.1197
 Frc consts  --      0.5888                 0.4917                 1.4582
 IR Inten    --     18.0674                22.5355                 2.2483

                     31                     32                     33
                      A                      A                      A
 Frequencies --    660.9837               704.0241               720.7663
 Red. masses --      3.2133                 2.1167                 1.3726
 Frc consts  --      0.8272                 0.6181                 0.4201
 IR Inten    --     22.2412                17.2670                29.0044

                     34                     35                     36
                      A                      A                      A
 Frequencies --    743.0580               753.3892               770.8490
 Red. masses --      2.8277                 1.6523                 1.8569
 Frc consts  --      0.9199                 0.5526                 0.6501
 IR Inten    --     10.6884                22.0610                43.9687

                     37                     38                     39
                      A                      A                      A
 Frequencies --    777.2182               824.4486               835.6787
 Red. masses --      1.8063                 4.4797                 1.4002
 Frc consts  --      0.6429                 1.7940                 0.5761
 IR Inten    --     44.9007                14.3159                 2.1814

                     40                     41                     42
                      A                      A                      A
 Frequencies --    837.2903               844.4808               891.0485
 Red. masses --      1.5592                 2.1062                 1.9723
 Frc consts  --      0.6440                 0.8850                 0.9226
 IR Inten    --     19.3657                 5.1083                24.8817

                     43                     44                     45
                      A                      A                      A
 Frequencies --    904.3749               908.6540               932.7267
 Red. masses --      1.4598                 1.6217                 1.9712
 Frc consts  --      0.7035                 0.7889                 1.0104
 IR Inten    --      7.5100                 1.6854                 3.8140

                     46                     47                     48
                      A                      A                      A
 Frequencies --    943.9401               956.8388               958.4663
 Red. masses --      1.3692                 1.3805                 1.8252
 Frc consts  --      0.7188                 0.7447                 0.9879
 IR Inten    --     36.1172                 1.2748                13.8239

                     49                     50                     51
                      A                      A                      A
 Frequencies --    981.4614               982.9626              1015.7465
 Red. masses --      1.3879                 1.4188                 1.8954
 Frc consts  --      0.7877                 0.8077                 1.1522
 IR Inten    --      1.4632                 1.4574                 9.8226

                     52                     53                     54
                      A                      A                      A
 Frequencies --   1019.7917              1034.3540              1045.5175
 Red. masses --      4.6348                 1.2544                 1.7783
 Frc consts  --      2.8399                 0.7907                 1.1453
 IR Inten    --      3.8799                12.0196                 3.8856

                     55                     56                     57
                      A                      A                      A
 Frequencies --   1052.2946              1069.8180              1082.8985
 Red. masses --      1.5752                 1.9862                 1.9553
 Frc consts  --      1.0277                 1.3394                 1.3509
 IR Inten    --      3.3664                 5.8623                 5.3534

                     58                     59                     60
                      A                      A                      A
 Frequencies --   1112.6214              1124.6947              1147.7553
 Red. masses --      2.4217                 1.8262                 2.0888
 Frc consts  --      1.7663                 1.3610                 1.6213
 IR Inten    --      4.5751                 3.3192                 1.4699

                     61                     62                     63
                      A                      A                      A
 Frequencies --   1156.4327              1168.4145              1185.5789
 Red. masses --      2.1638                 2.4630                 2.7594
 Frc consts  --      1.7049                 1.9811                 2.2852
 IR Inten    --     27.3012                 7.4820                33.0696

                     64                     65                     66
                      A                      A                      A
 Frequencies --   1196.7076              1225.7400              1231.2839
 Red. masses --      1.1005                 1.2894                 1.1696
 Frc consts  --      0.9286                 1.1414                 1.0447
 IR Inten    --      0.7996                28.9113                14.8623

                     67                     68                     69
                      A                      A                      A
 Frequencies --   1235.0216              1272.8476              1286.1771
 Red. masses --      1.5175                 1.6677                 1.8251
 Frc consts  --      1.3637                 1.5919                 1.7788
 IR Inten    --    115.4006               115.4588                57.0714

                     70                     71                     72
                      A                      A                      A
 Frequencies --   1313.5894              1325.0190              1337.7442
 Red. masses --      1.3434                 1.2874                 1.3359
 Frc consts  --      1.3658                 1.3317                 1.4085
 IR Inten    --     35.9559                19.7392                51.0887

                     73                     74                     75
                      A                      A                      A
 Frequencies --   1351.1739              1353.0360              1381.8460
 Red. masses --      2.8632                 1.2640                 1.6257
 Frc consts  --      3.0798                 1.3634                 1.8289
 IR Inten    --     48.1497                 8.5596                38.9754

                     76                     77                     78
                      A                      A                      A
 Frequencies --   1384.0173              1390.7693              1397.1440
 Red. masses --      1.3801                 1.4483                 1.6052
 Frc consts  --      1.5576                 1.6506                 1.8462
 IR Inten    --     12.0941                 8.6174               140.0954

                     79                     80                     81
                      A                      A                      A
 Frequencies --   1407.2417              1419.0834              1422.2016
 Red. masses --      1.3226                 1.6004                 1.4383
 Frc consts  --      1.5432                 1.8989                 1.7141
 IR Inten    --      4.4653               127.0329                17.7304

                     82                     83                     84
                      A                      A                      A
 Frequencies --   1432.4091              1444.7256              1475.6737
 Red. masses --      1.4607                 1.2704                 1.2000
 Frc consts  --      1.7658                 1.5623                 1.5397
 IR Inten    --     82.3126                 8.7052                 6.0571

                     85                     86                     87
                      A                      A                      A
 Frequencies --   1486.4094              1498.6988              1508.9358
 Red. masses --      1.2923                 1.1176                 1.7796
 Frc consts  --      1.6822                 1.4790                 2.3874
 IR Inten    --     10.2339                10.1940                 2.9289

                     88                     89                     90
                      A                      A                      A
 Frequencies --   1509.7303              1518.2260              1527.8524
 Red. masses --      1.2402                 1.0876                 1.0774
 Frc consts  --      1.6655                 1.4770                 1.4817
 IR Inten    --      2.4300                 2.6726                 8.6719

                     91                     92                     93
                      A                      A                      A
 Frequencies --   1530.3104              1532.9084              1538.1209
 Red. masses --      1.0611                 1.0825                 1.0835
 Frc consts  --      1.4640                 1.4987                 1.5102
 IR Inten    --      5.9105                 3.5880                23.4247

                     94                     95                     96
                      A                      A                      A
 Frequencies --   1546.0609              1554.4253              1644.7560
 Red. masses --      1.0793                 2.1892                 5.6596
 Frc consts  --      1.5200                 3.1166                 9.0207
 IR Inten    --      0.8363                82.7767                 6.2101

                     97                     98                     99
                      A                      A                      A
 Frequencies --   1667.4226              1731.3572              1781.7268
 Red. masses --      5.4488                 4.4867                 8.3666
 Frc consts  --      8.9257                 7.9241                15.6488
 IR Inten    --     49.5332                 3.3359               271.0869

                    100                    101                    102
                      A                      A                      A
 Frequencies --   3021.8587              3035.0189              3044.8107
 Red. masses --      1.0638                 1.0645                 1.0580
 Frc consts  --      5.7233                 5.7770                 5.7789
 IR Inten    --     32.5372                25.1703                16.2590

                    103                    104                    105
                      A                      A                      A
 Frequencies --   3046.6638              3050.6978              3059.1234
 Red. masses --      1.0440                 1.0708                 1.0868
 Frc consts  --      5.7097                 5.8718                 5.9920
 IR Inten    --     10.1371                 1.6949                35.5697

                    106                    107                    108
                      A                      A                      A
 Frequencies --   3069.7798              3075.7784              3080.0274
 Red. masses --      1.0982                 1.0740                 1.0664
 Frc consts  --      6.0973                 5.9862                 5.9602
 IR Inten    --     66.3063                 2.4068                14.8675

                    109                    110                    111
                      A                      A                      A
 Frequencies --   3084.8114              3091.8340              3111.3813
 Red. masses --      1.0878                 1.0997                 1.1017
 Frc consts  --      6.0987                 6.1936                 6.2837
 IR Inten    --     50.5925                71.3289                48.1035

                    112                    113                    114
                      A                      A                      A
 Frequencies --   3118.0963              3118.7052              3144.7485
 Red. masses --      1.1022                 1.1054                 1.0962
 Frc consts  --      6.3135                 6.3348                 6.3873
 IR Inten    --     74.1054                21.9278                 5.8019

                    115                    116                    117
                      A                      A                      A
 Frequencies --   3153.7187              3168.4866              3183.7878
 Red. masses --      1.0596                 1.0934                 1.0854
 Frc consts  --      6.2092                 6.4676                 6.4821
 IR Inten    --     10.8849                 3.7157                 1.3109

                    118                    119                    120
                      A                      A                      A
 Frequencies --   3192.1745              3209.8567              3238.6978
 Red. masses --      1.0903                 1.0960                 1.1145
 Frc consts  --      6.5461                 6.6534                 6.8875
 IR Inten    --     22.0999                35.2674                15.6174

                    121                    122                    123
                      A                      A                      A
 Frequencies --   3242.3331              3254.6710              3572.3314
 Red. masses --      1.0921                 1.0906                 1.0748
 Frc consts  --      6.7642                 6.8066                 8.0814
 IR Inten    --      5.4988                 2.7195                16.0330

 - Thermochemistry -
 -------------------
 Temperature   298.150 Kelvin.  Pressure   1.00000 Atm.
 Atom     1 has atomic number  6 and mass  12.00000

 Molecular mass:   260.18886 amu.
 Principal axes and moments of inertia in atomic units:
                           1         2         3
     Eigenvalues --  3178.153039008.17693**********
           X            0.99991   0.01369   0.00115
           Y           -0.01368   0.99988  -0.00755
           Z           -0.00125   0.00753   0.99997
 This molecule is an asymmetric top.
 Rotational symmetry number  1.
 Warning -- assumption of classical behavior for rotation
           may cause significant error
 Rotational temperatures (Kelvin)      0.02725     0.00962     0.00793
 Rotational constants (GHZ):           0.56786     0.20034     0.16516
 Zero-point vibrational energy     997743.9 (Joules/Mol)
                                  238.46651 (Kcal/Mol)
 Warning -- explicit consideration of  29 degrees of freedom as
           vibrations may cause significant error
 Vibrational temperatures:     18.49    43.62    60.63    75.33    87.91
          (Kelvin)             89.98   114.79   127.71   144.81   183.36
                              210.52   239.02   318.40   347.65   389.51
                              424.02   439.49   464.81   489.36   551.23
                              569.95   603.74   611.51   683.32   688.89
                              752.09   799.40   834.18   852.19   914.98
                              951.01  1012.93  1037.02  1069.09  1083.96
                             1109.08  1118.24  1186.20  1202.36  1204.67
                             1215.02  1282.02  1301.19  1307.35  1341.99
                             1358.12  1376.68  1379.02  1412.10  1414.26
                             1461.43  1467.25  1488.20  1504.27  1514.02
                             1539.23  1558.05  1600.81  1618.18  1651.36
                             1663.85  1681.09  1705.78  1721.80  1763.57
                             1771.54  1776.92  1831.34  1850.52  1889.96
                             1906.41  1924.72  1944.04  1946.72  1988.17
                             1991.29  2001.01  2010.18  2024.71  2041.74
                             2046.23  2060.92  2078.64  2123.17  2138.61
                             2156.29  2171.02  2172.17  2184.39  2198.24
                             2201.78  2205.51  2213.01  2224.44  2236.47
                             2366.44  2399.05  2491.04  2563.51  4347.78
                             4366.72  4380.80  4383.47  4389.27  4401.40
                             4416.73  4425.36  4431.47  4438.36  4448.46
                             4476.58  4486.25  4487.12  4524.59  4537.50
                             4558.75  4580.76  4592.83  4618.27  4659.76
                             4664.99  4682.75  5139.79

 Zero-point correction=                           0.380021 (Hartree/Particle)
 Thermal correction to Energy=                    0.399824
 Thermal correction to Enthalpy=                  0.400768
 Thermal correction to Gibbs Free Energy=         0.328818
 Sum of electronic and zero-point Energies=           -808.575821
 Sum of electronic and thermal Energies=              -808.556017
 Sum of electronic and thermal Enthalpies=            -808.555073
 Sum of electronic and thermal Free Energies=         -808.627023

                     E (Thermal)             CV                S
                      KCal/Mol        Cal/Mol-Kelvin    Cal/Mol-Kelvin
 Total                  250.893             74.359            151.432
 Electronic               0.000              0.000              0.000
 Translational            0.889              2.981             42.568
 Rotational               0.889              2.981             34.102
 Vibrational            249.116             68.398             74.761
 Vibration     1          0.593              1.987              7.512
 Vibration     2          0.594              1.984              5.809
 Vibration     3          0.595              1.980              5.156
 Vibration     4          0.596              1.977              4.726
 Vibration     5          0.597              1.973              4.421
 Vibration     6          0.597              1.972              4.375
 Vibration     7          0.600              1.963              3.896
 Vibration     8          0.602              1.957              3.687
 Vibration     9          0.604              1.949              3.442
 Vibration    10          0.611              1.926              2.984
 Vibration    11          0.617              1.907              2.720
 Vibration    12          0.624              1.884              2.479
 Vibration    13          0.648              1.809              1.948
 Vibration    14          0.658              1.777              1.791
 Vibration    15          0.674              1.727              1.592
 Vibration    16          0.689              1.684              1.447
 Vibration    17          0.696              1.663              1.387
 Vibration    18          0.708              1.629              1.295
 Vibration    19          0.720              1.595              1.212
 Vibration    20          0.752              1.506              1.027
 Vibration    21          0.763              1.478              0.977
 Vibration    22          0.782              1.428              0.893
 Vibration    23          0.787              1.416              0.875
 Vibration    24          0.832              1.306              0.724
 Vibration    25          0.835              1.297              0.713
 Vibration    26          0.878              1.200              0.604
 Vibration    27          0.911              1.127              0.533
 Vibration    28          0.936              1.075              0.486
 Vibration    29          0.950              1.048              0.463

 Optimization completed.
    -- Stationary point found.
 Normal termination of Gaussian 16 at Sun Dec 13 13:45:45 2020.

 ----------------------------------------------------------------------
 # B3LYP/6-311++G(d,p) empiricaldispersion=gd3bj scf=xqc pop=npa geom=c
 heck
 ----------------------------------------------------------------------

 --------------------------------------
 CID_20787920_JID_9022_Energie_neutraal
 --------------------------------------
 Structure from the checkpoint file:  "JID_9022.chk"
 Charge =  0 Multiplicity = 1

 SCF Done:  E(RB3LYP) =  -809.181468097     A.U. after   15 cycles
 Normal termination of Gaussian 16 at Sun Dec 13 13:56:50 2020.

 ----------------------------------------------------------------------
 # B3LYP/6-311++G(d,p) empiricaldispersion=gd3bj scf=xqc pop=npa geom=c
 heck
 ----------------------------------------------------------------------

 ------------------------------------
 CID_20787920_JID_9022_Energie_kation
 ------------------------------------
 Structure from the checkpoint file:  "JID_9022.chk"
 Charge =  1 Multiplicity = 2

 SCF Done:  E(UB3LYP) =  -808.901392571     A.U. after   22 cycles
 Normal termination of Gaussian 16 at Sun Dec 13 14:19:43 2020.
 Gaussian 16:  ES64L-G16RevA.03 25-Dec-2016

 ----------------------------------------------------------------------
 # B3LYP/6-311++G(d,p) empiricaldispersion=gd3bj scf=xqc pop=npa geom=c
 heck
 ----------------------------------------------------------------------

 -----------------------------------
 CID_20787920_JID_9022_Energie_anion
 -----------------------------------
 Structure from the checkpoint file:  "JID_9022.chk"
 Charge = -1 Multiplicity = 2

                         Standard orientation:
 ---------------------------------------------------------------------
 Center     Atomic      Atomic             Coordinates (Angstroms)
 Number     Number       Type             X           Y           Z
 ---------------------------------------------------------------------
      1          6           0       -5.674796   -1.067806   -1.008591
      2          6           0       -5.154683    0.239331   -0.403437
      3          6           0       -4.153249    0.036947    0.743912
      4          6           0       -2.883452   -0.747385    0.375318
      5          6           0       -2.070299   -0.158629   -0.787510
      6          6           0       -1.615836    1.292494   -0.572249
      7          7           0       -0.888221    1.515332    0.689423
      8          6           0        0.183014    0.694490    1.039468
      9          8           0        0.246297    0.145996    2.130031
     10          7           0        1.167887    0.568920    0.043503
     11          6           0        1.609113    1.781491   -0.660125
     12          6           0        2.671142    2.557997    0.080820
     13          6           0        3.732874    3.119266   -0.494914
     14          6           0        1.977201   -0.597523   -0.001108
     15          6           0        3.280459   -0.558290   -0.514843
     16          6           0        4.024583   -1.732780   -0.643162
     17          6           0        3.493343   -2.960147   -0.259018
     18          6           0        2.195837   -3.000230    0.257842
     19          6           0        1.441097   -1.840109    0.381942
     20          1           0       -4.872649   -1.641251   -1.486109
     21          1           0       -6.439275   -0.874267   -1.769063
     22          1           0       -6.123602   -1.706258   -0.237687
     23          1           0       -4.698020    0.849569   -1.194389
     24          1           0       -6.002804    0.824922   -0.025525
     25          1           0       -3.876782    1.021891    1.146857
     26          1           0       -4.656693   -0.487975    1.567014
     27          1           0       -2.241803   -0.816538    1.262256
     28          1           0       -3.152741   -1.779403    0.119820
     29          1           0       -1.182444   -0.781261   -0.952605
     30          1           0       -2.649546   -0.197694   -1.719459
     31          1           0       -0.993550    1.607017   -1.414844
     32          1           0       -2.474790    1.970448   -0.552478
     33          1           0       -1.507752    1.572974    1.490399
     34          1           0        1.951788    1.506664   -1.662899
     35          1           0        0.736789    2.426423   -0.774165
     36          1           0        2.499063    2.672321    1.150589
     37          1           0        4.446811    3.709658    0.071804
     38          1           0        3.928066    3.010922   -1.560516
     39          1           0        3.732244    0.384008   -0.792738
     40          1           0        5.033712   -1.674202   -1.041977
     41          1           0        4.077160   -3.870550   -0.356099
     42          1           0        1.760133   -3.947459    0.563744
     43          1           0        0.440550   -1.892386    0.791275
 ---------------------------------------------------------------------

 SCF Done:  E(UB3LYP) =  -809.170558821     A.U. after   33 cycles
 SCF Done:  E(UB3LYP) =  -809.170558821     a.u. after    1 cycles

 The electronic state is 2-A.
 Alpha  occ. eigenvalues --  -18.99350 -14.25249 -14.22893 -10.19631 -10.12452
 Alpha  occ. eigenvalues --  -10.12141 -10.10697 -10.08455 -10.08434 -10.08329
 Alpha  occ. eigenvalues --  -10.07953 -10.07881 -10.07568 -10.07544 -10.07036
 Alpha  occ. eigenvalues --  -10.06813 -10.06790 -10.06495 -10.06080  -0.95804
 Alpha  occ. eigenvalues --   -0.85629  -0.81902  -0.75813  -0.71129  -0.70044
 Alpha  occ. eigenvalues --   -0.66559  -0.65712  -0.65206  -0.61346  -0.60110
 Alpha  occ. eigenvalues --   -0.56566  -0.54277  -0.51731  -0.50880  -0.48415
 Alpha  occ. eigenvalues --   -0.47398  -0.45532  -0.43245  -0.41546  -0.39733
 Alpha  occ. eigenvalues --   -0.39307  -0.38101  -0.37391  -0.36758  -0.36141
 Alpha  occ. eigenvalues --   -0.35017  -0.34508  -0.33843  -0.33370  -0.32519
 Alpha  occ. eigenvalues --   -0.31982  -0.30957  -0.30376  -0.30131  -0.28788
 Alpha  occ. eigenvalues --   -0.28445  -0.27504  -0.26963  -0.26728  -0.26478
 Alpha  occ. eigenvalues --   -0.25707  -0.25006  -0.22923  -0.22143  -0.21995
 Alpha  occ. eigenvalues --   -0.20645  -0.18687  -0.18037  -0.16365  -0.15457
 Alpha  occ. eigenvalues --   -0.12495   0.04309
 Alpha virt. eigenvalues --    0.05862   0.06415   0.06932   0.07412   0.07566
 Alpha virt. eigenvalues --    0.07628   0.08018   0.08304   0.08698   0.09276
 Alpha virt. eigenvalues --    0.09932   0.10102   0.10340   0.10783   0.11130

  Beta  occ. eigenvalues --  -18.99300 -14.25262 -14.22884 -10.19550 -10.12420
  Beta  occ. eigenvalues --  -10.12138 -10.10653 -10.08442 -10.08358 -10.08280
  Beta  occ. eigenvalues --  -10.07967 -10.07851 -10.07508 -10.07492 -10.07018
  Beta  occ. eigenvalues --  -10.06808 -10.06778 -10.06463 -10.06051  -0.95695
  Beta  occ. eigenvalues --   -0.85580  -0.81848  -0.75750  -0.71094  -0.69875
  Beta  occ. eigenvalues --   -0.66502  -0.65654  -0.65115  -0.61284  -0.60023
  Beta  occ. eigenvalues --   -0.56490  -0.54177  -0.51672  -0.50810  -0.48238
  Beta  occ. eigenvalues --   -0.47309  -0.45468  -0.43191  -0.41490  -0.39652
  Beta  occ. eigenvalues --   -0.39245  -0.38039  -0.37324  -0.36707  -0.36092
  Beta  occ. eigenvalues --   -0.34955  -0.34430  -0.33792  -0.33325  -0.32476
  Beta  occ. eigenvalues --   -0.31920  -0.30906  -0.30230  -0.30070  -0.28706
  Beta  occ. eigenvalues --   -0.28298  -0.27465  -0.26873  -0.26682  -0.26414
  Beta  occ. eigenvalues --   -0.25669  -0.24959  -0.22883  -0.22100  -0.21954
  Beta  occ. eigenvalues --   -0.20490  -0.18609  -0.17539  -0.16162  -0.15341
  Beta  occ. eigenvalues --   -0.12343
  Beta virt. eigenvalues --    0.06209   0.06651   0.06990   0.07063   0.07737
  Beta virt. eigenvalues --    0.07935   0.08058   0.08225   0.08738   0.08814
  Beta virt. eigenvalues --    0.09456   0.10174   0.10253   0.10616   0.10903

 Mulliken charges and spin densities:
               1          2
     1  C    0.947386  -1.573767
     2  C   -0.352332   0.147846
     3  C    0.079745  -0.262583
     4  C    0.132064  -0.474870
     5  C    0.072494  -0.174406
     6  C    0.232529  -0.683653
     7  N   -0.184933   0.168622
     8  C   -0.424715  -0.276734
     9  O   -0.208458   0.032391
    10  N    0.467320   0.045811
    11  C   -0.486574  -0.187132
    12  C    0.466966   0.001709
    13  C   -0.596153   0.095534
    14  C    0.051141   0.029821
    15  C    0.108102  -0.139563
    16  C   -0.298522   0.040624
    17  C   -0.413773   0.035515
    18  C   -0.366764   0.011904
    19  C    0.105958  -0.007531
    20  H   -0.039532   0.171659
    21  H   -0.461145   0.606452
    22  H    0.031322   0.098225
    23  H   -0.007319   0.134554
    24  H   -0.578872   0.739399
    25  H   -0.060794   0.169729
    26  H   -0.102920   0.255814
    27  H    0.270574  -0.063032
    28  H    0.048787   0.116383
    29  H    0.192475  -0.030457
    30  H   -0.269377   0.470232
    31  H    0.091692   0.027729
    32  H   -0.702278   0.936616
    33  H    0.246588   0.086184
    34  H    0.118322   0.039630
    35  H   -0.177297   0.382852
    36  H    0.159344   0.020162
    37  H    0.124263  -0.007476
    38  H    0.094889   0.015193
    39  H    0.109854   0.000780
    40  H    0.148875   0.004195
    41  H    0.116498  -0.001393
    42  H    0.148624   0.013435
    43  H    0.165947  -0.016401
 Sum of Mulliken charges =  -1.00000   1.00000

 Dipole moment (field-independent basis, Debye):
    X=              9.0455    Y=             -2.9389    Z=              0.2450  Tot=              9.5141
 Quadrupole moment (field-independent basis, Debye-Ang):
   XX=           -228.5357   YY=           -155.6348   ZZ=           -152.0516
   XY=              7.0719   XZ=            -15.2257   YZ=              2.3600

 Summary of Natural Population Analysis:

                                       Natural Population
                Natural  -----------------------------------------------
    Atom  No    Charge         Core      Valence    Rydberg      Total
 -----------------------------------------------------------------------
      C    1   -0.28738      0.99967     2.28154    0.00617     3.28738
      C    2   -0.19271      0.99964     2.18446    0.00861     3.19271
      C    3   -0.18969      0.99963     2.18095    0.00911     3.18969
      C    4   -0.19814      0.99962     2.19028    0.00824     3.19814
      C    5   -0.20083      0.99962     2.19329    0.00791     3.20083
      C    6   -0.09048      0.99960     2.07871    0.01217     3.09048
      N    7   -0.33841      0.99969     2.82792    0.01079     3.83841
      C    8    0.42667      0.99967     1.54862    0.02504     2.57333
      O    9   -0.31589      0.99987     3.31114    0.00488     4.31589
      N   10   -0.26900      0.99961     2.75891    0.01048     3.76900
      C   11   -0.10482      0.99958     2.09336    0.01187     3.10482
      C   12   -0.07307      0.99956     2.06384    0.00967     3.07307
      C   13   -0.19223      0.99957     2.18533    0.00734     3.19223
      C   14    0.10014      0.99947     1.88975    0.01064     2.89986
      C   15   -0.13051      0.99953     2.12184    0.00915     3.13051
      C   16   -0.08995      0.99958     2.08204    0.00834     3.08995
      C   17   -0.11599      0.99957     2.10726    0.00917     3.11599
      C   18   -0.10008      0.99958     2.09205    0.00845     3.10008
      C   19   -0.09808      0.99953     2.09052    0.00803     3.09808
      H   20    0.09461      0.00000     0.40446    0.00093     0.40539
      H   21    0.10099      0.00000     0.39789    0.00113     0.39901
      H   22    0.09403      0.00000     0.40504    0.00093     0.40597
      H   23    0.09507      0.00000     0.40306    0.00187     0.40493
      H   24    0.09770      0.00000     0.40055    0.00175     0.40230
      H   25    0.09372      0.00000     0.40494    0.00133     0.40628
      H   26    0.09563      0.00000     0.40342    0.00095     0.40437
      H   27    0.10279      0.00000     0.39590    0.00131     0.39721
      H   28    0.09688      0.00000     0.40213    0.00099     0.40312
      H   29    0.10080      0.00000     0.39790    0.00131     0.39920
      H   30    0.10081      0.00000     0.39811    0.00107     0.39919
      H   31    0.09530      0.00000     0.40343    0.00128     0.40470
      H   32    0.10172      0.00000     0.39652    0.00176     0.39828
      H   33    0.19141      0.00000     0.30646    0.00213     0.30859
      H   34    0.09892      0.00000     0.40000    0.00108     0.40108
      H   35    0.11699      0.00000     0.38128    0.00174     0.38301
      H   36    0.09624      0.00000     0.40291    0.00085     0.40376
      H   37    0.09253      0.00000     0.40665    0.00081     0.40747
      H   38    0.08751      0.00000     0.41158    0.00091     0.41249
      H   39    0.10885      0.00000     0.38973    0.00142     0.39115
      H   40    0.09569      0.00000     0.40350    0.00082     0.40431
      H   41    0.09537      0.00000     0.40369    0.00094     0.40463
      H   42    0.09747      0.00000     0.40168    0.00085     0.40253
      H   43    0.10944      0.00000     0.38910    0.00146     0.39056
 =======================================================================
   * Total *   -0.00000     18.99259    51.79174    0.21567    71.00000

 Normal termination of Gaussian 16 at Sun Dec 13 14:52:00 2020.
