 Gaussian 16, Revision A.03,

 -----------------------------------------------------------
 # opt freq B3LYP/6-31G(d) empiricaldispersion=gd3bj scf=xqc
 -----------------------------------------------------------

 -------------------------------
 CID_140551596_JID_2636_neutraal
 -------------------------------
 Symbolic Z-matrix:
 Charge =  0 Multiplicity = 1

 SCF Done:  E(RB3LYP) =  -574.445452210     A.U. after   14 cycles
 SCF Done:  E(RB3LYP) =  -574.449718977     A.U. after   12 cycles
 SCF Done:  E(RB3LYP) =  -574.450897384     A.U. after   13 cycles
 SCF Done:  E(RB3LYP) =  -574.450941724     A.U. after   12 cycles
 SCF Done:  E(RB3LYP) =  -574.451058800     A.U. after   11 cycles
 SCF Done:  E(RB3LYP) =  -574.451277051     A.U. after   11 cycles
 SCF Done:  E(RB3LYP) =  -574.451276863     A.U. after   11 cycles
 SCF Done:  E(RB3LYP) =  -574.451383303     A.U. after   10 cycles
 SCF Done:  E(RB3LYP) =  -574.451426757     A.U. after   11 cycles
 SCF Done:  E(RB3LYP) =  -574.451490215     A.U. after   11 cycles
 SCF Done:  E(RB3LYP) =  -574.451394295     A.U. after   14 cycles
 SCF Done:  E(RB3LYP) =  -574.451707110     A.U. after   11 cycles
 SCF Done:  E(RB3LYP) =  -574.451730399     A.U. after   11 cycles
 SCF Done:  E(RB3LYP) =  -574.451740119     A.U. after   10 cycles
 SCF Done:  E(RB3LYP) =  -574.451745023     A.U. after   10 cycles
 SCF Done:  E(RB3LYP) =  -574.451746175     A.U. after    8 cycles
 Optimization completed.
    -- Stationary point found.
 Normal termination of Gaussian 16 at Wed Dec  9 17:51:17 2020.

 --------------------------------------------------------------------
 #N Geom=AllCheck Guess=TCheck SCRF=Check GenChk RB3LYP/6-31G(d) Freq
 --------------------------------------------------------------------

 Structure from the checkpoint file:  "JID_2636.chk"
 -------------------------------
 CID_140551596_JID_2636_neutraal
 -------------------------------
 Charge =  0 Multiplicity = 1

 SCF Done:  E(RB3LYP) =  -574.451746175     A.U. after    1 cycles

  Exact polarizability: 130.234   0.375  99.618   3.456  -2.321  83.516
 Approx polarizability: 155.686  -2.275 142.866  11.581 -10.015 127.505

                      1                      2                      3
                      A                      A                      A
 Frequencies --     28.3163                47.1349                72.8204
 Red. masses --      3.5281                 2.8749                 4.6875
 Frc consts  --      0.0017                 0.0038                 0.0146
 IR Inten    --      0.5041                 0.2763                 2.8182

                      4                      5                      6
                      A                      A                      A
 Frequencies --    113.3755               129.0707               211.3211
 Red. masses --      5.3677                 3.2772                 2.3721
 Frc consts  --      0.0407                 0.0322                 0.0624
 IR Inten    --      0.7518                 0.9393                 4.6902

                      7                      8                      9
                      A                      A                      A
 Frequencies --    258.2050               260.4814               286.4033
 Red. masses --      1.1560                 1.7470                 1.1585
 Frc consts  --      0.0454                 0.0698                 0.0560
 IR Inten    --      0.4382                 0.6553                 0.1204

                     10                     11                     12
                      A                      A                      A
 Frequencies --    305.8261               371.1377               401.7994
 Red. masses --      3.1164                 2.5278                 3.7491
 Frc consts  --      0.1717                 0.2051                 0.3566
 IR Inten    --      7.0896                 4.7269                 1.0613

                     13                     14                     15
                      A                      A                      A
 Frequencies --    426.3492               441.2121               444.5220
 Red. masses --      1.9942                 3.0569                 3.0267
 Frc consts  --      0.2136                 0.3506                 0.3524
 IR Inten    --      3.6985                 4.9809                 1.5521

                     16                     17                     18
                      A                      A                      A
 Frequencies --    458.7363               524.7136               564.8768
 Red. masses --      2.9263                 2.6136                 2.1936
 Frc consts  --      0.3628                 0.4240                 0.4124
 IR Inten    --      4.5295                 0.6075                 2.3985

                     19                     20                     21
                      A                      A                      A
 Frequencies --    633.6399               748.0989               814.6955
 Red. masses --      3.5432                11.6038                 4.0291
 Frc consts  --      0.8382                 3.8262                 1.5756
 IR Inten    --      5.7592                22.0322                15.5642

                     22                     23                     24
                      A                      A                      A
 Frequencies --    826.4259               854.4292               864.0175
 Red. masses --      1.5363                 3.7151                 3.9123
 Frc consts  --      0.6182                 1.5980                 1.7208
 IR Inten    --      0.0180                23.4162                 2.6660

                     25                     26                     27
                      A                      A                      A
 Frequencies --    869.9138               908.0207               962.1707
 Red. masses --      1.5790                 2.5564                 3.2325
 Frc consts  --      0.7040                 1.2418                 1.7632
 IR Inten    --      4.5069                 7.7924                 8.0390

                     28                     29                     30
                      A                      A                      A
 Frequencies --    978.9751              1000.6026              1028.3389
 Red. masses --      1.3201                 2.6037                 1.6887
 Frc consts  --      0.7454                 1.5359                 1.0521
 IR Inten    --      5.3383                 4.5927                 6.9263

                     31                     32                     33
                      A                      A                      A
 Frequencies --   1044.1097              1073.8147              1083.4815
 Red. masses --      2.4293                 2.4725                 1.7805
 Frc consts  --      1.5603                 1.6797                 1.2315
 IR Inten    --     77.0192                40.7338                 5.8281

                     34                     35                     36
                      A                      A                      A
 Frequencies --   1128.3880              1159.0888              1177.0470
 Red. masses --      1.2326                 1.8782                 2.0540
 Frc consts  --      0.9246                 1.4867                 1.6766
 IR Inten    --      3.2733                 8.6690               163.0941

                     37                     38                     39
                      A                      A                      A
 Frequencies --   1198.4429              1211.9987              1243.4333
 Red. masses --      1.3321                 1.7113                 1.7294
 Frc consts  --      1.1273                 1.4811                 1.5754
 IR Inten    --      4.0704                 1.9367               127.8749

                     40                     41                     42
                      A                      A                      A
 Frequencies --   1261.3394              1276.5495              1291.3951
 Red. masses --      2.2719                 2.7177                 2.0478
 Frc consts  --      2.1296                 2.6093                 2.0121
 IR Inten    --    100.3276                 7.3003               128.6641

                     43                     44                     45
                      A                      A                      A
 Frequencies --   1299.9651              1328.7368              1370.9324
 Red. masses --      1.3018                 1.2441                 1.2901
 Frc consts  --      1.2961                 1.2941                 1.4285
 IR Inten    --     41.9800                28.0982                 0.1744

                     46                     47                     48
                      A                      A                      A
 Frequencies --   1396.4069              1398.3516              1403.8586
 Red. masses --      1.3268                 1.5653                 1.4409
 Frc consts  --      1.5244                 1.8033                 1.6731
 IR Inten    --      2.5503                11.0662                 4.2257

                     49                     50                     51
                      A                      A                      A
 Frequencies --   1423.9666              1450.2870              1464.5737
 Red. masses --      1.3393                 1.1820                 2.2015
 Frc consts  --      1.6000                 1.4647                 2.7823
 IR Inten    --      8.2282                 0.1682               211.5028

                     52                     53                     54
                      A                      A                      A
 Frequencies --   1477.7875              1500.6604              1507.4770
 Red. masses --      1.2380                 1.0538                 1.0886
 Frc consts  --      1.5929                 1.3982                 1.4576
 IR Inten    --     31.1342                16.2600                 0.6108

                     55                     56                     57
                      A                      A                      A
 Frequencies --   1511.3630              1511.8647              1514.6065
 Red. masses --      1.0533                 1.0882                 1.0848
 Frc consts  --      1.4175                 1.4655                 1.4662
 IR Inten    --      9.2835                11.2426                 4.7879

                     58                     59                     60
                      A                      A                      A
 Frequencies --   1521.6943              1526.4141              1534.3790
 Red. masses --      1.1120                 1.0460                 1.1163
 Frc consts  --      1.5171                 1.4359                 1.5485
 IR Inten    --     15.5093                 2.0332                22.4740

                     61                     62                     63
                      A                      A                      A
 Frequencies --   1544.6089              1815.7809              2993.2760
 Red. masses --      1.0536                11.4866                 1.0535
 Frc consts  --      1.4810                22.3136                 5.5615
 IR Inten    --      6.8836               348.3788                36.7977

                     64                     65                     66
                      A                      A                      A
 Frequencies --   3003.5085              3023.1722              3029.7601
 Red. masses --      1.0526                 1.0684                 1.0731
 Frc consts  --      5.5945                 5.7534                 5.8040
 IR Inten    --     86.1825                19.1588                16.4727

                     67                     68                     69
                      A                      A                      A
 Frequencies --   3035.4514              3041.6367              3046.4787
 Red. masses --      1.0733                 1.0616                 1.0612
 Frc consts  --      5.8265                 5.7864                 5.8027
 IR Inten    --     51.2230                35.4337                25.9037

                     70                     71                     72
                      A                      A                      A
 Frequencies --   3080.1028              3085.4157              3092.3135
 Red. masses --      1.0935                 1.1038                 1.1047
 Frc consts  --      6.1120                 6.1908                 6.2241
 IR Inten    --     52.7736                40.5050                78.6166

                     73                     74                     75
                      A                      A                      A
 Frequencies --   3107.2501              3113.7922              3152.7510
 Red. masses --      1.0819                 1.0832                 1.1042
 Frc consts  --      6.1544                 6.1878                 6.4669
 IR Inten    --      7.4122                38.4612                21.5520

                     76                     77                     78
                      A                      A                      A
 Frequencies --   3167.9726              3175.5958              3178.8151
 Red. masses --      1.0926                 1.1002                 1.0911
 Frc consts  --      6.4604                 6.5370                 6.4962
 IR Inten    --      4.1121                 7.5192                 8.1338

 - Thermochemistry -
 -------------------
 Temperature   298.150 Kelvin.  Pressure   1.00000 Atm.
 Atom     1 has atomic number  6 and mass  12.00000

 Molecular mass:   172.12118 amu.
 Principal axes and moments of inertia in atomic units:
                           1         2         3
     Eigenvalues --   944.784053317.304233824.58786
           X            0.99998   0.00541  -0.00412
           Y           -0.00534   0.99985   0.01673
           Z            0.00421  -0.01671   0.99985
 This molecule is an asymmetric top.
 Rotational symmetry number  1.
 Warning -- assumption of classical behavior for rotation
           may cause significant error
 Rotational temperatures (Kelvin)      0.09168     0.02611     0.02265
 Rotational constants (GHZ):           1.91022     0.54404     0.47188
 Zero-point vibrational energy     650862.6 (Joules/Mol)
                                  155.55989 (Kcal/Mol)
 Warning -- explicit consideration of  18 degrees of freedom as
           vibrations may cause significant error
 Vibrational temperatures:     40.74    67.82   104.77   163.12   185.70
          (Kelvin)            304.04   371.50   374.77   412.07   440.02
                              533.98   578.10   613.42   634.81   639.57
                              660.02   754.95   812.73   911.67  1076.35
                             1172.17  1189.04  1229.33  1243.13  1251.61
                             1306.44  1384.35  1408.53  1439.64  1479.55
                             1502.24  1544.98  1558.89  1623.50  1667.67
                             1693.51  1724.29  1743.80  1789.02  1814.79
                             1836.67  1858.03  1870.36  1911.76  1972.47
                             2009.12  2011.92  2019.84  2048.77  2086.64
                             2107.19  2126.21  2159.12  2168.92  2174.51
                             2175.24  2179.18  2189.38  2196.17  2207.63
                             2222.35  2612.50  4306.66  4321.38  4349.67
                             4359.15  4367.34  4376.24  4383.20  4431.58
                             4439.23  4449.15  4470.64  4480.05  4536.11
                             4558.01  4568.97  4573.61

 Zero-point correction=                           0.247900 (Hartree/Particle)
 Thermal correction to Energy=                    0.260208
 Thermal correction to Enthalpy=                  0.261153
 Thermal correction to Gibbs Free Energy=         0.208469
 Sum of electronic and zero-point Energies=           -574.203846
 Sum of electronic and thermal Energies=              -574.191538
 Sum of electronic and thermal Enthalpies=            -574.190594
 Sum of electronic and thermal Free Energies=         -574.243277

                     E (Thermal)             CV                S
                      KCal/Mol        Cal/Mol-Kelvin    Cal/Mol-Kelvin
 Total                  163.283             46.297            110.881
 Electronic               0.000              0.000              0.000
 Translational            0.889              2.981             41.337
 Rotational               0.889              2.981             30.861
 Vibrational            161.506             40.336             38.683
 Vibration     1          0.593              1.984              5.944
 Vibration     2          0.595              1.979              4.934
 Vibration     3          0.599              1.967              4.076
 Vibration     4          0.607              1.938              3.210
 Vibration     5          0.612              1.924              2.960
 Vibration     6          0.643              1.824              2.032
 Vibration     7          0.667              1.749              1.674
 Vibration     8          0.669              1.745              1.659
 Vibration     9          0.684              1.699              1.495
 Vibration    10          0.696              1.663              1.385
 Vibration    11          0.743              1.531              1.075
 Vibration    12          0.767              1.466              0.956
 Vibration    13          0.788              1.413              0.871
 Vibration    14          0.801              1.380              0.823
 Vibration    15          0.804              1.373              0.813
 Vibration    16          0.817              1.342              0.770
 Vibration    17          0.880              1.195              0.599
 Vibration    18          0.921              1.107              0.514

                           ! Non-Optimized Parameters !
 Normal termination of Gaussian 16 at Wed Dec  9 17:57:41 2020.

 ----------------------------------------------------------------------
 # B3LYP/6-311++G(d,p) empiricaldispersion=gd3bj scf=xqc pop=npa geom=c
 heck
 ----------------------------------------------------------------------

 ---------------------------------------
 CID_140551596_JID_2636_Energie_neutraal
 ---------------------------------------
 Structure from the checkpoint file:  "JID_2636.chk"
 Charge =  0 Multiplicity = 1

 SCF Done:  E(RB3LYP) =  -574.615723463     A.U. after   13 cycles
 Normal termination of Gaussian 16 at Wed Dec  9 18:00:02 2020.

 ----------------------------------------------------------------------
 # B3LYP/6-311++G(d,p) empiricaldispersion=gd3bj scf=xqc pop=npa geom=c
 heck
 ----------------------------------------------------------------------

 -------------------------------------
 CID_140551596_JID_2636_Energie_kation
 -------------------------------------
 Structure from the checkpoint file:  "JID_2636.chk"
 Charge =  1 Multiplicity = 2

 SCF Done:  E(UB3LYP) =  -574.314131818     A.U. after   21 cycles
 Normal termination of Gaussian 16 at Wed Dec  9 18:04:57 2020.
 Gaussian 16:  ES64L-G16RevA.03 25-Dec-2016

 ----------------------------------------------------------------------
 # B3LYP/6-311++G(d,p) empiricaldispersion=gd3bj scf=xqc pop=npa geom=c
 heck
 ----------------------------------------------------------------------

 ------------------------------------
 CID_140551596_JID_2636_Energie_anion
 ------------------------------------
 Structure from the checkpoint file:  "JID_2636.chk"
 Charge = -1 Multiplicity = 2

                         Standard orientation:
 ---------------------------------------------------------------------
 Center     Atomic      Atomic             Coordinates (Angstroms)
 Number     Number       Type             X           Y           Z
 ---------------------------------------------------------------------
      1          6           0       -3.049614   -1.491534   -0.595208
      2          7           0       -2.564073   -0.127184   -0.441511
      3          6           0       -3.449793    0.684151    0.389716
      4          8           0       -1.327248   -0.299211    0.307827
      5          6           0       -0.423303    0.710518    0.067451
      6          8           0       -0.690918    1.748004   -0.506101
      7          7           0        0.788703    0.403600    0.627635
      8          6           0        1.910715    1.300879    0.351846
      9          6           0        2.802981    0.723795   -0.753924
     10          6           0        3.252899   -0.702792   -0.404880
     11          6           0        2.050383   -1.596989   -0.067630
     12          6           0        1.180476   -0.951674    1.018879
     13          1           0       -3.990999   -1.443921   -1.150643
     14          1           0       -3.224818   -2.000683    0.367217
     15          1           0       -2.324714   -2.064145   -1.178589
     16          1           0       -3.623836    0.239569    1.382978
     17          1           0       -3.011025    1.677016    0.493066
     18          1           0       -4.404421    0.774075   -0.138290
     19          1           0        2.486882    1.415459    1.280566
     20          1           0        1.502303    2.271996    0.074318
     21          1           0        3.671469    1.376067   -0.907323
     22          1           0        2.231135    0.717237   -1.690942
     23          1           0        3.830759   -1.135182   -1.230151
     24          1           0        3.925458   -0.665223    0.464938
     25          1           0        1.433729   -1.746466   -0.964068
     26          1           0        2.385309   -2.586934    0.266419
     27          1           0        0.285970   -1.537303    1.221330
     28          1           0        1.751269   -0.874949    1.954990
 ---------------------------------------------------------------------

 SCF Done:  E(UB3LYP) =  -574.600210922     A.U. after   28 cycles

 The electronic state is 2-A.
 Alpha  occ. eigenvalues --  -19.07822 -18.99166 -14.27100 -14.24017 -10.21370
 Alpha  occ. eigenvalues --  -10.10308 -10.10211 -10.09433 -10.09403 -10.07112
 Alpha  occ. eigenvalues --  -10.06803 -10.06779  -1.01827  -0.92772  -0.84994
 Alpha  occ. eigenvalues --   -0.78401  -0.69902  -0.66419  -0.62129  -0.59182
 Alpha  occ. eigenvalues --   -0.54402  -0.52721  -0.49077  -0.45125  -0.43255
 Alpha  occ. eigenvalues --   -0.39202  -0.38697  -0.37251  -0.36350  -0.35477
 Alpha  occ. eigenvalues --   -0.34972  -0.33310  -0.32686  -0.30933  -0.30678
 Alpha  occ. eigenvalues --   -0.30116  -0.29463  -0.28270  -0.28017  -0.25837
 Alpha  occ. eigenvalues --   -0.24936  -0.23154  -0.22705  -0.21315  -0.17868
 Alpha  occ. eigenvalues --   -0.15273  -0.13732   0.04463
 Alpha virt. eigenvalues --    0.06090   0.07560   0.07709   0.08522   0.08987
 Alpha virt. eigenvalues --    0.09736   0.10498   0.10830   0.11356   0.11901
 Alpha virt. eigenvalues --    0.12227   0.12471   0.12913   0.13962   0.14149

  Beta  occ. eigenvalues --  -19.07813 -18.99162 -14.27089 -14.24016 -10.21368
  Beta  occ. eigenvalues --  -10.10296 -10.10191 -10.09412 -10.09362 -10.07099
  Beta  occ. eigenvalues --  -10.06777 -10.06754  -1.01816  -0.92761  -0.84982
  Beta  occ. eigenvalues --   -0.78378  -0.69864  -0.66387  -0.62082  -0.59143
  Beta  occ. eigenvalues --   -0.54350  -0.52662  -0.49020  -0.45087  -0.43213
  Beta  occ. eigenvalues --   -0.39169  -0.38666  -0.37214  -0.36323  -0.35434
  Beta  occ. eigenvalues --   -0.34947  -0.33268  -0.32655  -0.30901  -0.30647
  Beta  occ. eigenvalues --   -0.30079  -0.29426  -0.28241  -0.27982  -0.25800
  Beta  occ. eigenvalues --   -0.24901  -0.23108  -0.22664  -0.21296  -0.17860
  Beta  occ. eigenvalues --   -0.15233  -0.13692
  Beta virt. eigenvalues --    0.06735   0.07205   0.08176   0.08460   0.09140
  Beta virt. eigenvalues --    0.09598   0.10158   0.11031   0.11169   0.11868
  Beta virt. eigenvalues --    0.12157   0.12610   0.12890   0.13043   0.14189

 Mulliken charges and spin densities:
               1          2
     1  C    1.037005  -1.358821
     2  N   -0.520217   0.281617
     3  C    0.285021  -0.612484
     4  O    0.125887  -0.015719
     5  C    0.257072  -0.293764
     6  O   -0.321623   0.008543
     7  N   -0.095157   0.124707
     8  C    0.104292  -0.450403
     9  C   -0.367037   0.242384
    10  C    0.996827  -1.429453
    11  C   -0.017338  -0.090815
    12  C   -0.088379  -0.356693
    13  H   -0.316569   0.454374
    14  H   -0.305187   0.442147
    15  H   -0.387048   0.551148
    16  H   -0.122403   0.252630
    17  H    0.138743   0.050366
    18  H   -0.095602   0.242083
    19  H   -0.230478   0.388111
    20  H    0.225245  -0.030277
    21  H   -0.224461   0.383688
    22  H    0.083953   0.064919
    23  H   -0.586458   0.749339
    24  H   -0.037190   0.176020
    25  H    0.262016  -0.133832
    26  H   -0.607697   0.777459
    27  H    0.158120   0.070086
    28  H   -0.351338   0.512640
 Sum of Mulliken charges =  -1.00000   1.00000

 Dipole moment (field-independent basis, Debye):
    X=             -0.7110    Y=              3.6932    Z=              0.6404  Tot=              3.8151
 Quadrupole moment (field-independent basis, Debye-Ang):
   XX=           -155.6463   YY=           -118.1834   ZZ=           -105.8601
   XY=              1.0655   XZ=             -4.1060   YZ=              2.4145

 Summary of Natural Population Analysis:

                                       Natural Population
                Natural  -----------------------------------------------
    Atom  No    Charge         Core      Valence    Rydberg      Total
 -----------------------------------------------------------------------
      C    1   -0.18233      0.99964     2.17322    0.00948     3.18233
      N    2   -0.10343      0.99972     2.58973    0.01398     3.60343
      C    3   -0.18834      0.99963     2.18014    0.00857     3.18834
      O    4   -0.22948      0.99987     3.22071    0.00890     4.22948
      C    5    0.46820      0.99966     1.50755    0.02460     2.53180
      O    6   -0.32915      0.99987     3.32449    0.00479     4.32915
      N    7   -0.26487      0.99964     2.75445    0.01077     3.76487
      C    8   -0.08443      0.99961     2.07439    0.01042     3.08443
      C    9   -0.19661      0.99963     2.18842    0.00856     3.19661
      C   10   -0.19100      0.99963     2.18262    0.00876     3.19100
      C   11   -0.19594      0.99963     2.18750    0.00882     3.19594
      C   12   -0.08466      0.99960     2.07400    0.01106     3.08466
      H   13    0.10007      0.00000     0.39814    0.00179     0.39993
      H   14    0.08692      0.00000     0.41105    0.00202     0.41308
      H   15    0.10192      0.00000     0.39644    0.00165     0.39808
      H   16    0.08558      0.00000     0.41302    0.00140     0.41442
      H   17    0.10711      0.00000     0.39181    0.00107     0.39289
      H   18    0.09847      0.00000     0.40044    0.00110     0.40153
      H   19    0.09122      0.00000     0.40762    0.00116     0.40878
      H   20    0.11320      0.00000     0.38579    0.00101     0.38680
      H   21    0.09996      0.00000     0.39901    0.00103     0.40004
      H   22    0.09735      0.00000     0.40138    0.00127     0.40265
      H   23    0.10141      0.00000     0.39703    0.00156     0.39859
      H   24    0.09448      0.00000     0.40337    0.00215     0.40552
      H   25    0.09555      0.00000     0.40290    0.00155     0.40445
      H   26    0.10358      0.00000     0.39445    0.00196     0.39642
      H   27    0.11311      0.00000     0.38521    0.00167     0.38689
      H   28    0.09213      0.00000     0.40638    0.00150     0.40787
 =======================================================================
   * Total *    0.00000     11.99614    34.85125    0.15261    47.00000

 Normal termination of Gaussian 16 at Wed Dec  9 18:11:15 2020.
