 Gaussian 16, Revision A.03,

 -----------------------------------------------------------
 # opt freq B3LYP/6-31G(d) empiricaldispersion=gd3bj scf=xqc
 -----------------------------------------------------------

 ------------------------------
 CID_80712649_JID_5689_neutraal
 ------------------------------
 Symbolic Z-matrix:
 Charge =  0 Multiplicity = 1

 SCF Done:  E(RB3LYP) =  -1050.08596184     A.U. after   14 cycles
 SCF Done:  E(RB3LYP) =  -1050.09081437     A.U. after   12 cycles
 SCF Done:  E(RB3LYP) =  -1050.09093799     A.U. after   12 cycles
 SCF Done:  E(RB3LYP) =  -1050.09224288     A.U. after   12 cycles
 SCF Done:  E(RB3LYP) =  -1050.09271830     A.U. after   12 cycles
 SCF Done:  E(RB3LYP) =  -1050.09364736     A.U. after   14 cycles
 SCF Done:  E(RB3LYP) =  -1050.08975162     A.U. after   15 cycles
 SCF Done:  E(RB3LYP) =  -1050.09437449     A.U. after   12 cycles
 SCF Done:  E(RB3LYP) =  -1050.09508192     A.U. after   11 cycles
 SCF Done:  E(RB3LYP) =  -1050.09553996     A.U. after   12 cycles
 SCF Done:  E(RB3LYP) =  -1050.09761289     A.U. after    9 cycles
 SCF Done:  E(RB3LYP) =  -1050.09761367     A.U. after    8 cycles
 SCF Done:  E(RB3LYP) =  -1050.09761370     A.U. after    6 cycles
 SCF Done:  E(RB3LYP) =  -1050.09761373     A.U. after    6 cycles
 SCF Done:  E(RB3LYP) =  -1050.09761373     A.U. after    6 cycles
 Optimization completed.
    -- Stationary point found.
 Normal termination of Gaussian 16 at Thu Dec 10 16:56:25 2020.

 --------------------------------------------------------------------
 #N Geom=AllCheck Guess=TCheck SCRF=Check GenChk RB3LYP/6-31G(d) Freq
 --------------------------------------------------------------------

 Structure from the checkpoint file:  "JID_5689.chk"
 ------------------------------
 CID_80712649_JID_5689_neutraal
 ------------------------------
 Charge =  0 Multiplicity = 1

 SCF Done:  E(RB3LYP) =  -1050.09761373     A.U. after    1 cycles

  Exact polarizability: 157.119   4.286 128.794   0.185  -0.696 120.087
 Approx polarizability: 193.413  13.633 203.269   1.006  -3.796 182.481

                      1                      2                      3
                      A                      A                      A
 Frequencies --     24.3391                33.5496                39.4990
 Red. masses --      3.5790                 3.9764                 2.1719
 Frc consts  --      0.0012                 0.0026                 0.0020
 IR Inten    --      0.6214                 0.4997                 1.0058

                      4                      5                      6
                      A                      A                      A
 Frequencies --     54.5084                72.1291                94.0231
 Red. masses --      4.5949                 5.7959                 4.0988
 Frc consts  --      0.0080                 0.0178                 0.0213
 IR Inten    --      0.1292                 1.5449                 0.8352

                      7                      8                      9
                      A                      A                      A
 Frequencies --    137.0905               181.7637               199.7989
 Red. masses --      4.7730                 2.6489                 3.2464
 Frc consts  --      0.0529                 0.0516                 0.0764
 IR Inten    --     11.3073                 3.0006                 1.9406

                     10                     11                     12
                      A                      A                      A
 Frequencies --    223.4155               306.8841               310.8147
 Red. masses --      4.5894                 3.0957                 2.7522
 Frc consts  --      0.1350                 0.1718                 0.1566
 IR Inten    --      1.9905                 2.8097                 1.3696

                     13                     14                     15
                      A                      A                      A
 Frequencies --    337.8760               380.8995               394.0580
 Red. masses --      2.6512                 4.2191                 4.0536
 Frc consts  --      0.1783                 0.3607                 0.3709
 IR Inten    --      0.5957                 4.6583                 3.6409

                     16                     17                     18
                      A                      A                      A
 Frequencies --    432.0541               463.6487               497.4625
 Red. masses --      3.5968                 3.2084                 1.9515
 Frc consts  --      0.3956                 0.4064                 0.2845
 IR Inten    --      1.9738                17.2155                 4.9715

                     19                     20                     21
                      A                      A                      A
 Frequencies --    518.1466               597.6576               618.3512
 Red. masses --      1.6896                 2.2987                 2.5111
 Frc consts  --      0.2673                 0.4838                 0.5657
 IR Inten    --     21.3829                25.2514                17.8170

                     22                     23                     24
                      A                      A                      A
 Frequencies --    646.7697               667.5025               686.1681
 Red. masses --      2.5638                 3.5950                 5.4862
 Frc consts  --      0.6319                 0.9438                 1.5219
 IR Inten    --     37.1320                 3.9973                21.3232

                     25                     26                     27
                      A                      A                      A
 Frequencies --    700.2735               716.5498               809.4624
 Red. masses --      4.1655                 3.9138                 2.5297
 Frc consts  --      1.2035                 1.1840                 0.9766
 IR Inten    --     18.9183                29.8416                63.7921

                     28                     29                     30
                      A                      A                      A
 Frequencies --    834.6503               841.9479               864.8526
 Red. masses --      1.2540                 1.8264                 1.7932
 Frc consts  --      0.5147                 0.7628                 0.7902
 IR Inten    --      1.7268                 1.3577                26.4671

                     31                     32                     33
                      A                      A                      A
 Frequencies --    893.2783               920.9582               934.3888
 Red. masses --      2.7530                 2.6423                 2.4078
 Frc consts  --      1.2943                 1.3204                 1.2386
 IR Inten    --     21.6067                 9.9768                17.8616

                     34                     35                     36
                      A                      A                      A
 Frequencies --    936.1429               968.9208               978.1495
 Red. masses --      3.4294                 2.0843                 1.2796
 Frc consts  --      1.7707                 1.1529                 0.7213
 IR Inten    --      7.6142                 2.7106                 1.5925

                     37                     38                     39
                      A                      A                      A
 Frequencies --    997.3832              1027.3117              1043.0155
 Red. masses --      2.7826                 2.2317                 1.6496
 Frc consts  --      1.6309                 1.3877                 1.0573
 IR Inten    --     19.9277                22.2919                 7.2933

                     40                     41                     42
                      A                      A                      A
 Frequencies --   1065.0227              1093.6935              1094.3191
 Red. masses --      1.9430                 3.8044                 1.7671
 Frc consts  --      1.2985                 2.6812                 1.2468
 IR Inten    --      1.2868                10.1378                41.5234

                     43                     44                     45
                      A                      A                      A
 Frequencies --   1111.7014              1149.3666              1154.6777
 Red. masses --      3.4015                 3.0542                 2.3392
 Frc consts  --      2.4768                 2.3772                 1.8375
 IR Inten    --     65.3334                56.8039                16.6928

                     46                     47                     48
                      A                      A                      A
 Frequencies --   1188.7795              1208.4631              1231.3929
 Red. masses --      2.0947                 1.2525                 1.3464
 Frc consts  --      1.7441                 1.0777                 1.2029
 IR Inten    --      7.5039                 1.3138                 3.4589

                     49                     50                     51
                      A                      A                      A
 Frequencies --   1236.6975              1243.5949              1247.9856
 Red. masses --      1.3232                 1.3122                 1.2520
 Frc consts  --      1.1924                 1.1956                 1.1488
 IR Inten    --     10.0826                 8.1111                 4.4094

                     52                     53                     54
                      A                      A                      A
 Frequencies --   1257.8134              1270.5233              1286.6963
 Red. masses --      1.1926                 1.2886                 1.3712
 Frc consts  --      1.1117                 1.2255                 1.3376
 IR Inten    --      2.1487                 2.4757                71.0398

                     55                     56                     57
                      A                      A                      A
 Frequencies --   1312.7371              1317.1837              1326.0931
 Red. masses --      1.3426                 1.3961                 1.3784
 Frc consts  --      1.3632                 1.4271                 1.4281
 IR Inten    --      5.7339                46.4832                17.1952

                     58                     59                     60
                      A                      A                      A
 Frequencies --   1336.6127              1354.2737              1360.8116
 Red. masses --      1.2329                 1.2373                 1.3040
 Frc consts  --      1.2977                 1.3370                 1.4227
 IR Inten    --      1.3728                 4.0557                36.9875

                     61                     62                     63
                      A                      A                      A
 Frequencies --   1390.0076              1398.2874              1420.9321
 Red. masses --      1.3274                 1.3655                 1.4741
 Frc consts  --      1.5111                 1.5731                 1.7536
 IR Inten    --      7.2982                14.6112                51.2549

                     64                     65                     66
                      A                      A                      A
 Frequencies --   1422.5449              1439.0196              1481.3562
 Red. masses --      1.8617                 1.5516                 1.0900
 Frc consts  --      2.2197                 1.8930                 1.4093
 IR Inten    --    114.3548                39.4933                 5.0629

                     67                     68                     69
                      A                      A                      A
 Frequencies --   1489.2254              1492.5598              1507.6664
 Red. masses --      1.1312                 1.1083                 1.7679
 Frc consts  --      1.4782                 1.4547                 2.3677
 IR Inten    --     17.2355                 4.9707                81.1041

                     70                     71                     72
                      A                      A                      A
 Frequencies --   1524.1270              1531.1208              1532.9442
 Red. masses --      1.0975                 1.2613                 1.1136
 Frc consts  --      1.5020                 1.7422                 1.5418
 IR Inten    --      4.8257                22.2686                14.4581

                     73                     74                     75
                      A                      A                      A
 Frequencies --   1542.5654              1561.9539              1767.1079
 Red. masses --      1.0880                 1.1008                 7.5294
 Frc consts  --      1.5254                 1.5823                13.8528
 IR Inten    --      2.5060                 1.3229               349.5831

                     76                     77                     78
                      A                      A                      A
 Frequencies --   2955.7993              2979.4403              3037.2287
 Red. masses --      1.0723                 1.0720                 1.0681
 Frc consts  --      5.5196                 5.6068                 5.8055
 IR Inten    --     65.2741                61.2751                73.7377

                     79                     80                     81
                      A                      A                      A
 Frequencies --   3045.4455              3053.3213              3060.4148
 Red. masses --      1.0662                 1.0826                 1.0683
 Frc consts  --      5.8261                 5.9468                 5.8955
 IR Inten    --     20.0815                12.5947                29.6289

                     82                     83                     84
                      A                      A                      A
 Frequencies --   3062.3340              3075.7589              3078.2481
 Red. masses --      1.0797                 1.0678                 1.0604
 Frc consts  --      5.9658                 5.9516                 5.9200
 IR Inten    --     16.5571                43.2697                39.8727

                     85                     86                     87
                      A                      A                      A
 Frequencies --   3094.3404              3094.9846              3108.3893
 Red. masses --      1.0945                 1.0988                 1.0866
 Frc consts  --      6.1748                 6.2014                 6.1855
 IR Inten    --     10.6749                31.7921                 6.1480

                     88                     89                     90
                      A                      A                      A
 Frequencies --   3118.1093              3129.6578              3131.2983
 Red. masses --      1.0919                 1.1079                 1.1067
 Frc consts  --      6.2547                 6.3935                 6.3933
 IR Inten    --     28.6766                16.0672                 9.9636

                     91                     92                     93
                      A                      A                      A
 Frequencies --   3134.5919              3527.5055              3576.9732
 Red. masses --      1.0984                 1.0738                 1.0755
 Frc consts  --      6.3590                 7.8722                 8.1077
 IR Inten    --     33.7107                33.8956                15.3428

 - Thermochemistry -
 -------------------
 Temperature   298.150 Kelvin.  Pressure   1.00000 Atm.
 Atom     1 has atomic number  6 and mass  12.00000

 Molecular mass:   230.10890 amu.
 Principal axes and moments of inertia in atomic units:
                           1         2         3
     Eigenvalues --  1874.157437339.391608086.80345
           X            0.99998   0.00530  -0.00353
           Y           -0.00526   0.99992   0.01121
           Z            0.00359  -0.01119   0.99993
 This molecule is an asymmetric top.
 Rotational symmetry number  1.
 Warning -- assumption of classical behavior for rotation
           may cause significant error
 Rotational temperatures (Kelvin)      0.04621     0.01180     0.01071
 Rotational constants (GHZ):           0.96296     0.24590     0.22317
 Zero-point vibrational energy     753643.7 (Joules/Mol)
                                  180.12518 (Kcal/Mol)
 Warning -- explicit consideration of  21 degrees of freedom as
           vibrations may cause significant error
 Vibrational temperatures:     35.02    48.27    56.83    78.43   103.78
          (Kelvin)            135.28   197.24   261.52   287.47   321.45
                              441.54   447.19   486.13   548.03   566.96
                              621.63   667.09   715.74   745.50   859.90
                              889.67   930.56   960.39   987.24  1007.54
                             1030.96  1164.64  1200.88  1211.38  1244.33
                             1285.23  1325.05  1344.38  1346.90  1394.06
                             1407.34  1435.01  1478.07  1500.67  1532.33
                             1573.58  1574.48  1599.49  1653.68  1661.32
                             1710.39  1738.71  1771.70  1779.33  1789.26
                             1795.57  1809.71  1828.00  1851.27  1888.74
                             1895.13  1907.95  1923.09  1948.50  1957.90
                             1999.91  2011.82  2044.40  2046.72  2070.43
                             2131.34  2142.66  2147.46  2169.20  2192.88
                             2202.94  2205.56  2219.41  2247.30  2542.47
                             4252.74  4286.75  4369.89  4381.72  4393.05
                             4403.25  4406.02  4425.33  4428.91  4452.07
                             4452.99  4472.28  4486.26  4502.88  4505.24
                             4509.98  5075.29  5146.47

 Zero-point correction=                           0.287048 (Hartree/Particle)
 Thermal correction to Energy=                    0.301982
 Thermal correction to Enthalpy=                  0.302926
 Thermal correction to Gibbs Free Energy=         0.242096
 Sum of electronic and zero-point Energies=          -1049.810566
 Sum of electronic and thermal Energies=             -1049.795632
 Sum of electronic and thermal Enthalpies=           -1049.794688
 Sum of electronic and thermal Free Energies=        -1049.855518

                     E (Thermal)             CV                S
                      KCal/Mol        Cal/Mol-Kelvin    Cal/Mol-Kelvin
 Total                  189.497             56.018            128.029
 Electronic               0.000              0.000              0.000
 Translational            0.889              2.981             42.202
 Rotational               0.889              2.981             33.075
 Vibrational            187.719             50.056             52.751
 Vibration     1          0.593              1.985              6.244
 Vibration     2          0.594              1.983              5.608
 Vibration     3          0.594              1.981              5.284
 Vibration     4          0.596              1.976              4.647
 Vibration     5          0.598              1.967              4.094
 Vibration     6          0.603              1.953              3.575
 Vibration     7          0.614              1.916              2.844
 Vibration     8          0.630              1.865              2.310
 Vibration     9          0.638              1.840              2.135
 Vibration    10          0.649              1.805              1.931
 Vibration    11          0.697              1.661              1.379
 Vibration    12          0.700              1.653              1.358
 Vibration    13          0.718              1.600              1.222
 Vibration    14          0.751              1.511              1.036
 Vibration    15          0.761              1.483              0.985
 Vibration    16          0.793              1.400              0.852
 Vibration    17          0.821              1.331              0.756
 Vibration    18          0.853              1.256              0.664
 Vibration    19          0.873              1.210              0.614
 Vibration    20          0.956              1.037              0.454
 Vibration    21          0.978              0.993              0.419

 Optimization completed.
    -- Stationary point found.
 Normal termination of Gaussian 16 at Thu Dec 10 17:07:25 2020.

 ----------------------------------------------------------------------
 # B3LYP/6-311++G(d,p) empiricaldispersion=gd3bj scf=xqc pop=npa geom=c
 heck
 ----------------------------------------------------------------------

 --------------------------------------
 CID_80712649_JID_5689_Energie_neutraal
 --------------------------------------
 Structure from the checkpoint file:  "JID_5689.chk"
 Charge =  0 Multiplicity = 1

 SCF Done:  E(RB3LYP) =  -1050.31654681     A.U. after   16 cycles
 Normal termination of Gaussian 16 at Thu Dec 10 17:17:23 2020.

 ----------------------------------------------------------------------
 # B3LYP/6-311++G(d,p) empiricaldispersion=gd3bj scf=xqc pop=npa geom=c
 heck
 ----------------------------------------------------------------------

 ------------------------------------
 CID_80712649_JID_5689_Energie_kation
 ------------------------------------
 Structure from the checkpoint file:  "JID_5689.chk"
 Charge =  1 Multiplicity = 2

 SCF Done:  E(UB3LYP) =  -1050.02530748     A.U. after   30 cycles
 Normal termination of Gaussian 16 at Thu Dec 10 17:33:59 2020.
 Gaussian 16:  ES64L-G16RevA.03 25-Dec-2016

 ----------------------------------------------------------------------
 # B3LYP/6-311++G(d,p) empiricaldispersion=gd3bj scf=xqc pop=npa geom=c
 heck
 ----------------------------------------------------------------------

 -----------------------------------
 CID_80712649_JID_5689_Energie_anion
 -----------------------------------
 Structure from the checkpoint file:  "JID_5689.chk"
 Charge = -1 Multiplicity = 2

                         Standard orientation:
 ---------------------------------------------------------------------
 Center     Atomic      Atomic             Coordinates (Angstroms)
 Number     Number       Type             X           Y           Z
 ---------------------------------------------------------------------
      1          6           0       -3.585271    0.021465    1.275813
      2          6           0       -4.605427   -0.994954    0.718645
      3          8           0       -4.193151   -1.318751   -0.618884
      4          6           0       -3.258123   -0.345533   -1.045210
      5          6           0       -2.461690    0.002798    0.224211
      6          7           0       -1.710492    1.239319    0.169774
      7          6           0       -0.415073    1.424034   -0.233281
      8          8           0        0.041527    2.560757   -0.344354
      9          6           0        0.403158    0.170563   -0.508794
     10          6           0        1.832193    0.486970   -0.994968
     11          6           0        2.597647   -0.793133   -1.348978
     12         16           0        2.967274   -1.834917    0.118932
     13          6           0        3.785345   -0.516963    1.102423
     14          6           0        2.904462    0.723675    1.225581
     15          7           0        2.639161    1.307510   -0.087014
     16          1           0       -4.022846    1.026164    1.323438
     17          1           0       -3.227800   -0.231472    2.277014
     18          1           0       -4.623884   -1.928881    1.289278
     19          1           0       -5.622306   -0.580497    0.708183
     20          1           0       -3.750696    0.562305   -1.435283
     21          1           0       -2.649998   -0.781020   -1.843255
     22          1           0       -1.773593   -0.817328    0.441769
     23          1           0       -2.220077    2.107590    0.290411
     24          1           0        0.439052   -0.452780    0.391840
     25          1           0       -0.112016   -0.434672   -1.266808
     26          1           0        1.739932    1.072042   -1.918269
     27          1           0        2.022597   -1.422198   -2.035144
     28          1           0        3.541210   -0.522340   -1.831853
     29          1           0        4.734629   -0.253873    0.624342
     30          1           0        3.992870   -0.950445    2.085006
     31          1           0        3.440710    1.478343    1.814120
     32          1           0        1.995183    0.458110    1.795047
     33          1           0        2.149628    2.192237    0.021179
 ---------------------------------------------------------------------

 SCF Done:  E(UB3LYP) =  -1050.30668170     A.U. after   33 cycles
 SCF Done:  E(UB3LYP) =  -1050.30668170     a.u. after    1 cycles

 The electronic state is 2-A.
 Alpha  occ. eigenvalues --  -88.74941 -19.03057 -18.99969 -14.24642 -14.20279
 Alpha  occ. eigenvalues --  -10.18595 -10.12580 -10.12173 -10.12144 -10.11697
 Alpha  occ. eigenvalues --  -10.11109 -10.10942 -10.10891 -10.08656 -10.08171
 Alpha  occ. eigenvalues --   -7.83567  -5.79944  -5.79617  -5.78932  -0.95152
 Alpha  occ. eigenvalues --   -0.94778  -0.83694  -0.82610  -0.70823  -0.69990
 Alpha  occ. eigenvalues --   -0.68702  -0.64727  -0.63786  -0.55740  -0.54373
 Alpha  occ. eigenvalues --   -0.52693  -0.50953  -0.49441  -0.45256  -0.42623
 Alpha  occ. eigenvalues --   -0.42332  -0.41790  -0.38891  -0.38814  -0.36183
 Alpha  occ. eigenvalues --   -0.36118  -0.35084  -0.34605  -0.33269  -0.32556
 Alpha  occ. eigenvalues --   -0.32056  -0.31317  -0.30295  -0.29413  -0.28879
 Alpha  occ. eigenvalues --   -0.28334  -0.27627  -0.26596  -0.25054  -0.24038
 Alpha  occ. eigenvalues --   -0.23955  -0.21516  -0.17477  -0.17198  -0.15755
 Alpha  occ. eigenvalues --   -0.14283  -0.13444   0.04088
 Alpha virt. eigenvalues --    0.06058   0.06301   0.07328   0.08040   0.08308
 Alpha virt. eigenvalues --    0.08912   0.09375   0.09765   0.10110   0.10301
 Alpha virt. eigenvalues --    0.10687   0.11078   0.11626   0.12130   0.12352

  Beta  occ. eigenvalues --  -88.74939 -19.03056 -18.99963 -14.24624 -14.20277
  Beta  occ. eigenvalues --  -10.18592 -10.12573 -10.12145 -10.12109 -10.11692
  Beta  occ. eigenvalues --  -10.11100 -10.10927 -10.10875 -10.08632 -10.08126
  Beta  occ. eigenvalues --   -7.83565  -5.79942  -5.79614  -5.78928  -0.95139
  Beta  occ. eigenvalues --   -0.94767  -0.83667  -0.82598  -0.70805  -0.69965
  Beta  occ. eigenvalues --   -0.68659  -0.64667  -0.63746  -0.55718  -0.54340
  Beta  occ. eigenvalues --   -0.52634  -0.50865  -0.49396  -0.45218  -0.42582
  Beta  occ. eigenvalues --   -0.42278  -0.41751  -0.38869  -0.38786  -0.36137
  Beta  occ. eigenvalues --   -0.36087  -0.35050  -0.34569  -0.33230  -0.32530
  Beta  occ. eigenvalues --   -0.32031  -0.31288  -0.30273  -0.29387  -0.28836
  Beta  occ. eigenvalues --   -0.28287  -0.27605  -0.26554  -0.25000  -0.24015
  Beta  occ. eigenvalues --   -0.23925  -0.21498  -0.17457  -0.17179  -0.15732
  Beta  occ. eigenvalues --   -0.14269  -0.13431
  Beta virt. eigenvalues --    0.06127   0.06819   0.07137   0.08081   0.08392
  Beta virt. eigenvalues --    0.08686   0.09076   0.09678   0.10016   0.10230
  Beta virt. eigenvalues --    0.10669   0.10898   0.11406   0.11954   0.12294

 Mulliken charges and spin densities:
               1          2
     1  C    1.386797  -1.449297
     2  C    0.451657  -0.763954
     3  O   -0.177179   0.066709
     4  C    0.750897  -1.150439
     5  C   -1.309085   0.990262
     6  N   -0.139602   0.077660
     7  C   -0.795728   0.878382
     8  O   -0.343255   0.001584
     9  C    1.316160  -1.589210
    10  C   -0.972975   1.073695
    11  C    0.064928  -0.981456
    12  S    0.176073   0.161356
    13  C   -0.528522  -0.451261
    14  C    0.120683  -0.163792
    15  N   -0.129597   0.022638
    16  H   -0.208541   0.347742
    17  H   -0.566602   0.740554
    18  H   -0.206931   0.360434
    19  H   -0.235221   0.396384
    20  H   -0.167042   0.318748
    21  H   -0.406429   0.612093
    22  H    0.455104  -0.246051
    23  H   -0.012459   0.324245
    24  H   -0.088876   0.237677
    25  H    0.390925  -0.262279
    26  H   -0.131286   0.367137
    27  H   -0.207738   0.403394
    28  H    0.152104   0.065927
    29  H    0.185211  -0.000054
    30  H   -0.014927   0.213879
    31  H   -0.063067   0.226195
    32  H   -0.035355   0.163114
    33  H    0.289878   0.007984
 Sum of Mulliken charges =  -1.00000   1.00000

 Dipole moment (field-independent basis, Debye):
    X=              6.0294    Y=             -0.0816    Z=             -0.3786  Tot=              6.0418
 Quadrupole moment (field-independent basis, Debye-Ang):
   XX=           -183.7620   YY=           -143.2721   ZZ=           -139.8261
   XY=             -0.6311   XZ=              6.0543   YZ=              0.0150

 Summary of Natural Population Analysis:

                                       Natural Population
                Natural  -----------------------------------------------
    Atom  No    Charge         Core      Valence    Rydberg      Total
 -----------------------------------------------------------------------
      C    1   -0.20459      0.99963     2.19639    0.00857     3.20459
      C    2   -0.00946      0.99961     1.99728    0.01257     3.00946
      O    3   -0.30066      0.99990     3.29148    0.00928     4.30066
      C    4   -0.00727      0.99957     1.99641    0.01129     3.00727
      C    5   -0.02653      0.99957     2.01440    0.01256     3.02653
      N    6   -0.31443      0.99965     2.80373    0.01105     3.81443
      C    7    0.35325      0.99967     1.62621    0.02086     2.64675
      O    8   -0.33483      0.99988     3.32921    0.00574     4.33483
      C    9   -0.25518      0.99956     2.24652    0.00910     3.25518
      C   10   -0.01559      0.99958     2.00005    0.01596     3.01559
      C   11   -0.24976      0.99956     2.23777    0.01242     3.24976
      S   12    0.08090      4.99964     2.90154    0.01792     7.91910
      C   13   -0.25072      0.99959     2.24202    0.00911     3.25072
      C   14   -0.09715      0.99961     2.08465    0.01289     3.09715
      N   15   -0.35191      0.99973     2.84087    0.01132     3.85191
      H   16    0.10077      0.00000     0.39642    0.00281     0.39923
      H   17    0.11024      0.00000     0.38738    0.00238     0.38976
      H   18    0.08848      0.00000     0.41002    0.00150     0.41152
      H   19    0.08400      0.00000     0.41431    0.00169     0.41600
      H   20    0.07809      0.00000     0.41987    0.00204     0.42191
      H   21    0.09402      0.00000     0.40388    0.00211     0.40598
      H   22    0.10272      0.00000     0.39476    0.00251     0.39728
      H   23    0.19605      0.00000     0.30102    0.00293     0.30395
      H   24    0.11696      0.00000     0.38071    0.00233     0.38304
      H   25    0.11516      0.00000     0.38299    0.00185     0.38484
      H   26    0.10427      0.00000     0.39403    0.00170     0.39573
      H   27    0.11005      0.00000     0.38871    0.00124     0.38995
      H   28    0.10400      0.00000     0.39455    0.00145     0.39600
      H   29    0.09930      0.00000     0.39910    0.00160     0.40070
      H   30    0.10601      0.00000     0.39289    0.00110     0.39399
      H   31    0.09682      0.00000     0.40198    0.00119     0.40318
      H   32    0.08317      0.00000     0.41512    0.00172     0.41683
      H   33    0.19379      0.00000     0.30383    0.00238     0.30621
 =======================================================================
   * Total *    0.00000     18.99475    42.79010    0.21515    62.00000

 Normal termination of Gaussian 16 at Thu Dec 10 17:50:37 2020.
