 Gaussian 16, Revision A.03,

 -----------------------------------------------------------
 # opt freq B3LYP/6-31G(d) empiricaldispersion=gd3bj scf=xqc
 -----------------------------------------------------------

 -------------------------------
 CID_144552410_JID_8878_neutraal
 -------------------------------
 Symbolic Z-matrix:
 Charge =  0 Multiplicity = 1

 SCF Done:  E(RB3LYP) =  -746.130317468     A.U. after   14 cycles
 SCF Done:  E(RB3LYP) =  -746.135095502     A.U. after   12 cycles
 SCF Done:  E(RB3LYP) =  -746.136068419     A.U. after   12 cycles
 SCF Done:  E(RB3LYP) =  -746.137633766     A.U. after   12 cycles
 SCF Done:  E(RB3LYP) =  -746.138614644     A.U. after   12 cycles
 SCF Done:  E(RB3LYP) =  -746.138855381     A.U. after   12 cycles
 SCF Done:  E(RB3LYP) =  -746.138962326     A.U. after   11 cycles
 SCF Done:  E(RB3LYP) =  -746.139053693     A.U. after   12 cycles
 SCF Done:  E(RB3LYP) =  -746.139109880     A.U. after   11 cycles
 SCF Done:  E(RB3LYP) =  -746.139142164     A.U. after   11 cycles
 SCF Done:  E(RB3LYP) =  -746.139453133     A.U. after   10 cycles
 SCF Done:  E(RB3LYP) =  -746.139453858     A.U. after    9 cycles
 SCF Done:  E(RB3LYP) =  -746.139453848     A.U. after    7 cycles
 SCF Done:  E(RB3LYP) =  -746.139454516     A.U. after   10 cycles
 SCF Done:  E(RB3LYP) =  -746.139455090     A.U. after   10 cycles
 Optimization completed.
    -- Stationary point found.
 Normal termination of Gaussian 16 at Fri Dec 11 22:47:55 2020.

 --------------------------------------------------------------------
 #N Geom=AllCheck Guess=TCheck SCRF=Check GenChk RB3LYP/6-31G(d) Freq
 --------------------------------------------------------------------

 Structure from the checkpoint file:  "JID_8878.chk"
 -------------------------------
 CID_144552410_JID_8878_neutraal
 -------------------------------
 Charge =  0 Multiplicity = 1

 SCF Done:  E(RB3LYP) =  -746.139455090     A.U. after    1 cycles

  Exact polarizability: 213.341 -19.244 179.622   6.765  -5.840 130.230
 Approx polarizability: 311.618 -32.366 285.383  20.861 -17.143 221.732

                      1                      2                      3
                      A                      A                      A
 Frequencies --     15.6676                20.1480                38.1510
 Red. masses --      4.6566                 4.1002                 4.1655
 Frc consts  --      0.0007                 0.0010                 0.0036
 IR Inten    --      0.2416                 0.4236                 0.2298

                      4                      5                      6
                      A                      A                      A
 Frequencies --     65.7472               107.3614               147.7091
 Red. masses --      3.9075                 3.6720                 3.0970
 Frc consts  --      0.0100                 0.0249                 0.0398
 IR Inten    --      0.1886                 1.5192                 2.2523

                      7                      8                      9
                      A                      A                      A
 Frequencies --    157.6947               186.9057               200.6590
 Red. masses --      2.0508                 1.4103                 4.7625
 Frc consts  --      0.0300                 0.0290                 0.1130
 IR Inten    --      2.7003                 0.6890                 1.8130

                     10                     11                     12
                      A                      A                      A
 Frequencies --    223.7965               235.3824               268.7260
 Red. masses --      3.7167                 4.2270                 2.9579
 Frc consts  --      0.1097                 0.1380                 0.1258
 IR Inten    --      5.7924                 1.0468                 2.0480

                     13                     14                     15
                      A                      A                      A
 Frequencies --    277.1414               298.3583               330.3725
 Red. masses --      3.6986                 1.0679                 2.7227
 Frc consts  --      0.1674                 0.0560                 0.1751
 IR Inten    --      1.6241                20.0189                 0.8789

                     16                     17                     18
                      A                      A                      A
 Frequencies --    377.1722               423.4402               445.9569
 Red. masses --      3.2281                 2.7622                 3.1023
 Frc consts  --      0.2706                 0.2918                 0.3635
 IR Inten    --      5.5161                 0.1985                 4.1440

                     19                     20                     21
                      A                      A                      A
 Frequencies --    450.1657               504.7522               507.1659
 Red. masses --      3.0832                 3.2393                 4.2881
 Frc consts  --      0.3681                 0.4863                 0.6498
 IR Inten    --      7.4279                 7.7502                 8.0510

                     22                     23                     24
                      A                      A                      A
 Frequencies --    537.0537               555.5186               563.6207
 Red. masses --      6.1113                 3.3469                 3.6480
 Frc consts  --      1.0385                 0.6085                 0.6828
 IR Inten    --     15.0966                22.4704                 5.7575

                     25                     26                     27
                      A                      A                      A
 Frequencies --    577.2305               619.5267               654.1088
 Red. masses --      3.5194                 1.8352                 2.8665
 Frc consts  --      0.6909                 0.4150                 0.7226
 IR Inten    --     53.9577               193.0854                62.9234

                     28                     29                     30
                      A                      A                      A
 Frequencies --    692.0182               714.1362               724.8662
 Red. masses --      2.9842                 2.8501                 1.3211
 Frc consts  --      0.8420                 0.8564                 0.4090
 IR Inten    --     11.1046                 8.7330                26.0580

                     31                     32                     33
                      A                      A                      A
 Frequencies --    760.3159               771.8207               787.7211
 Red. masses --      2.9069                 3.4395                 3.0373
 Frc consts  --      0.9901                 1.2072                 1.1104
 IR Inten    --     12.3161                 5.5420                10.6489

                     34                     35                     36
                      A                      A                      A
 Frequencies --    798.7407               807.1912               845.2459
 Red. masses --      1.7736                 1.5770                 1.3744
 Frc consts  --      0.6667                 0.6054                 0.5785
 IR Inten    --     27.3988                59.4220                31.3624

                     37                     38                     39
                      A                      A                      A
 Frequencies --    857.1359               869.3619               870.8110
 Red. masses --      1.4474                 1.6472                 1.4582
 Frc consts  --      0.6265                 0.7335                 0.6515
 IR Inten    --     36.2147                 8.7348                 5.5135

                     40                     41                     42
                      A                      A                      A
 Frequencies --    908.1668               937.0065               960.1576
 Red. masses --      2.3071                 1.7616                 1.2747
 Frc consts  --      1.1211                 0.9113                 0.6924
 IR Inten    --      3.8646                 4.3666                 0.2432

                     43                     44                     45
                      A                      A                      A
 Frequencies --    963.4463               967.1515               976.0080
 Red. masses --      1.8289                 1.8513                 1.4493
 Frc consts  --      1.0002                 1.0203                 0.8134
 IR Inten    --     16.3417                 6.3915                 0.7827

                     46                     47                     48
                      A                      A                      A
 Frequencies --    983.1320              1016.1527              1017.0852
 Red. masses --      2.1655                 7.3510                 5.9998
 Frc consts  --      1.2332                 4.4721                 3.6568
 IR Inten    --      5.5923                 1.5350                 4.5581

                     49                     50                     51
                      A                      A                      A
 Frequencies --   1093.1747              1103.1222              1132.0307
 Red. masses --      1.7847                 1.6256                 1.8880
 Frc consts  --      1.2566                 1.1655                 1.4255
 IR Inten    --      4.5178                 2.3643                10.1040

                     52                     53                     54
                      A                      A                      A
 Frequencies --   1147.6479              1154.0898              1165.1195
 Red. masses --      1.3723                 1.9113                 1.4805
 Frc consts  --      1.0649                 1.4999                 1.1841
 IR Inten    --      2.6445                19.5836                35.7812

                     55                     56                     57
                      A                      A                      A
 Frequencies --   1177.8529              1204.2854              1206.0187
 Red. masses --      1.5184                 1.1949                 1.4844
 Frc consts  --      1.2411                 1.0210                 1.2721
 IR Inten    --      0.9575                 2.8200                12.3679

                     58                     59                     60
                      A                      A                      A
 Frequencies --   1208.7468              1253.5652              1302.8249
 Red. masses --      1.1889                 2.5312                 2.7507
 Frc consts  --      1.0234                 2.3435                 2.7508
 IR Inten    --      4.6085                 4.7112                 1.0602

                     61                     62                     63
                      A                      A                      A
 Frequencies --   1327.6188              1335.3798              1351.3760
 Red. masses --      1.9600                 2.9117                 1.8138
 Frc consts  --      2.0354                 3.0592                 1.9516
 IR Inten    --      1.5503                38.5966                 2.3454

                     64                     65                     66
                      A                      A                      A
 Frequencies --   1366.6546              1379.4921              1389.6601
 Red. masses --      1.5900                 3.9516                 3.2467
 Frc consts  --      1.7497                 4.4306                 3.6941
 IR Inten    --      6.8098                 8.4956                50.7627

                     67                     68                     69
                      A                      A                      A
 Frequencies --   1417.5509              1448.2730              1487.2456
 Red. masses --      1.3129                 2.3855                 1.1862
 Frc consts  --      1.5544                 2.9481                 1.5458
 IR Inten    --      0.1798                22.1382                 1.5157

                     70                     71                     72
                      A                      A                      A
 Frequencies --   1503.5309              1508.9406              1517.4369
 Red. masses --      1.1780                 1.2797                 2.4597
 Frc consts  --      1.5690                 1.7167                 3.3370
 IR Inten    --      5.8949                 6.8165                21.4178

                     73                     74                     75
                      A                      A                      A
 Frequencies --   1521.9764              1526.4244              1549.2917
 Red. masses --      1.0725                 2.3584                 2.5117
 Frc consts  --      1.4637                 3.2376                 3.5520
 IR Inten    --      9.5338                16.0836                26.5090

                     76                     77                     78
                      A                      A                      A
 Frequencies --   1552.1510              1619.0426              1648.6723
 Red. masses --      1.0571                 6.6171                 5.4976
 Frc consts  --      1.5005                10.2196                 8.8042
 IR Inten    --      6.4645                45.3733                72.4744

                     79                     80                     81
                      A                      A                      A
 Frequencies --   1653.2482              1671.1762              1695.4435
 Red. masses --      5.3943                 3.8298                 1.2862
 Frc consts  --      8.6868                 6.3020                 2.1783
 IR Inten    --     82.9900                44.8672               132.7008

                     82                     83                     84
                      A                      A                      A
 Frequencies --   1707.5380              3001.7274              3041.1794
 Red. masses --      5.0065                 1.0552                 1.0596
 Frc consts  --      8.6005                 5.6019                 5.7741
 IR Inten    --     35.0146                77.8586                25.3209

                     85                     86                     87
                      A                      A                      A
 Frequencies --   3076.8031              3106.2415              3151.2463
 Red. masses --      1.1030                 1.0814                 1.1018
 Frc consts  --      6.1523                 6.1475                 6.4462
 IR Inten    --     13.5697                24.9798                19.9894

                     88                     89                     90
                      A                      A                      A
 Frequencies --   3162.2250              3167.1896              3172.8664
 Red. masses --      1.0885                 1.0897                 1.0631
 Frc consts  --      6.4132                 6.4402                 6.3054
 IR Inten    --     33.9835                18.2351                14.3891

                     91                     92                     93
                      A                      A                      A
 Frequencies --   3175.5051              3189.2310              3195.7472
 Red. masses --      1.0865                 1.0899                 1.0936
 Frc consts  --      6.4551                 6.5315                 6.5803
 IR Inten    --      9.3767                19.9948                26.5320

                     94                     95                     96
                      A                      A                      A
 Frequencies --   3204.4094              3229.9880              3277.4539
 Red. masses --      1.0961                 1.0906                 1.1121
 Frc consts  --      6.6312                 6.7037                 7.0386
 IR Inten    --     16.9623                 0.6557                 4.9119

                     97                     98                     99
                      A                      A                      A
 Frequencies --   3533.2318              3551.1580              3650.0247
 Red. masses --      1.0745                 1.0478                 1.0981
 Frc consts  --      7.9030                 7.7855                 8.6197
 IR Inten    --      0.5344                13.7580                 8.1446

 - Thermochemistry -
 -------------------
 Temperature   298.150 Kelvin.  Pressure   1.00000 Atm.
 Atom     1 has atomic number  6 and mass  12.00000

 Molecular mass:   239.14225 amu.
 Principal axes and moments of inertia in atomic units:
                           1         2         3
     Eigenvalues --  2743.895176647.869458184.09657
           X            0.99999   0.00338   0.00326
           Y           -0.00341   0.99993   0.01089
           Z           -0.00322  -0.01090   0.99994
 This molecule is an asymmetric top.
 Rotational symmetry number  1.
 Warning -- assumption of classical behavior for rotation
           may cause significant error
 Rotational temperatures (Kelvin)      0.03157     0.01303     0.01058
 Rotational constants (GHZ):           0.65773     0.27148     0.22052
 Zero-point vibrational energy     772967.3 (Joules/Mol)
                                  184.74361 (Kcal/Mol)
 Warning -- explicit consideration of  26 degrees of freedom as
           vibrations may cause significant error
 Vibrational temperatures:     22.54    28.99    54.89    94.60   154.47
          (Kelvin)            212.52   226.89   268.92   288.70   321.99
                              338.66   386.64   398.74   429.27   475.33
                              542.67   609.24   641.63   647.69   726.23
                              729.70   772.70   799.27   810.92   830.51
                              891.36   941.12   995.66  1027.48  1042.92
                             1093.93  1110.48  1133.35  1149.21  1161.37
                             1216.12  1233.23  1250.82  1252.90  1306.65
                             1348.14  1381.45  1386.18  1391.52  1404.26
                             1414.51  1462.02  1463.36  1572.83  1587.15
                             1628.74  1651.21  1660.48  1676.35  1694.67
                             1732.70  1735.19  1739.12  1803.60  1874.47
                             1910.15  1921.31  1944.33  1966.31  1984.78
                             1999.41  2039.54  2083.74  2139.81  2163.25
                             2171.03  2183.25  2189.78  2196.18  2229.09
                             2233.20  2329.44  2372.07  2378.66  2404.45
                             2439.37  2456.77  4318.82  4375.58  4426.83
                             4469.19  4533.94  4549.74  4556.88  4565.05
                             4568.84  4588.59  4597.97  4610.43  4647.23
                             4715.53  5083.53  5109.32  5251.57

 Zero-point correction=                           0.294408 (Hartree/Particle)
 Thermal correction to Energy=                    0.310916
 Thermal correction to Enthalpy=                  0.311860
 Thermal correction to Gibbs Free Energy=         0.248293
 Sum of electronic and zero-point Energies=           -745.845047
 Sum of electronic and thermal Energies=              -745.828539
 Sum of electronic and thermal Enthalpies=            -745.827595
 Sum of electronic and thermal Free Energies=         -745.891162

                     E (Thermal)             CV                S
                      KCal/Mol        Cal/Mol-Kelvin    Cal/Mol-Kelvin
 Total                  195.103             64.340            133.788
 Electronic               0.000              0.000              0.000
 Translational            0.889              2.981             42.317
 Rotational               0.889              2.981             33.367
 Vibrational            193.325             58.378             58.104
 Vibration     1          0.593              1.986              7.119
 Vibration     2          0.593              1.986              6.620
 Vibration     3          0.594              1.982              5.353
 Vibration     4          0.597              1.971              4.277
 Vibration     5          0.606              1.943              3.316
 Vibration     6          0.617              1.905              2.702
 Vibration     7          0.621              1.894              2.577
 Vibration     8          0.632              1.858              2.258
 Vibration     9          0.638              1.839              2.127
 Vibration    10          0.649              1.805              1.928
 Vibration    11          0.655              1.787              1.838
 Vibration    12          0.673              1.731              1.604
 Vibration    13          0.678              1.716              1.551
 Vibration    14          0.691              1.677              1.426
 Vibration    15          0.713              1.615              1.258
 Vibration    16          0.748              1.519              1.050
 Vibration    17          0.786              1.419              0.880
 Vibration    18          0.805              1.370              0.808
 Vibration    19          0.809              1.361              0.795
 Vibration    20          0.860              1.239              0.646
 Vibration    21          0.862              1.234              0.640
 Vibration    22          0.892              1.168              0.572
 Vibration    23          0.911              1.128              0.533
 Vibration    24          0.919              1.110              0.517
 Vibration    25          0.934              1.081              0.491
 Vibration    26          0.979              0.991              0.417

 Optimization completed.
    -- Stationary point found.
 Normal termination of Gaussian 16 at Fri Dec 11 23:04:37 2020.

 ----------------------------------------------------------------------
 # B3LYP/6-311++G(d,p) empiricaldispersion=gd3bj scf=xqc pop=npa geom=c
 heck
 ----------------------------------------------------------------------

 ---------------------------------------
 CID_144552410_JID_8878_Energie_neutraal
 ---------------------------------------
 Structure from the checkpoint file:  "JID_8878.chk"
 Charge =  0 Multiplicity = 1

 SCF Done:  E(RB3LYP) =  -746.343986690     A.U. after   15 cycles
 Normal termination of Gaussian 16 at Fri Dec 11 23:11:51 2020.

 ----------------------------------------------------------------------
 # B3LYP/6-311++G(d,p) empiricaldispersion=gd3bj scf=xqc pop=npa geom=c
 heck
 ----------------------------------------------------------------------

 -------------------------------------
 CID_144552410_JID_8878_Energie_kation
 -------------------------------------
 Structure from the checkpoint file:  "JID_8878.chk"
 Charge =  1 Multiplicity = 2

 SCF Done:  E(UB3LYP) =  -746.078429318     A.U. after   25 cycles
 Normal termination of Gaussian 16 at Fri Dec 11 23:28:51 2020.
 Gaussian 16:  ES64L-G16RevA.03 25-Dec-2016

 ----------------------------------------------------------------------
 # B3LYP/6-311++G(d,p) empiricaldispersion=gd3bj scf=xqc pop=npa geom=c
 heck
 ----------------------------------------------------------------------

 ------------------------------------
 CID_144552410_JID_8878_Energie_anion
 ------------------------------------
 Structure from the checkpoint file:  "JID_8878.chk"
 Charge = -1 Multiplicity = 2

                         Standard orientation:
 ---------------------------------------------------------------------
 Center     Atomic      Atomic             Coordinates (Angstroms)
 Number     Number       Type             X           Y           Z
 ---------------------------------------------------------------------
      1          6           0        0.931863    2.518711    0.957466
      2          7           0        1.724893    2.416479   -0.273666
      3          6           0        2.782201    1.477577   -0.284138
      4          6           0        4.066240    1.819679   -0.480408
      5          6           0        2.376068    0.050735   -0.173920
      6          7           0        3.310022   -0.830325    0.236119
      7          6           0        2.947161   -2.109121    0.335854
      8          6           0        1.659530   -2.580657    0.069485
      9          6           0        0.690270   -1.674698   -0.362316
     10          6           0        1.072504   -0.339126   -0.498552
     11          6           0       -0.732453   -2.102393   -0.667083
     12          6           0       -1.757510   -1.138226   -0.104362
     13          6           0       -2.600326   -0.424063   -0.953395
     14          6           0       -3.528351    0.503439   -0.448473
     15          6           0       -3.594913    0.703052    0.938116
     16          6           0       -2.750824   -0.010400    1.786917
     17          6           0       -1.833845   -0.927807    1.279226
     18          7           0       -4.322847    1.254230   -1.318822
     19          1           0        1.532601    2.800176    1.836984
     20          1           0        0.443596    1.564992    1.170312
     21          1           0        0.148265    3.267490    0.808737
     22          1           0        2.075771    3.331662   -0.539582
     23          1           0        4.824880    1.055536   -0.590374
     24          1           0        4.370322    2.860462   -0.554360
     25          1           0        3.722583   -2.799580    0.665178
     26          1           0        1.421287   -3.632317    0.203708
     27          1           0        0.364742    0.405215   -0.843913
     28          1           0       -0.862513   -2.180161   -1.754218
     29          1           0       -0.896646   -3.109168   -0.263394
     30          1           0       -2.534533   -0.577419   -2.028807
     31          1           0       -4.303204    1.421121    1.344360
     32          1           0       -2.814244    0.153142    2.859430
     33          1           0       -1.171085   -1.471960    1.945834
     34          1           0       -5.181221    1.605319   -0.912710
     35          1           0       -4.490762    0.822595   -2.219103
 ---------------------------------------------------------------------

 SCF Done:  E(UB3LYP) =  -746.340106699     A.U. after   33 cycles
 SCF Done:  E(UB3LYP) =  -746.340106699     a.u. after    1 cycles

 The electronic state is 2-A.
 Alpha  occ. eigenvalues --  -14.21404 -14.20645 -14.17445 -10.11118 -10.08878
 Alpha  occ. eigenvalues --  -10.08617 -10.08319 -10.07926 -10.07785 -10.07542
 Alpha  occ. eigenvalues --  -10.07280 -10.07034 -10.06461 -10.06219 -10.06032
 Alpha  occ. eigenvalues --  -10.05156 -10.05101 -10.02961  -0.82525  -0.81752
 Alpha  occ. eigenvalues --   -0.80589  -0.74560  -0.70444  -0.66169  -0.65364
 Alpha  occ. eigenvalues --   -0.62705  -0.61981  -0.58781  -0.55894  -0.51599
 Alpha  occ. eigenvalues --   -0.50950  -0.50560  -0.48312  -0.43855  -0.41400
 Alpha  occ. eigenvalues --   -0.40687  -0.39206  -0.38075  -0.37463  -0.36364
 Alpha  occ. eigenvalues --   -0.35620  -0.34469  -0.33215  -0.32482  -0.31781
 Alpha  occ. eigenvalues --   -0.30972  -0.30365  -0.29410  -0.28993  -0.28424
 Alpha  occ. eigenvalues --   -0.27387  -0.27255  -0.26821  -0.25024  -0.24102
 Alpha  occ. eigenvalues --   -0.23031  -0.20888  -0.19880  -0.16253  -0.14738
 Alpha  occ. eigenvalues --   -0.14080  -0.13435  -0.10759  -0.10246   0.04127
 Alpha virt. eigenvalues --    0.05489   0.07502   0.07546   0.08009   0.08643
 Alpha virt. eigenvalues --    0.08903   0.09045   0.09587   0.09830   0.10179
 Alpha virt. eigenvalues --    0.10461   0.11036   0.11899   0.12165   0.12429

  Beta  occ. eigenvalues --  -14.21343 -14.20637 -14.17249 -10.11101 -10.08878
  Beta  occ. eigenvalues --  -10.08665 -10.08298 -10.07917 -10.07601 -10.07550
  Beta  occ. eigenvalues --  -10.07247 -10.06918 -10.06446 -10.06186 -10.06039
  Beta  occ. eigenvalues --  -10.05143 -10.05014 -10.02820  -0.82293  -0.81673
  Beta  occ. eigenvalues --   -0.80438  -0.74495  -0.70243  -0.65949  -0.65239
  Beta  occ. eigenvalues --   -0.62625  -0.61817  -0.58698  -0.55800  -0.51232
  Beta  occ. eigenvalues --   -0.50892  -0.50488  -0.48245  -0.43689  -0.41334
  Beta  occ. eigenvalues --   -0.40627  -0.39110  -0.37984  -0.37382  -0.36285
  Beta  occ. eigenvalues --   -0.35495  -0.34382  -0.33158  -0.32429  -0.31722
  Beta  occ. eigenvalues --   -0.30882  -0.30277  -0.29347  -0.28786  -0.28373
  Beta  occ. eigenvalues --   -0.27230  -0.26939  -0.26635  -0.24951  -0.24015
  Beta  occ. eigenvalues --   -0.22923  -0.20791  -0.19439  -0.15582  -0.14422
  Beta  occ. eigenvalues --   -0.13691  -0.13151  -0.10633  -0.09624
  Beta virt. eigenvalues --    0.06761   0.07403   0.07647   0.08032   0.08060
  Beta virt. eigenvalues --    0.08840   0.09182   0.09388   0.09705   0.09971
  Beta virt. eigenvalues --    0.10193   0.10602   0.11079   0.11994   0.12240

 Mulliken charges and spin densities:
               1          2
     1  C   -0.398445  -0.012711
     2  N   -0.120100   0.002992
     3  C    0.058535  -0.030383
     4  C   -0.550913   0.167807
     5  C   -1.213575   0.086438
     6  N    0.029119   0.094656
     7  C   -0.043330  -0.055358
     8  C   -0.331409   0.072194
     9  C    0.996185   0.169996
    10  C   -0.059612   0.074643
    11  C   -0.239783  -0.959265
    12  C    1.216150   0.070731
    13  C    0.372709  -0.530430
    14  C   -0.136638  -0.215216
    15  C   -0.386441   0.217387
    16  C   -0.201452  -0.060364
    17  C   -0.831969   0.245236
    18  N   -0.231755  -0.059049
    19  H    0.118673  -0.000920
    20  H    0.158971   0.002637
    21  H    0.130899   0.000868
    22  H    0.219785   0.015821
    23  H    0.153379  -0.003674
    24  H    0.074723  -0.009865
    25  H    0.142444   0.002423
    26  H    0.116139   0.002753
    27  H    0.272939  -0.007633
    28  H    0.067477   0.095496
    29  H    0.148845   0.003189
    30  H   -0.150655   0.303627
    31  H   -0.143043   0.276573
    32  H    0.132986   0.019267
    33  H    0.155920   0.000801
    34  H   -0.300948   0.546327
    35  H   -0.225810   0.473008
 Sum of Mulliken charges =  -1.00000   1.00000

 Dipole moment (field-independent basis, Debye):
    X=              2.6243    Y=             -1.1606    Z=              3.3724  Tot=              4.4279
 Quadrupole moment (field-independent basis, Debye-Ang):
   XX=           -203.3134   YY=           -127.1585   ZZ=           -130.7612
   XY=              9.1008   XZ=            -13.4331   YZ=              3.1175

 Summary of Natural Population Analysis:

                                       Natural Population
                Natural  -----------------------------------------------
    Atom  No    Charge         Core      Valence    Rydberg      Total
 -----------------------------------------------------------------------
      C    1   -0.17874      0.99965     2.17271    0.00637     3.17874
      N    2   -0.32580      0.99971     2.81592    0.01017     3.82580
      C    3    0.07629      0.99947     1.91255    0.01169     2.92371
      C    4   -0.19283      0.99954     2.18626    0.00703     3.19283
      C    5    0.11217      0.99948     1.87080    0.01755     2.88783
      N    6   -0.21070      0.99969     2.70127    0.00975     3.71070
      C    7    0.01891      0.99960     1.96765    0.01384     2.98109
      C    8   -0.10824      0.99950     2.10112    0.00761     3.10824
      C    9    0.01958      0.99950     1.96979    0.01113     2.98042
      C   10   -0.12690      0.99947     2.11878    0.00866     3.12690
      C   11   -0.20557      0.99957     2.19638    0.00963     3.20557
      C   12   -0.00008      0.99951     1.99029    0.01028     3.00008
      C   13   -0.12175      0.99946     2.11258    0.00970     3.12175
      C   14    0.09170      0.99949     1.89733    0.01148     2.90830
      C   15   -0.13380      0.99952     2.12409    0.01020     3.13380
      C   16   -0.08624      0.99957     2.07729    0.00939     3.08624
      C   17   -0.12794      0.99950     2.11921    0.00922     3.12794
      N   18   -0.39437      0.99971     2.88409    0.01057     3.89437
      H   19    0.07773      0.00000     0.42061    0.00166     0.42227
      H   20    0.10376      0.00000     0.39537    0.00087     0.39624
      H   21    0.09147      0.00000     0.40772    0.00081     0.40853
      H   22    0.17237      0.00000     0.32540    0.00223     0.32763
      H   23    0.10305      0.00000     0.39591    0.00105     0.39695
      H   24    0.08149      0.00000     0.41734    0.00117     0.41851
      H   25    0.08115      0.00000     0.41757    0.00129     0.41885
      H   26    0.09417      0.00000     0.40490    0.00094     0.40583
      H   27    0.11201      0.00000     0.38660    0.00139     0.38799
      H   28    0.10794      0.00000     0.39098    0.00107     0.39206
      H   29    0.10254      0.00000     0.39623    0.00124     0.39746
      H   30    0.09847      0.00000     0.39995    0.00158     0.40153
      H   31    0.09781      0.00000     0.40128    0.00091     0.40219
      H   32    0.09578      0.00000     0.40347    0.00075     0.40422
      H   33    0.10051      0.00000     0.39846    0.00103     0.39949
      H   34    0.18633      0.00000     0.30934    0.00433     0.31367
      H   35    0.18775      0.00000     0.30767    0.00458     0.31225
 =======================================================================
   * Total *    0.00000     17.99195    45.79690    0.21115    64.00000

 Normal termination of Gaussian 16 at Fri Dec 11 23:51:49 2020.
