 Gaussian 16, Revision A.03,

 -----------------------------------------------------------
 # opt freq B3LYP/6-31G(d) empiricaldispersion=gd3bj scf=xqc
 -----------------------------------------------------------

 ------------------------------
 CID_117218248_JID_915_neutraal
 ------------------------------
 Symbolic Z-matrix:
 Charge =  0 Multiplicity = 1

 SCF Done:  E(RB3LYP) =  -832.430412318     A.U. after   16 cycles
 SCF Done:  E(RB3LYP) =  -832.435823047     A.U. after   13 cycles
 SCF Done:  E(RB3LYP) =  -832.436632138     A.U. after   12 cycles
 SCF Done:  E(RB3LYP) =  -832.437062284     A.U. after   13 cycles
 SCF Done:  E(RB3LYP) =  -832.437248504     A.U. after   12 cycles
 SCF Done:  E(RB3LYP) =  -832.437340921     A.U. after   12 cycles
 SCF Done:  E(RB3LYP) =  -832.437389644     A.U. after   11 cycles
 SCF Done:  E(RB3LYP) =  -832.437404629     A.U. after   11 cycles
 SCF Done:  E(RB3LYP) =  -832.437411880     A.U. after    9 cycles
 SCF Done:  E(RB3LYP) =  -832.437416425     A.U. after   10 cycles
 SCF Done:  E(RB3LYP) =  -832.437418993     A.U. after    9 cycles
 SCF Done:  E(RB3LYP) =  -832.437419401     A.U. after    9 cycles
 SCF Done:  E(RB3LYP) =  -832.437419761     A.U. after    9 cycles
 SCF Done:  E(RB3LYP) =  -832.437419919     A.U. after    9 cycles
 SCF Done:  E(RB3LYP) =  -832.437419967     A.U. after    8 cycles
 Optimization completed.
    -- Stationary point found.
 Normal termination of Gaussian 16 at Tue Dec  8 14:13:46 2020.

 --------------------------------------------------------------------
 #N Geom=AllCheck Guess=TCheck SCRF=Check GenChk RB3LYP/6-31G(d) Freq
 --------------------------------------------------------------------

 Structure from the checkpoint file:  "JID_915.chk"
 ------------------------------
 CID_117218248_JID_915_neutraal
 ------------------------------
 Charge =  0 Multiplicity = 1

 SCF Done:  E(RB3LYP) =  -832.437419967     A.U. after    1 cycles

  Exact polarizability: 112.837  -3.093 105.376  -0.618  -4.936  45.863
 Approx polarizability: 167.826  -9.184 196.863  -5.464 -11.829  71.659

                      1                      2                      3
                      A                      A                      A
 Frequencies --     30.9276               121.1943               130.9580
 Red. masses --      4.8445                 4.8092                 4.3055
 Frc consts  --      0.0027                 0.0416                 0.0435
 IR Inten    --      2.2086                 2.3134                 3.9731

                      4                      5                      6
                      A                      A                      A
 Frequencies --    154.4706               196.3758               257.5195
 Red. masses --      3.3655                 1.2763                 3.0281
 Frc consts  --      0.0473                 0.0290                 0.1183
 IR Inten    --      0.6932                 1.8191                 2.5559

                      7                      8                      9
                      A                      A                      A
 Frequencies --    286.9853               307.6935               346.0077
 Red. masses --      5.8584                 1.1389                 5.4429
 Frc consts  --      0.2843                 0.0635                 0.3839
 IR Inten    --      5.4672                45.8379                 3.0149

                     10                     11                     12
                      A                      A                      A
 Frequencies --    427.4264               460.7634               516.7377
 Red. masses --      3.7452                 4.4591                 2.8027
 Frc consts  --      0.4031                 0.5578                 0.4409
 IR Inten    --      4.5676                 9.9668                24.4861

                     13                     14                     15
                      A                      A                      A
 Frequencies --    574.6332               591.9009               628.9235
 Red. masses --      1.8533                 7.9482                 4.2044
 Frc consts  --      0.3606                 1.6407                 0.9798
 IR Inten    --     54.1831                30.8287                36.2080

                     16                     17                     18
                      A                      A                      A
 Frequencies --    643.2887               728.2702               750.1351
 Red. masses --      2.0088                 2.0465                 6.1680
 Frc consts  --      0.4898                 0.6395                 2.0449
 IR Inten    --    121.7266               119.7854                75.8988

                     19                     20                     21
                      A                      A                      A
 Frequencies --    768.3156               826.9529               832.9800
 Red. masses --      5.8907                 5.0772                 1.9262
 Frc consts  --      2.0488                 2.0457                 0.7874
 IR Inten    --     10.3881                43.5295                25.1040

                     22                     23                     24
                      A                      A                      A
 Frequencies --    971.1741              1026.2601              1122.7759
 Red. masses --      4.4982                 2.5283                 1.7920
 Frc consts  --      2.4997                 1.5689                 1.3310
 IR Inten    --     25.7090                14.5505                17.4569

                     25                     26                     27
                      A                      A                      A
 Frequencies --   1148.6834              1161.3698              1206.3832
 Red. masses --      2.0476                 1.2977                 2.2566
 Frc consts  --      1.5919                 1.0312                 1.9350
 IR Inten    --     18.1525                 6.6409                11.2587

                     28                     29                     30
                      A                      A                      A
 Frequencies --   1252.5290              1384.4918              1469.3668
 Red. masses --      1.5400                 2.9408                 4.3184
 Frc consts  --      1.4235                 3.3212                 5.4933
 IR Inten    --     19.5425               152.0871                96.2302

                     31                     32                     33
                      A                      A                      A
 Frequencies --   1481.2149              1484.4901              1505.5018
 Red. masses --      2.1646                 2.0039                 1.6234
 Frc consts  --      2.7981                 2.6019                 2.1680
 IR Inten    --     89.8684                 6.3362                94.8730

                     34                     35                     36
                      A                      A                      A
 Frequencies --   1523.3250              1553.3003              1617.0371
 Red. masses --      1.1314                 1.0785                 4.3006
 Frc consts  --      1.5469                 1.5331                 6.6255
 IR Inten    --     19.7488                35.3108                87.7145

                     37                     38                     39
                      A                      A                      A
 Frequencies --   1679.4206              1753.0806              3037.3321
 Red. masses --      1.2758                 7.7739                 1.0466
 Frc consts  --      2.1201                14.0765                 5.6886
 IR Inten    --    132.6987               268.5738                44.0888

                     40                     41                     42
                      A                      A                      A
 Frequencies --   3113.2866              3151.2204              3254.3125
 Red. masses --      1.0893                 1.1049                 1.0935
 Frc consts  --      6.2208                 6.4646                 6.8234
 IR Inten    --     23.8359                16.6712                 2.1549

                     43                     44                     45
                      A                      A                      A
 Frequencies --   3544.5713              3607.6532              3647.0254
 Red. masses --      1.0477                 1.0761                 1.0980
 Frc consts  --      7.7555                 8.2517                 8.6049
 IR Inten    --     19.8106                39.3736                17.5608

 - Thermochemistry -
 -------------------
 Temperature   298.150 Kelvin.  Pressure   1.00000 Atm.
 Atom     1 has atomic number  6 and mass  12.00000

 Molecular mass:   157.03098 amu.
 Principal axes and moments of inertia in atomic units:
                           1         2         3
     Eigenvalues --   939.131202093.050312946.53941
           X            0.99977   0.01851   0.01110
           Y           -0.01852   0.99983   0.00098
           Z           -0.01108  -0.00119   0.99994
 This molecule is an asymmetric top.
 Rotational symmetry number  1.
 Warning -- assumption of classical behavior for rotation
           may cause significant error
 Rotational temperatures (Kelvin)      0.09223     0.04138     0.02940
 Rotational constants (GHZ):           1.92171     0.86225     0.61250
 Zero-point vibrational energy     336618.8 (Joules/Mol)
                                   80.45382 (Kcal/Mol)
 Warning -- explicit consideration of  14 degrees of freedom as
           vibrations may cause significant error
 Vibrational temperatures:     44.50   174.37   188.42   222.25   282.54
          (Kelvin)            370.51   412.91   442.70   497.83   614.97
                              662.94   743.47   826.77   851.61   904.88
                              925.55  1047.82  1079.28  1105.43  1189.80
                             1198.47  1397.30  1476.56  1615.42  1652.70
                             1670.95  1735.72  1802.11  1991.97  2114.09
                             2131.14  2135.85  2166.08  2191.72  2234.85
                             2326.56  2416.31  2522.29  4370.04  4479.33
                             4533.90  4682.23  5099.85  5190.61  5247.26

 Zero-point correction=                           0.128211 (Hartree/Particle)
 Thermal correction to Energy=                    0.138190
 Thermal correction to Enthalpy=                  0.139134
 Thermal correction to Gibbs Free Energy=         0.092028
 Sum of electronic and zero-point Energies=           -832.309209
 Sum of electronic and thermal Energies=              -832.299230
 Sum of electronic and thermal Enthalpies=            -832.298286
 Sum of electronic and thermal Free Energies=         -832.345392

                     E (Thermal)             CV                S
                      KCal/Mol        Cal/Mol-Kelvin    Cal/Mol-Kelvin
 Total                   86.715             36.207             99.142
 Electronic               0.000              0.000              0.000
 Translational            0.889              2.981             41.063
 Rotational               0.889              2.981             30.139
 Vibrational             84.938             30.245             27.940
 Vibration     1          0.594              1.984              5.769
 Vibration     2          0.609              1.932              3.081
 Vibration     3          0.612              1.922              2.932
 Vibration     4          0.620              1.898              2.616
 Vibration     5          0.636              1.845              2.167
 Vibration     6          0.667              1.750              1.679
 Vibration     7          0.684              1.698              1.492
 Vibration     8          0.698              1.659              1.375
 Vibration     9          0.724              1.583              1.184
 Vibration    10          0.789              1.411              0.867
 Vibration    11          0.819              1.337              0.764
 Vibration    12          0.872              1.213              0.618
 Vibration    13          0.931              1.086              0.495
 Vibration    14          0.949              1.049              0.464

 Optimization completed.
    -- Stationary point found.
 Normal termination of Gaussian 16 at Tue Dec  8 14:16:57 2020.

 ----------------------------------------------------------------------
 # B3LYP/6-311++G(d,p) empiricaldispersion=gd3bj scf=xqc pop=npa geom=c
 heck
 ----------------------------------------------------------------------

 --------------------------------------
 CID_117218248_JID_915_Energie_neutraal
 --------------------------------------
 Structure from the checkpoint file:  "JID_915.chk"
 Charge =  0 Multiplicity = 1

 SCF Done:  E(RB3LYP) =  -832.597738140     A.U. after   16 cycles
 Normal termination of Gaussian 16 at Tue Dec  8 14:19:30 2020.

 ----------------------------------------------------------------------
 # B3LYP/6-311++G(d,p) empiricaldispersion=gd3bj scf=xqc pop=npa geom=c
 heck
 ----------------------------------------------------------------------

 ------------------------------------
 CID_117218248_JID_915_Energie_kation
 ------------------------------------
 Structure from the checkpoint file:  "JID_915.chk"
 Charge =  1 Multiplicity = 2

 SCF Done:  E(UB3LYP) =  -832.289126313     A.U. after   26 cycles
 Normal termination of Gaussian 16 at Tue Dec  8 14:25:53 2020.
 Gaussian 16:  ES64L-G16RevA.03 25-Dec-2016

 ----------------------------------------------------------------------
 # B3LYP/6-311++G(d,p) empiricaldispersion=gd3bj scf=xqc pop=npa geom=c
 heck
 ----------------------------------------------------------------------

 -----------------------------------
 CID_117218248_JID_915_Energie_anion
 -----------------------------------
 Structure from the checkpoint file:  "JID_915.chk"
 Charge = -1 Multiplicity = 2

                         Standard orientation:
 ---------------------------------------------------------------------
 Center     Atomic      Atomic             Coordinates (Angstroms)
 Number     Number       Type             X           Y           Z
 ---------------------------------------------------------------------
      1          6           0        2.321397    1.920238    0.406294
      2          7           0        2.567519    0.565834   -0.057840
      3          6           0        1.693114   -0.476063   -0.192104
      4          8           0        2.092608   -1.620977   -0.396531
      5          6           0        0.233182   -0.215865   -0.081229
      6          6           0       -0.549153    0.899581   -0.246936
      7          6           0       -1.936088    0.570607   -0.074686
      8          7           0       -2.209696   -0.691632    0.200580
      9         16           0       -0.785675   -1.579051    0.260819
     10          7           0       -2.955576    1.514899   -0.120469
     11          1           0        1.527196    1.934879    1.156896
     12          1           0        2.046697    2.600816   -0.410461
     13          1           0        3.235183    2.300782    0.869421
     14          1           0        3.528904    0.265478   -0.155182
     15          1           0       -0.192954    1.891691   -0.488957
     16          1           0       -3.873398    1.087845   -0.175934
     17          1           0       -2.832139    2.236440   -0.820566
 ---------------------------------------------------------------------

 SCF Done:  E(UB3LYP) =  -832.600617806     A.U. after   33 cycles
 SCF Done:  E(UB3LYP) =  -832.600624414     a.u. after    4 cycles

 The electronic state is 2-A.
 Alpha  occ. eigenvalues --  -88.70597 -18.91286 -14.18647 -14.18301 -14.13575
 Alpha  occ. eigenvalues --  -10.09739 -10.08579 -10.07561 -10.02098 -10.00233
 Alpha  occ. eigenvalues --   -7.79073  -5.75497  -5.74995  -5.74596  -0.87165
 Alpha  occ. eigenvalues --   -0.80901  -0.77325  -0.74193  -0.61842  -0.57945
 Alpha  occ. eigenvalues --   -0.56193  -0.48303  -0.41570  -0.41132  -0.36526
 Alpha  occ. eigenvalues --   -0.36005  -0.34203  -0.32448  -0.29486  -0.28498
 Alpha  occ. eigenvalues --   -0.26233  -0.25732  -0.23843  -0.23143  -0.18197
 Alpha  occ. eigenvalues --   -0.16610  -0.12502  -0.11212  -0.10739  -0.09771
 Alpha  occ. eigenvalues --   -0.06578   0.06069
 Alpha virt. eigenvalues --    0.07863   0.08520   0.10599   0.11609   0.12848
 Alpha virt. eigenvalues --    0.13495   0.15177   0.16127   0.16315   0.16789
 Alpha virt. eigenvalues --    0.17474   0.18373   0.18866   0.19359   0.19557

  Beta  occ. eigenvalues --  -88.70525 -18.90986 -14.18570 -14.18290 -14.13187
  Beta  occ. eigenvalues --  -10.09503 -10.08584 -10.07616 -10.01765  -9.99996
  Beta  occ. eigenvalues --   -7.79009  -5.75466  -5.74965  -5.74358  -0.86637
  Beta  occ. eigenvalues --   -0.80656  -0.77064  -0.73943  -0.61049  -0.57841
  Beta  occ. eigenvalues --   -0.55787  -0.47607  -0.41347  -0.40900  -0.36364
  Beta  occ. eigenvalues --   -0.35855  -0.33860  -0.32241  -0.29197  -0.28343
  Beta  occ. eigenvalues --   -0.25662  -0.24891  -0.23363  -0.22158  -0.17815
  Beta  occ. eigenvalues --   -0.16001  -0.12013  -0.10241  -0.09590  -0.08173
  Beta  occ. eigenvalues --   -0.05368
  Beta virt. eigenvalues --    0.07809   0.08517   0.10588   0.11437   0.12486
  Beta virt. eigenvalues --    0.12825   0.13458   0.15165   0.16152   0.16308
  Beta virt. eigenvalues --    0.16840   0.17461   0.18366   0.18998   0.19443

 Mulliken charges and spin densities:
               1          2
     1  C   -0.386834  -0.000470
     2  N   -0.264821   0.017754
     3  C    0.091430   0.182786
     4  O   -0.454760   0.106095
     5  C   -0.539636   0.071149
     6  C    0.801394   0.202463
     7  C   -0.913462  -0.046514
     8  N   -0.218350   0.153213
     9  S    0.123687   0.154624
    10  N   -0.329496   0.013730
    11  H    0.163336   0.004195
    12  H    0.118615   0.017778
    13  H    0.096141  -0.000558
    14  H    0.276187   0.008971
    15  H    0.112139  -0.003869
    16  H    0.180249   0.057915
    17  H    0.144181   0.060738
 Sum of Mulliken charges =  -1.00000   1.00000

 Dipole moment (field-independent basis, Debye):
    X=              1.4431    Y=              5.6122    Z=             -0.2238  Tot=              5.7991
 Quadrupole moment (field-independent basis, Debye-Ang):
   XX=            -87.9652   YY=            -84.4770   ZZ=            -74.6467
   XY=              6.5698   XZ=              6.3797   YZ=             -3.2905

 Summary of Natural Population Analysis:

                                       Natural Population
                Natural  -----------------------------------------------
    Atom  No    Charge         Core      Valence    Rydberg      Total
 -----------------------------------------------------------------------
      C    1   -0.17920      0.99967     2.17242    0.00712     3.17920
      N    2   -0.31784      0.99967     2.80701    0.01116     3.81784
      C    3    0.35444      0.99959     1.62525    0.02072     2.64556
      O    4   -0.30922      0.99988     3.30348    0.00586     4.30922
      C    5   -0.07936      0.99948     2.06548    0.01440     3.07936
      C    6   -0.12857      0.99945     2.11767    0.01145     3.12857
      C    7    0.15985      0.99958     1.82470    0.01588     2.84015
      N    8   -0.30780      0.99968     2.79277    0.01535     3.80780
      S    9    0.31021      4.99945     2.66141    0.02893     7.68979
      N   10   -0.41032      0.99971     2.89945    0.01116     3.91032
      H   11    0.10293      0.00000     0.39572    0.00134     0.39707
      H   12    0.08275      0.00000     0.41574    0.00151     0.41725
      H   13    0.08661      0.00000     0.41249    0.00090     0.41339
      H   14    0.18346      0.00000     0.31441    0.00213     0.31654
      H   15    0.09436      0.00000     0.40446    0.00117     0.40564
      H   16    0.18114      0.00000     0.31482    0.00404     0.31886
      H   17    0.17656      0.00000     0.32147    0.00197     0.32344
 =======================================================================
   * Total *   -0.00000     13.99615    26.84875    0.15510    41.00000

 Normal termination of Gaussian 16 at Tue Dec  8 14:42:48 2020.
