 Gaussian 16, Revision A.03,

 -----------------------------------------------------------
 # opt freq B3LYP/6-31G(d) empiricaldispersion=gd3bj scf=xqc
 -----------------------------------------------------------

 ------------------------------
 CID_11805583_JID_3297_neutraal
 ------------------------------
 Symbolic Z-matrix:
 Charge =  0 Multiplicity = 1

 SCF Done:  E(RB3LYP) =  -915.866497666     A.U. after   16 cycles
 SCF Done:  E(RB3LYP) =  -915.879191619     A.U. after   15 cycles
 SCF Done:  E(RB3LYP) =  -915.880055814     A.U. after   13 cycles
 SCF Done:  E(RB3LYP) =  -915.880787333     A.U. after   13 cycles
 SCF Done:  E(RB3LYP) =  -915.881856723     A.U. after   12 cycles
 SCF Done:  E(RB3LYP) =  -915.882402905     A.U. after   12 cycles
 SCF Done:  E(RB3LYP) =  -915.882308520     A.U. after   12 cycles
 SCF Done:  E(RB3LYP) =  -915.882611026     A.U. after   12 cycles
 SCF Done:  E(RB3LYP) =  -915.882632091     A.U. after   11 cycles
 SCF Done:  E(RB3LYP) =  -915.882684097     A.U. after   11 cycles
 SCF Done:  E(RB3LYP) =  -915.882695842     A.U. after   10 cycles
 SCF Done:  E(RB3LYP) =  -915.882698579     A.U. after    9 cycles
 SCF Done:  E(RB3LYP) =  -915.882699520     A.U. after    8 cycles
 SCF Done:  E(RB3LYP) =  -915.882699691     A.U. after    8 cycles
 Optimization completed.
    -- Stationary point found.
 Normal termination of Gaussian 16 at Wed Dec  9 22:50:43 2020.

 --------------------------------------------------------------------
 #N Geom=AllCheck Guess=TCheck SCRF=Check GenChk RB3LYP/6-31G(d) Freq
 --------------------------------------------------------------------

 Structure from the checkpoint file:  "JID_3297.chk"
 ------------------------------
 CID_11805583_JID_3297_neutraal
 ------------------------------
 Charge =  0 Multiplicity = 1

 SCF Done:  E(RB3LYP) =  -915.882699691     A.U. after    1 cycles

  Exact polarizability: 196.481   8.367  99.477  -2.612 -17.764  90.817
 Approx polarizability: 308.044  14.834 151.983 -10.427 -42.078 146.239

                      1                      2                      3
                      A                      A                      A
 Frequencies --     37.3447                46.6005                50.2487
 Red. masses --      5.4223                 4.1968                 5.9145
 Frc consts  --      0.0045                 0.0054                 0.0088
 IR Inten    --      0.0074                 0.1671                 0.6464

                      4                      5                      6
                      A                      A                      A
 Frequencies --     60.3606               114.8311               163.4405
 Red. masses --      3.7662                 3.0175                 4.8737
 Frc consts  --      0.0081                 0.0234                 0.0767
 IR Inten    --      0.8190                 0.1129                 0.6858

                      7                      8                      9
                      A                      A                      A
 Frequencies --    210.8532               258.1794               288.1548
 Red. masses --      5.9203                 2.3296                 1.7697
 Frc consts  --      0.1551                 0.0915                 0.0866
 IR Inten    --      3.8696                 1.3848                 2.8539

                     10                     11                     12
                      A                      A                      A
 Frequencies --    315.9370               378.4128               405.7739
 Red. masses --      2.7569                 4.1285                 3.6152
 Frc consts  --      0.1621                 0.3483                 0.3507
 IR Inten    --      7.5248                 1.8391                 4.8635

                     13                     14                     15
                      A                      A                      A
 Frequencies --    418.1337               462.2045               488.6268
 Red. masses --      3.1204                12.1126                 4.6608
 Frc consts  --      0.3214                 1.5246                 0.6556
 IR Inten    --      0.2964                 7.1560                 5.6767

                     16                     17                     18
                      A                      A                      A
 Frequencies --    507.1137               597.0495               635.8724
 Red. masses --      4.5411                 7.9339                 6.4285
 Frc consts  --      0.6881                 1.6663                 1.5314
 IR Inten    --      0.4816                86.0612                 0.5606

                     19                     20                     21
                      A                      A                      A
 Frequencies --    670.2511               715.1818               753.8296
 Red. masses --      4.7584                 2.0015                 1.9647
 Frc consts  --      1.2595                 0.6032                 0.6578
 IR Inten    --     10.2780                25.3163                36.7421

                     22                     23                     24
                      A                      A                      A
 Frequencies --    800.5275               818.9064               835.9235
 Red. masses --      2.4374                 1.6848                 2.6368
 Frc consts  --      0.9203                 0.6657                 1.0856
 IR Inten    --     53.7825                46.9700                 5.9671

                     25                     26                     27
                      A                      A                      A
 Frequencies --    866.4132               883.2406               944.2322
 Red. masses --      1.2477                 2.8141                 1.5480
 Frc consts  --      0.5518                 1.2935                 0.8132
 IR Inten    --      0.2810                18.4833                 9.7013

                     28                     29                     30
                      A                      A                      A
 Frequencies --    976.1767              1001.2881              1009.1653
 Red. masses --      1.3498                 1.3194                 2.7156
 Frc consts  --      0.7578                 0.7794                 1.6295
 IR Inten    --      0.5740                 4.6366                23.5490

                     31                     32                     33
                      A                      A                      A
 Frequencies --   1023.6198              1059.3007              1079.8089
 Red. masses --      6.1484                 2.4012                 5.2736
 Frc consts  --      3.7957                 1.5875                 3.6229
 IR Inten    --      2.4919                 6.6716                86.1134

                     34                     35                     36
                      A                      A                      A
 Frequencies --   1107.1407              1119.9678              1135.0178
 Red. masses --      3.2382                 1.7104                 2.5453
 Frc consts  --      2.3386                 1.2641                 1.9320
 IR Inten    --     52.2620                 3.4634               127.6207

                     37                     38                     39
                      A                      A                      A
 Frequencies --   1195.1887              1207.2576              1212.3140
 Red. masses --      1.1018                 1.7158                 1.1426
 Frc consts  --      0.9273                 1.4734                 0.9894
 IR Inten    --      0.0149                 9.8109                10.3630

                     40                     41                     42
                      A                      A                      A
 Frequencies --   1236.6441              1333.3650              1346.8149
 Red. masses --      2.4268                 1.7891                 1.1332
 Frc consts  --      2.1866                 1.8741                 1.2111
 IR Inten    --     16.2792               136.4334                 1.8726

                     43                     44                     45
                      A                      A                      A
 Frequencies --   1368.5129              1373.0305              1391.5891
 Red. masses --      2.0310                 1.7933                 1.1755
 Frc consts  --      2.2411                 1.9919                 1.3412
 IR Inten    --      4.2949               101.1024                28.5942

                     46                     47                     48
                      A                      A                      A
 Frequencies --   1423.2916              1446.2031              1500.3171
 Red. masses --      1.2297                 1.2850                 2.2197
 Frc consts  --      1.4677                 1.5835                 2.9438
 IR Inten    --      2.4144                14.5574                20.5476

                     49                     50                     51
                      A                      A                      A
 Frequencies --   1521.4034              1524.6426              1540.0980
 Red. masses --      1.0424                 1.0618                 1.0741
 Frc consts  --      1.4216                 1.4543                 1.5011
 IR Inten    --      5.1273                 3.4322                 6.2408

                     52                     53                     54
                      A                      A                      A
 Frequencies --   1547.3423              1649.8316              1669.1983
 Red. masses --      2.2391                 5.7296                 5.5904
 Frc consts  --      3.1586                 9.1886                 9.1771
 IR Inten    --      4.4645                 4.0353                 0.4392

                     55                     56                     57
                      A                      A                      A
 Frequencies --   2128.2094              3060.0954              3062.3026
 Red. masses --     12.2510                 1.0389                 1.0666
 Frc consts  --     32.6926                 5.7317                 5.8931
 IR Inten    --   1442.1862                14.8214                35.1049

                     58                     59                     60
                      A                      A                      A
 Frequencies --   3065.3407              3114.8488              3128.1496
 Red. masses --      1.0799                 1.1023                 1.0993
 Frc consts  --      5.9785                 6.3015                 6.3377
 IR Inten    --     19.7965                13.9652                32.2106

                     61                     62                     63
                      A                      A                      A
 Frequencies --   3150.1487              3185.3995              3192.3900
 Red. masses --      1.1040                 1.0855                 1.0881
 Frc consts  --      6.4549                 6.4892                 6.5336
 IR Inten    --     31.0225                 1.3157                 1.4177

                     64                     65                     66
                      A                      A                      A
 Frequencies --   3201.8850              3211.8954              3219.9712
 Red. masses --      1.0921                 1.0953                 1.0948
 Frc consts  --      6.5964                 6.6573                 6.6877
 IR Inten    --     21.9656                29.7605                 5.5423

 - Thermochemistry -
 -------------------
 Temperature   298.150 Kelvin.  Pressure   1.00000 Atm.
 Atom     1 has atomic number  6 and mass  12.00000

 Molecular mass:   193.05614 amu.
 Principal axes and moments of inertia in atomic units:
                           1         2         3
     Eigenvalues --  1331.170244652.243615124.59963
           X            0.99991  -0.01261  -0.00448
           Y            0.01269   0.99975   0.01815
           Z            0.00425  -0.01820   0.99983
 This molecule is an asymmetric top.
 Rotational symmetry number  1.
 Warning -- assumption of classical behavior for rotation
           may cause significant error
 Rotational temperatures (Kelvin)      0.06507     0.01862     0.01690
 Rotational constants (GHZ):           1.35576     0.38793     0.35217
 Zero-point vibrational energy     505104.1 (Joules/Mol)
                                  120.72278 (Kcal/Mol)
 Warning -- explicit consideration of  17 degrees of freedom as
           vibrations may cause significant error
 Vibrational temperatures:     53.73    67.05    72.30    86.85   165.22
          (Kelvin)            235.15   303.37   371.46   414.59   454.56
                              544.45   583.82   601.60   665.01   703.02
                              729.62   859.02   914.88   964.34  1028.99
                             1084.59  1151.78  1178.22  1202.71  1246.58
                             1270.79  1358.54  1404.50  1440.63  1451.96
                             1472.76  1524.10  1553.60  1592.93  1611.38
                             1633.04  1719.61  1736.97  1744.25  1779.25
                             1918.41  1937.77  1968.98  1975.48  2002.19
                             2047.80  2080.76  2158.62  2188.96  2193.62
                             2215.86  2226.28  2373.74  2401.60  3062.02
                             4402.79  4405.97  4410.34  4481.57  4500.71
                             4532.36  4583.08  4593.14  4606.80  4621.20
                             4632.82

 Zero-point correction=                           0.192384 (Hartree/Particle)
 Thermal correction to Energy=                    0.204813
 Thermal correction to Enthalpy=                  0.205757
 Thermal correction to Gibbs Free Energy=         0.151553
 Sum of electronic and zero-point Energies=           -915.690316
 Sum of electronic and thermal Energies=              -915.677887
 Sum of electronic and thermal Enthalpies=            -915.676943
 Sum of electronic and thermal Free Energies=         -915.731147

                     E (Thermal)             CV                S
                      KCal/Mol        Cal/Mol-Kelvin    Cal/Mol-Kelvin
 Total                  128.522             45.561            114.083
 Electronic               0.000              0.000              0.000
 Translational            0.889              2.981             41.679
 Rotational               0.889              2.981             31.829
 Vibrational            126.744             39.599             40.575
 Vibration     1          0.594              1.982              5.395
 Vibration     2          0.595              1.979              4.957
 Vibration     3          0.595              1.977              4.808
 Vibration     4          0.597              1.973              4.445
 Vibration     5          0.608              1.937              3.186
 Vibration     6          0.623              1.887              2.510
 Vibration     7          0.643              1.824              2.036
 Vibration     8          0.667              1.749              1.674
 Vibration     9          0.685              1.696              1.485
 Vibration    10          0.703              1.643              1.331
 Vibration    11          0.749              1.516              1.046
 Vibration    12          0.771              1.458              0.942
 Vibration    13          0.781              1.431              0.898
 Vibration    14          0.820              1.334              0.760
 Vibration    15          0.845              1.275              0.687
 Vibration    16          0.862              1.234              0.641
 Vibration    17          0.955              1.038              0.455

                           ! Non-Optimized Parameters !
 Normal termination of Gaussian 16 at Wed Dec  9 22:56:49 2020.

 ----------------------------------------------------------------------
 # B3LYP/6-311++G(d,p) empiricaldispersion=gd3bj scf=xqc pop=npa geom=c
 heck
 ----------------------------------------------------------------------

 --------------------------------------
 CID_11805583_JID_3297_Energie_neutraal
 --------------------------------------
 Structure from the checkpoint file:  "JID_3297.chk"
 Charge =  0 Multiplicity = 1

 SCF Done:  E(RB3LYP) =  -916.048158598     A.U. after   17 cycles
 Normal termination of Gaussian 16 at Wed Dec  9 22:59:29 2020.

 ----------------------------------------------------------------------
 # B3LYP/6-311++G(d,p) empiricaldispersion=gd3bj scf=xqc pop=npa geom=c
 heck
 ----------------------------------------------------------------------

 ------------------------------------
 CID_11805583_JID_3297_Energie_kation
 ------------------------------------
 Structure from the checkpoint file:  "JID_3297.chk"
 Charge =  1 Multiplicity = 2

 SCF Done:  E(UB3LYP) =  -915.727367695     A.U. after   33 cycles
 SCF Done:  E(UB3LYP) =  -915.727367695     a.u. after    1 cycles
 Normal termination of Gaussian 16 at Wed Dec  9 23:06:00 2020.
 Gaussian 16:  ES64L-G16RevA.03 25-Dec-2016

 ----------------------------------------------------------------------
 # B3LYP/6-311++G(d,p) empiricaldispersion=gd3bj scf=xqc pop=npa geom=c
 heck
 ----------------------------------------------------------------------

 -----------------------------------
 CID_11805583_JID_3297_Energie_anion
 -----------------------------------
 Structure from the checkpoint file:  "JID_3297.chk"
 Charge = -1 Multiplicity = 2

                         Standard orientation:
 ---------------------------------------------------------------------
 Center     Atomic      Atomic             Coordinates (Angstroms)
 Number     Number       Type             X           Y           Z
 ---------------------------------------------------------------------
      1          6           0       -1.106528    1.613620    1.621853
      2          6           0       -0.246768    2.135730    0.477100
      3          8           0       -0.518099    1.535857   -0.800566
      4          6           0       -0.193451    0.180311   -0.981636
      5          6           0        1.179507   -0.203936   -0.461028
      6          6           0        2.290247    0.461947   -0.993228
      7          6           0        3.572600    0.162692   -0.540892
      8          6           0        3.756140   -0.807706    0.447821
      9          6           0        2.652272   -1.473680    0.978243
     10          6           0        1.366107   -1.172146    0.525681
     11          7           0       -1.214780   -0.710354   -0.445254
     12          6           0       -2.404773   -0.760759   -0.301219
     13         16           0       -3.959374   -0.926104   -0.036447
     14          1           0       -2.169417    1.651541    1.364125
     15          1           0       -0.942796    2.237954    2.507927
     16          1           0       -0.850509    0.583762    1.884937
     17          1           0       -0.449434    3.195974    0.302830
     18          1           0        0.817921    2.030071    0.716217
     19          1           0       -0.218870    0.046983   -2.069169
     20          1           0        2.140946    1.222846   -1.754767
     21          1           0        4.428898    0.683753   -0.959311
     22          1           0        4.756306   -1.043412    0.799950
     23          1           0        2.788863   -2.230193    1.745625
     24          1           0        0.504211   -1.692432    0.929923
 ---------------------------------------------------------------------

 SCF Done:  E(UB3LYP) =  -916.038348159     A.U. after   33 cycles
 SCF Done:  E(UB3LYP) =  -916.038510674     a.u. after    4 cycles

 The electronic state is 2-A.
 Alpha  occ. eigenvalues --  -88.72414 -19.02196 -14.21922 -10.16256 -10.14070
 Alpha  occ. eigenvalues --  -10.11370 -10.06059 -10.05930 -10.05774 -10.05738
 Alpha  occ. eigenvalues --  -10.05304 -10.05043 -10.04980  -7.81143  -5.77522
 Alpha  occ. eigenvalues --   -5.76889  -5.76804  -0.94200  -0.83385  -0.74111
 Alpha  occ. eigenvalues --   -0.68170  -0.65312  -0.64134  -0.62956  -0.58472
 Alpha  occ. eigenvalues --   -0.51962  -0.49565  -0.47677  -0.42739  -0.41058
 Alpha  occ. eigenvalues --   -0.39494  -0.35969  -0.34031  -0.33378  -0.32892
 Alpha  occ. eigenvalues --   -0.32066  -0.31490  -0.30652  -0.29110  -0.28017
 Alpha  occ. eigenvalues --   -0.26975  -0.25508  -0.24619  -0.23984  -0.22914
 Alpha  occ. eigenvalues --   -0.20827  -0.17860  -0.14723  -0.14205  -0.13696
 Alpha  occ. eigenvalues --   -0.13345   0.05067
 Alpha virt. eigenvalues --    0.06914   0.07771   0.08172   0.08435   0.09628
 Alpha virt. eigenvalues --    0.09868   0.10058   0.10361   0.11065   0.11411
 Alpha virt. eigenvalues --    0.12236   0.12667   0.13226   0.13884   0.14722

  Beta  occ. eigenvalues --  -88.72407 -19.02112 -14.21883 -10.16204 -10.13779
  Beta  occ. eigenvalues --  -10.11364 -10.06058 -10.05842 -10.05784 -10.05770
  Beta  occ. eigenvalues --  -10.05209 -10.04898 -10.04837  -7.81137  -5.77530
  Beta  occ. eigenvalues --   -5.76872  -5.76782  -0.94000  -0.83140  -0.73902
  Beta  occ. eigenvalues --   -0.67931  -0.65194  -0.63933  -0.62765  -0.58306
  Beta  occ. eigenvalues --   -0.51821  -0.49487  -0.47364  -0.42607  -0.40941
  Beta  occ. eigenvalues --   -0.39288  -0.35791  -0.33860  -0.33261  -0.32630
  Beta  occ. eigenvalues --   -0.31973  -0.31323  -0.30564  -0.28885  -0.27918
  Beta  occ. eigenvalues --   -0.26418  -0.25211  -0.24317  -0.23805  -0.22826
  Beta  occ. eigenvalues --   -0.20647  -0.17712  -0.14288  -0.13771  -0.13407
  Beta  occ. eigenvalues --   -0.12823
  Beta virt. eigenvalues --    0.07349   0.08076   0.08663   0.08842   0.09031
  Beta virt. eigenvalues --    0.09960   0.10152   0.10291   0.10643   0.11483
  Beta virt. eigenvalues --    0.11687   0.12470   0.12639   0.13450   0.13844

 Mulliken charges and spin densities:
               1          2
     1  C   -0.402578  -0.053170
     2  C   -0.061347  -0.098317
     3  O    0.008562  -0.007223
     4  C    0.196392  -1.307078
     5  C    0.616307   0.348349
     6  C   -0.692519   0.818940
     7  C    0.422060  -0.797563
     8  C    0.632728  -0.907056
     9  C   -0.624032   0.229859
    10  C   -0.485085   0.271569
    11  N    0.270922   0.036825
    12  C    0.318770   0.092821
    13  S   -0.602221   0.062022
    14  H    0.104586   0.045420
    15  H    0.074135   0.038115
    16  H    0.136707   0.012043
    17  H    0.073610   0.080077
    18  H    0.189321  -0.063511
    19  H   -0.070221   0.288467
    20  H   -0.238306   0.412273
    21  H   -0.657248   0.826019
    22  H   -0.362049   0.488694
    23  H   -0.068812   0.212807
    24  H    0.220318  -0.030383
 Sum of Mulliken charges =  -1.00000   1.00000

 Dipole moment (field-independent basis, Debye):
    X=             -3.3825    Y=              0.7950    Z=              2.5747  Tot=              4.3247
 Quadrupole moment (field-independent basis, Debye-Ang):
   XX=           -164.9527   YY=           -105.5770   ZZ=           -106.5798
   XY=             -2.7162   XZ=              1.9317   YZ=              4.1244

 Summary of Natural Population Analysis:

                                       Natural Population
                Natural  -----------------------------------------------
    Atom  No    Charge         Core      Valence    Rydberg      Total
 -----------------------------------------------------------------------
      C    1   -0.30382      0.99966     2.29988    0.00428     3.30382
      C    2   -0.01507      0.99958     2.00342    0.01207     3.01507
      O    3   -0.28941      0.99988     3.28067    0.00886     4.28941
      C    4    0.15449      0.99948     1.82727    0.01875     2.84551
      C    5   -0.02745      0.99947     2.01729    0.01069     3.02745
      C    6   -0.07630      0.99951     2.06603    0.01076     3.07630
      C    7   -0.10938      0.99956     2.09934    0.01048     3.10938
      C    8   -0.08071      0.99956     2.07067    0.01048     3.08071
      C    9   -0.09093      0.99957     2.08094    0.01042     3.09093
      C   10   -0.10403      0.99951     2.09557    0.00895     3.10403
      N   11   -0.24303      0.99947     2.73120    0.01236     3.74303
      C   12    0.16676      0.99952     1.81918    0.01453     2.83324
      S   13   -0.05412      4.99947     3.03868    0.01598     8.05412
      H   14    0.10357      0.00000     0.39494    0.00149     0.39643
      H   15    0.09585      0.00000     0.40327    0.00089     0.40415
      H   16    0.10335      0.00000     0.39548    0.00117     0.39665
      H   17    0.08588      0.00000     0.41304    0.00108     0.41412
      H   18    0.08808      0.00000     0.41057    0.00135     0.41192
      H   19    0.09906      0.00000     0.39886    0.00208     0.40094
      H   20    0.10139      0.00000     0.39717    0.00144     0.39861
      H   21    0.09956      0.00000     0.39885    0.00159     0.40044
      H   22    0.09630      0.00000     0.40258    0.00112     0.40370
      H   23    0.09479      0.00000     0.40444    0.00077     0.40521
      H   24    0.10519      0.00000     0.39373    0.00108     0.39481
 =======================================================================
   * Total *   -0.00000     16.99425    33.84308    0.16267    51.00000

 Normal termination of Gaussian 16 at Wed Dec  9 23:31:11 2020.
