 Gaussian 16, Revision A.03,

 -----------------------------------------------------------
 # opt freq B3LYP/6-31G(d) empiricaldispersion=gd3bj scf=xqc
 -----------------------------------------------------------

 ------------------------------
 CID_61181681_JID_7567_neutraal
 ------------------------------
 Symbolic Z-matrix:
 Charge =  0 Multiplicity = 1

 SCF Done:  E(RB3LYP) =  -807.000015963     A.U. after   15 cycles
 SCF Done:  E(RB3LYP) =  -807.005881268     A.U. after   12 cycles
 SCF Done:  E(RB3LYP) =  -807.005743518     A.U. after   13 cycles
 SCF Done:  E(RB3LYP) =  -807.008407556     A.U. after   12 cycles
 SCF Done:  E(RB3LYP) =  -807.010082273     A.U. after   12 cycles
 SCF Done:  E(RB3LYP) =  -807.012072023     A.U. after   14 cycles
 SCF Done:  E(RB3LYP) =  -807.013391383     A.U. after   13 cycles
 SCF Done:  E(RB3LYP) =  -807.013674834     A.U. after   12 cycles
 SCF Done:  E(RB3LYP) =  -807.013992510     A.U. after   11 cycles
 SCF Done:  E(RB3LYP) =  -807.014091386     A.U. after   11 cycles
 SCF Done:  E(RB3LYP) =  -807.014190825     A.U. after   10 cycles
 SCF Done:  E(RB3LYP) =  -807.014200452     A.U. after    9 cycles
 SCF Done:  E(RB3LYP) =  -807.014204206     A.U. after    9 cycles
 SCF Done:  E(RB3LYP) =  -807.014205789     A.U. after    8 cycles
 SCF Done:  E(RB3LYP) =  -807.014206051     A.U. after    7 cycles
 Optimization completed.
    -- Stationary point found.
 Normal termination of Gaussian 16 at Fri Dec 11 12:34:22 2020.

 --------------------------------------------------------------------
 #N Geom=AllCheck Guess=TCheck SCRF=Check GenChk RB3LYP/6-31G(d) Freq
 --------------------------------------------------------------------

 Structure from the checkpoint file:  "JID_7567.chk"
 ------------------------------
 CID_61181681_JID_7567_neutraal
 ------------------------------
 Charge =  0 Multiplicity = 1

 SCF Done:  E(RB3LYP) =  -807.014206051     A.U. after    1 cycles

  Exact polarizability: 171.447   5.079 141.799   2.101   1.772 127.441
 Approx polarizability: 205.641   8.652 217.672   9.627   9.859 187.444

                      1                      2                      3
                      A                      A                      A
 Frequencies --     31.4383                38.9580                46.0263
 Red. masses --      3.7249                 3.6783                 7.2333
 Frc consts  --      0.0022                 0.0033                 0.0090
 IR Inten    --      0.2378                 0.0708                 2.4385

                      4                      5                      6
                      A                      A                      A
 Frequencies --     51.1321                60.0010                69.5888
 Red. masses --      3.9681                 3.2369                 3.5086
 Frc consts  --      0.0061                 0.0069                 0.0100
 IR Inten    --      0.9184                 0.2887                 0.3481

                      7                      8                      9
                      A                      A                      A
 Frequencies --     85.5245                97.7270               108.8685
 Red. masses --      4.1520                 3.5783                 3.6682
 Frc consts  --      0.0179                 0.0201                 0.0256
 IR Inten    --      1.3704                 0.4509                 2.3133

                     10                     11                     12
                      A                      A                      A
 Frequencies --    148.2319               172.9621               178.4850
 Red. masses --      2.6355                 2.1174                 3.0100
 Frc consts  --      0.0341                 0.0373                 0.0565
 IR Inten    --      1.2143                 0.1672                 1.4034

                     13                     14                     15
                      A                      A                      A
 Frequencies --    204.5415               227.2619               243.2423
 Red. masses --      3.0942                 2.3146                 1.0814
 Frc consts  --      0.0763                 0.0704                 0.0377
 IR Inten    --      0.8826                 2.2334                 0.2084

                     16                     17                     18
                      A                      A                      A
 Frequencies --    256.3639               269.7093               282.3476
 Red. masses --      1.7160                 1.3625                 2.3534
 Frc consts  --      0.0664                 0.0584                 0.1105
 IR Inten    --      1.6545                 0.1496                 3.0011

                     19                     20                     21
                      A                      A                      A
 Frequencies --    316.0969               341.6871               358.3984
 Red. masses --      2.1755                 2.2452                 3.4983
 Frc consts  --      0.1281                 0.1544                 0.2647
 IR Inten    --      0.0174                 3.4886                 1.5521

                     22                     23                     24
                      A                      A                      A
 Frequencies --    373.1951               409.8752               421.1554
 Red. masses --      2.1543                 3.1892                 2.6311
 Frc consts  --      0.1768                 0.3157                 0.2750
 IR Inten    --      1.0463                 4.2436                 1.4347

                     25                     26                     27
                      A                      A                      A
 Frequencies --    462.9462               506.8359               514.3662
 Red. masses --      2.9514                 1.8717                 3.1601
 Frc consts  --      0.3727                 0.2833                 0.4926
 IR Inten    --      0.7337                 4.0174                 2.1727

                     28                     29                     30
                      A                      A                      A
 Frequencies --    527.8361               538.5473               604.6516
 Red. masses --      2.5534                 2.6780                 3.3079
 Frc consts  --      0.4191                 0.4576                 0.7125
 IR Inten    --      7.4601                51.8273                56.2558

                     31                     32                     33
                      A                      A                      A
 Frequencies --    656.7876               701.2722               725.7549
 Red. masses --      2.4317                 1.4818                 1.6322
 Frc consts  --      0.6180                 0.4294                 0.5065
 IR Inten    --     10.6139                95.4353                43.9120

                     34                     35                     36
                      A                      A                      A
 Frequencies --    740.1985               755.7769               783.0890
 Red. masses --      1.5706                 4.2468                 1.7392
 Frc consts  --      0.5070                 1.4292                 0.6284
 IR Inten    --      7.0684                13.0372                 2.3834

                     37                     38                     39
                      A                      A                      A
 Frequencies --    806.5522               816.9485               850.2747
 Red. masses --      1.5847                 2.2068                 1.8771
 Frc consts  --      0.6074                 0.8678                 0.7996
 IR Inten    --     21.0646                19.6125                 2.8292

                     40                     41                     42
                      A                      A                      A
 Frequencies --    855.2580               873.6828               908.0595
 Red. masses --      3.1870                 2.1848                 2.0797
 Frc consts  --      1.3735                 0.9826                 1.0104
 IR Inten    --      4.8262                 0.5223                 2.8212

                     43                     44                     45
                      A                      A                      A
 Frequencies --    928.1081               961.6437               990.6185
 Red. masses --      1.7958                 1.9070                 1.3086
 Frc consts  --      0.9114                 1.0391                 0.7566
 IR Inten    --      9.1766                12.6508                13.1727

                     46                     47                     48
                      A                      A                      A
 Frequencies --   1010.1099              1019.2558              1025.6131
 Red. masses --      1.6992                 1.4091                 1.6363
 Frc consts  --      1.0215                 0.8625                 1.0141
 IR Inten    --     31.2640                 9.9997                 1.2429

                     49                     50                     51
                      A                      A                      A
 Frequencies --   1045.2479              1067.7914              1089.3243
 Red. masses --      2.9252                 1.7233                 2.0604
 Frc consts  --      1.8830                 1.1577                 1.4405
 IR Inten    --      4.3256                 3.2358                14.0020

                     52                     53                     54
                      A                      A                      A
 Frequencies --   1124.9181              1143.3549              1146.7915
 Red. masses --      2.0674                 2.3741                 2.1451
 Frc consts  --      1.5414                 1.8285                 1.6621
 IR Inten    --     14.2576                 8.2815                 5.8647

                     55                     56                     57
                      A                      A                      A
 Frequencies --   1163.7650              1187.1160              1194.1492
 Red. masses --      2.5236                 2.2566                 2.3221
 Frc consts  --      2.0137                 1.8737                 1.9510
 IR Inten    --     63.5181                25.6228               176.3177

                     58                     59                     60
                      A                      A                      A
 Frequencies --   1204.2359              1233.6988              1256.3061
 Red. masses --      2.1688                 1.2702                 1.6676
 Frc consts  --      1.8530                 1.1390                 1.5507
 IR Inten    --      9.7208                57.9949                25.3465

                     61                     62                     63
                      A                      A                      A
 Frequencies --   1263.1479              1301.5475              1322.2440
 Red. masses --      2.2859                 1.3224                 1.2478
 Frc consts  --      2.1489                 1.3199                 1.2853
 IR Inten    --     57.7237                54.2034                 1.1540

                     64                     65                     66
                      A                      A                      A
 Frequencies --   1331.1119              1342.7822              1347.1279
 Red. masses --      1.2629                 1.2188                 1.1700
 Frc consts  --      1.3184                 1.2948                 1.2510
 IR Inten    --     15.2510                 9.9546                 1.9612

                     67                     68                     69
                      A                      A                      A
 Frequencies --   1378.6152              1383.1293              1389.1232
 Red. masses --      1.9880                 1.4139                 1.6065
 Frc consts  --      2.2261                 1.5936                 1.8265
 IR Inten    --     32.8059               127.2715                41.2630

                     70                     71                     72
                      A                      A                      A
 Frequencies --   1396.6646              1404.4640              1411.3172
 Red. masses --      1.5339                 1.5015                 1.4788
 Frc consts  --      1.7629                 1.7450                 1.7354
 IR Inten    --     34.1158                14.3717                53.7495

                     73                     74                     75
                      A                      A                      A
 Frequencies --   1420.8112              1427.8180              1434.4280
 Red. masses --      1.4261                 1.3094                 1.3235
 Frc consts  --      1.6962                 1.5728                 1.6045
 IR Inten    --     17.9033                14.0771                32.9315

                     76                     77                     78
                      A                      A                      A
 Frequencies --   1437.5720              1444.2201              1470.8264
 Red. masses --      1.2717                 1.2696                 1.2987
 Frc consts  --      1.5485                 1.5602                 1.6554
 IR Inten    --     10.7613                 4.4548                45.9927

                     79                     80                     81
                      A                      A                      A
 Frequencies --   1481.1186              1502.7086              1511.5799
 Red. masses --      1.2853                 1.4065                 1.0900
 Frc consts  --      1.6612                 1.8712                 1.4674
 IR Inten    --     11.0944                78.1816                 8.9156

                     82                     83                     84
                      A                      A                      A
 Frequencies --   1512.9531              1520.9714              1522.4761
 Red. masses --      1.0893                 1.0703                 1.0585
 Frc consts  --      1.4690                 1.4588                 1.4456
 IR Inten    --     13.1420                 1.4202                15.7306

                     85                     86                     87
                      A                      A                      A
 Frequencies --   1524.0732              1531.7324              1534.0188
 Red. masses --      1.0964                 1.0481                 1.0600
 Frc consts  --      1.5005                 1.4489                 1.4697
 IR Inten    --      8.1936                13.3180                 7.6275

                     88                     89                     90
                      A                      A                      A
 Frequencies --   1538.4505              1540.0676              1544.4317
 Red. masses --      1.0522                 1.0654                 1.0564
 Frc consts  --      1.4673                 1.4888                 1.4847
 IR Inten    --      7.4261                 0.3937                 4.7247

                     91                     92                     93
                      A                      A                      A
 Frequencies --   1550.1500              1770.1208              1844.7892
 Red. masses --      1.1027                 7.0268                 9.9264
 Frc consts  --      1.5612                12.9721                19.9037
 IR Inten    --     14.2950               373.3104               258.6599

                     94                     95                     96
                      A                      A                      A
 Frequencies --   3025.4904              3037.0258              3038.4720
 Red. masses --      1.0679                 1.0636                 1.0405
 Frc consts  --      5.7595                 5.7802                 5.6600
 IR Inten    --     28.1553                36.1502                25.0620

                     97                     98                     99
                      A                      A                      A
 Frequencies --   3039.7114              3043.5817              3045.4401
 Red. masses --      1.0712                 1.0717                 1.0413
 Frc consts  --      5.8318                 5.8493                 5.6903
 IR Inten    --     17.2997                25.4543                 8.2646

                    100                    101                    102
                      A                      A                      A
 Frequencies --   3050.6675              3051.5913              3062.1244
 Red. masses --      1.0762                 1.0619                 1.0691
 Frc consts  --      5.9009                 5.8261                 5.9064
 IR Inten    --      4.2938                20.8935                36.2498

                    103                    104                    105
                      A                      A                      A
 Frequencies --   3064.6220              3066.0026              3077.7150
 Red. masses --      1.0933                 1.0451                 1.0992
 Frc consts  --      6.0498                 5.7885                 6.1347
 IR Inten    --     38.0557                30.5528                44.7153

                    106                    107                    108
                      A                      A                      A
 Frequencies --   3093.4621              3099.4816              3111.1092
 Red. masses --      1.1001                 1.0954                 1.1018
 Frc consts  --      6.2024                 6.2002                 6.2833
 IR Inten    --     64.1761                24.1902                49.8417

                    109                    110                    111
                      A                      A                      A
 Frequencies --   3116.9124              3119.6495              3132.2435
 Red. masses --      1.1018                 1.1014                 1.0999
 Frc consts  --      6.3068                 6.3154                 6.3580
 IR Inten    --     49.1040                40.8633                30.6430

                    112                    113                    114
                      A                      A                      A
 Frequencies --   3138.7933              3140.2527              3152.6161
 Red. masses --      1.0909                 1.0948                 1.0914
 Frc consts  --      6.3323                 6.3608                 6.3909
 IR Inten    --      8.6607                17.3592                 2.8653

                    115                    116                    117
                      A                      A                      A
 Frequencies --   3160.2154              3575.3680              3679.3265
 Red. masses --      1.1024                 1.0747                 1.0640
 Frc consts  --      6.4865                 8.0946                 8.4868
 IR Inten    --     12.9389                16.7650                59.7614

 - Thermochemistry -
 -------------------
 Temperature   298.150 Kelvin.  Pressure   1.00000 Atm.
 Atom     1 has atomic number  6 and mass  12.00000

 Molecular mass:   244.17869 amu.
 Principal axes and moments of inertia in atomic units:
                           1         2         3
     Eigenvalues --  2723.347346859.865598052.33477
           X            0.99999   0.00023  -0.00519
           Y           -0.00030   0.99989  -0.01480
           Z            0.00518   0.01480   0.99988
 This molecule is an asymmetric top.
 Rotational symmetry number  1.
 Warning -- assumption of classical behavior for rotation
           may cause significant error
 Rotational temperatures (Kelvin)      0.03180     0.01263     0.01076
 Rotational constants (GHZ):           0.66269     0.26309     0.22413
 Zero-point vibrational energy     961033.0 (Joules/Mol)
                                  229.69240 (Kcal/Mol)
 Warning -- explicit consideration of  30 degrees of freedom as
           vibrations may cause significant error
 Vibrational temperatures:     45.23    56.05    66.22    73.57    86.33
          (Kelvin)            100.12   123.05   140.61   156.64   213.27
                              248.85   256.80   294.29   326.98   349.97
                              368.85   388.05   406.24   454.79   491.61
                              515.66   536.94   589.72   605.95   666.08
                              729.22   740.06   759.44   774.85   869.96
                              944.97  1008.97  1044.20  1064.98  1087.39
                             1126.69  1160.45  1175.41  1223.36  1230.53
                             1257.03  1306.50  1335.34  1383.59  1425.28
                             1453.32  1466.48  1475.63  1503.88  1536.31
                             1567.29  1618.51  1645.03  1649.98  1674.40
                             1708.00  1718.11  1732.63  1775.02  1807.54
                             1817.39  1872.64  1902.41  1915.17  1931.96
                             1938.22  1983.52  1990.01  1998.64  2009.49
                             2020.71  2030.57  2044.23  2054.31  2063.82
                             2068.35  2077.91  2116.19  2131.00  2162.06
                             2174.83  2176.80  2188.34  2190.50  2192.80
                             2203.82  2207.11  2213.49  2215.81  2222.09
                             2230.32  2546.81  2654.24  4353.01  4369.60
                             4371.68  4373.47  4379.04  4381.71  4389.23
                             4390.56  4405.71  4409.31  4411.29  4428.15
                             4450.80  4459.46  4476.19  4484.54  4488.48
                             4506.60  4516.02  4518.12  4535.91  4546.85
                             5144.16  5293.73

 Zero-point correction=                           0.366038 (Hartree/Particle)
 Thermal correction to Energy=                    0.385893
 Thermal correction to Enthalpy=                  0.386837
 Thermal correction to Gibbs Free Energy=         0.316366
 Sum of electronic and zero-point Energies=           -806.648168
 Sum of electronic and thermal Energies=              -806.628313
 Sum of electronic and thermal Enthalpies=            -806.627369
 Sum of electronic and thermal Free Energies=         -806.697840

                     E (Thermal)             CV                S
                      KCal/Mol        Cal/Mol-Kelvin    Cal/Mol-Kelvin
 Total                  242.152             72.602            148.319
 Electronic               0.000              0.000              0.000
 Translational            0.889              2.981             42.379
 Rotational               0.889              2.981             33.375
 Vibrational            240.374             66.640             72.565
 Vibration     1          0.594              1.983              5.737
 Vibration     2          0.594              1.981              5.311
 Vibration     3          0.595              1.979              4.981
 Vibration     4          0.595              1.977              4.773
 Vibration     5          0.597              1.973              4.457
 Vibration     6          0.598              1.969              4.165
 Vibration     7          0.601              1.959              3.760
 Vibration     8          0.603              1.951              3.499
 Vibration     9          0.606              1.942              3.289
 Vibration    10          0.618              1.905              2.695
 Vibration    11          0.626              1.876              2.403
 Vibration    12          0.629              1.869              2.344
 Vibration    13          0.640              1.833              2.092
 Vibration    14          0.651              1.799              1.900
 Vibration    15          0.659              1.774              1.779
 Vibration    16          0.666              1.752              1.686
 Vibration    17          0.674              1.729              1.598
 Vibration    18          0.681              1.706              1.519
 Vibration    19          0.703              1.643              1.330
 Vibration    20          0.721              1.592              1.204
 Vibration    21          0.733              1.558              1.129
 Vibration    22          0.745              1.527              1.067
 Vibration    23          0.774              1.449              0.927
 Vibration    24          0.784              1.424              0.888
 Vibration    25          0.821              1.332              0.758
 Vibration    26          0.862              1.235              0.641
 Vibration    27          0.869              1.218              0.623
 Vibration    28          0.883              1.188              0.592
 Vibration    29          0.894              1.165              0.568
 Vibration    30          0.963              1.022              0.442

                           ! Non-Optimized Parameters !
 Normal termination of Gaussian 16 at Fri Dec 11 12:53:07 2020.

 ----------------------------------------------------------------------
 # B3LYP/6-311++G(d,p) empiricaldispersion=gd3bj scf=xqc pop=npa geom=c
 heck
 ----------------------------------------------------------------------

 --------------------------------------
 CID_61181681_JID_7567_Energie_neutraal
 --------------------------------------
 Structure from the checkpoint file:  "JID_7567.chk"
 Charge =  0 Multiplicity = 1

 SCF Done:  E(RB3LYP) =  -807.259050652     A.U. after   15 cycles
 Normal termination of Gaussian 16 at Fri Dec 11 13:00:56 2020.

 ----------------------------------------------------------------------
 # B3LYP/6-311++G(d,p) empiricaldispersion=gd3bj scf=xqc pop=npa geom=c
 heck
 ----------------------------------------------------------------------

 ------------------------------------
 CID_61181681_JID_7567_Energie_kation
 ------------------------------------
 Structure from the checkpoint file:  "JID_7567.chk"
 Charge =  1 Multiplicity = 2

 SCF Done:  E(UB3LYP) =  -806.945423432     A.U. after   29 cycles
 Normal termination of Gaussian 16 at Fri Dec 11 13:19:42 2020.
 Gaussian 16:  ES64L-G16RevA.03 25-Dec-2016

 ----------------------------------------------------------------------
 # B3LYP/6-311++G(d,p) empiricaldispersion=gd3bj scf=xqc pop=npa geom=c
 heck
 ----------------------------------------------------------------------

 -----------------------------------
 CID_61181681_JID_7567_Energie_anion
 -----------------------------------
 Structure from the checkpoint file:  "JID_7567.chk"
 Charge = -1 Multiplicity = 2

                         Standard orientation:
 ---------------------------------------------------------------------
 Center     Atomic      Atomic             Coordinates (Angstroms)
 Number     Number       Type             X           Y           Z
 ---------------------------------------------------------------------
      1          6           0        5.282645   -0.482220   -0.724963
      2          6           0        4.349501   -1.180129    0.268901
      3          6           0        3.487459   -0.217704    1.100876
      4          6           0        2.554682    0.694140    0.291175
      5          6           0        1.573080   -0.064000   -0.607858
      6          7           0        0.778445   -1.072826    0.117432
      7          6           0       -0.586861   -1.257656   -0.132885
      8          8           0       -1.038979   -2.367177   -0.404241
      9          7           0       -1.378225   -0.130439   -0.009982
     10          6           0       -0.982528    0.974975    0.834184
     11          6           0       -0.621943    2.285930    0.149142
     12          8           0       -0.087120    3.209635    0.719909
     13          8           0       -0.985324    2.338637   -1.154476
     14          6           0       -2.785921   -0.170043   -0.471902
     15          6           0       -2.859072   -0.442386   -1.975976
     16          6           0       -3.671689   -1.135017    0.335881
     17          6           0       -3.609596   -0.925101    1.849381
     18          1           0        4.723883    0.060725   -1.495552
     19          1           0        5.929119   -1.204597   -1.235195
     20          1           0        5.928022    0.242545   -0.213594
     21          1           0        3.707425   -1.888422   -0.274005
     22          1           0        4.947117   -1.791488    0.957117
     23          1           0        2.879604   -0.799429    1.805444
     24          1           0        4.147762    0.412760    1.711261
     25          1           0        1.998995    1.338436    0.982304
     26          1           0        3.140633    1.369289   -0.345928
     27          1           0        0.887778    0.630791   -1.097445
     28          1           0        2.121003   -0.563051   -1.418362
     29          1           0        1.211993   -1.989141    0.109650
     30          1           0       -1.792818    1.217631    1.533617
     31          1           0       -0.126552    0.685475    1.445214
     32          1           0       -0.725731    3.226073   -1.467737
     33          1           0       -3.152049    0.849234   -0.302342
     34          1           0       -2.479622   -1.441145   -2.203145
     35          1           0       -3.898657   -0.380716   -2.316105
     36          1           0       -2.268607    0.298427   -2.522552
     37          1           0       -4.703502   -0.995696   -0.013901
     38          1           0       -3.378673   -2.158992    0.093814
     39          1           0       -3.904212    0.093997    2.132898
     40          1           0       -4.282950   -1.616885    2.366576
     41          1           0       -2.598661   -1.106458    2.230549
 ---------------------------------------------------------------------

 SCF Done:  E(UB3LYP) =  -807.249928254     A.U. after   33 cycles
 SCF Done:  E(UB3LYP) =  -807.249928254     a.u. after    1 cycles

 The electronic state is 2-A.
 Alpha  occ. eigenvalues --  -19.08066 -19.02850 -18.99459 -14.25189 -14.23583
 Alpha  occ. eigenvalues --  -10.22038 -10.20491 -10.13630 -10.12100 -10.11477
 Alpha  occ. eigenvalues --  -10.08061 -10.07743 -10.07621 -10.07548 -10.07497
 Alpha  occ. eigenvalues --  -10.07065 -10.06335  -1.02272  -0.96040  -0.93426
 Alpha  occ. eigenvalues --   -0.85652  -0.82259  -0.71680  -0.70737  -0.66415
 Alpha  occ. eigenvalues --   -0.65562  -0.63646  -0.59572  -0.55965  -0.53810
 Alpha  occ. eigenvalues --   -0.53466  -0.52535  -0.47563  -0.45847  -0.44807
 Alpha  occ. eigenvalues --   -0.41464  -0.40907  -0.39479  -0.39087  -0.38431
 Alpha  occ. eigenvalues --   -0.36904  -0.36836  -0.35345  -0.34608  -0.34261
 Alpha  occ. eigenvalues --   -0.33251  -0.33051  -0.32020  -0.31470  -0.31299
 Alpha  occ. eigenvalues --   -0.30703  -0.29301  -0.29074  -0.28209  -0.27786
 Alpha  occ. eigenvalues --   -0.27093  -0.25984  -0.25186  -0.24765  -0.24175
 Alpha  occ. eigenvalues --   -0.24123  -0.23786  -0.23034  -0.20726  -0.19053
 Alpha  occ. eigenvalues --   -0.15886  -0.15421   0.03907
 Alpha virt. eigenvalues --    0.05455   0.06201   0.07302   0.07634   0.07692
 Alpha virt. eigenvalues --    0.07859   0.08578   0.08886   0.09581   0.10193
 Alpha virt. eigenvalues --    0.10678   0.10792   0.11005   0.11511   0.11900

  Beta  occ. eigenvalues --  -19.07998 -19.02832 -18.99456 -14.25187 -14.23579
  Beta  occ. eigenvalues --  -10.22030 -10.20489 -10.13607 -10.12089 -10.11458
  Beta  occ. eigenvalues --  -10.08045 -10.07736 -10.07610 -10.07531 -10.07489
  Beta  occ. eigenvalues --  -10.07032 -10.06323  -1.02182  -0.96035  -0.93353
  Beta  occ. eigenvalues --   -0.85643  -0.82247  -0.71655  -0.70712  -0.66371
  Beta  occ. eigenvalues --   -0.65527  -0.63612  -0.59530  -0.55936  -0.53761
  Beta  occ. eigenvalues --   -0.53368  -0.52472  -0.47521  -0.45813  -0.44764
  Beta  occ. eigenvalues --   -0.41432  -0.40880  -0.39439  -0.39056  -0.38393
  Beta  occ. eigenvalues --   -0.36879  -0.36809  -0.35318  -0.34582  -0.34234
  Beta  occ. eigenvalues --   -0.33227  -0.33027  -0.31998  -0.31432  -0.31254
  Beta  occ. eigenvalues --   -0.30670  -0.29269  -0.29049  -0.28180  -0.27765
  Beta  occ. eigenvalues --   -0.27067  -0.25963  -0.25158  -0.24738  -0.24151
  Beta  occ. eigenvalues --   -0.24091  -0.23756  -0.22995  -0.20669  -0.19042
  Beta  occ. eigenvalues --   -0.15873  -0.15403
  Beta virt. eigenvalues --    0.05913   0.06224   0.07197   0.07595   0.07775
  Beta virt. eigenvalues --    0.07935   0.08150   0.08899   0.09417   0.09741
  Beta virt. eigenvalues --    0.10316   0.10794   0.10876   0.11321   0.11553

 Mulliken charges and spin densities:
               1          2
     1  C    0.860552  -1.498127
     2  C   -0.726461   0.649028
     3  C   -0.384336  -0.014046
     4  C    0.373968  -0.475406
     5  C   -0.117649  -0.261500
     6  N   -0.254777   0.088999
     7  C    0.054710  -0.194089
     8  O   -0.290531  -0.002189
     9  N    0.377400  -0.074141
    10  C    0.035440  -0.529060
    11  C    0.087524  -0.293674
    12  O   -0.209163   0.029913
    13  O   -0.159424   0.060836
    14  C   -0.360762   0.237014
    15  C    0.368196  -0.757415
    16  C   -0.521965   0.233181
    17  C    0.008297  -0.594163
    18  H   -0.181762   0.323605
    19  H   -0.282878   0.420887
    20  H   -0.007160   0.142424
    21  H    0.130914  -0.030301
    22  H   -0.369878   0.533680
    23  H    0.128312   0.028625
    24  H   -0.039439   0.198169
    25  H    0.218828  -0.065153
    26  H   -0.032389   0.208592
    27  H    0.422402  -0.252940
    28  H   -0.197352   0.437228
    29  H    0.287900   0.030388
    30  H    0.089547   0.095064
    31  H    0.202664   0.062636
    32  H   -0.630039   0.950591
    33  H   -0.265329   0.447274
    34  H    0.157421   0.018353
    35  H   -0.031977   0.168127
    36  H    0.051391   0.108061
    37  H   -0.017987   0.159350
    38  H    0.202278  -0.016666
    39  H   -0.071647   0.211934
    40  H    0.025976   0.114824
    41  H    0.069185   0.100087
 Sum of Mulliken charges =  -1.00000   1.00000

 Dipole moment (field-independent basis, Debye):
    X=             -2.3575    Y=             -3.5934    Z=              2.9902  Tot=              5.2356
 Quadrupole moment (field-independent basis, Debye-Ang):
   XX=           -194.0926   YY=           -167.3441   ZZ=           -143.1960
   XY=              8.7809   XZ=              1.6751   YZ=              5.6804

 Summary of Natural Population Analysis:

                                       Natural Population
                Natural  -----------------------------------------------
    Atom  No    Charge         Core      Valence    Rydberg      Total
 -----------------------------------------------------------------------
      C    1   -0.28620      0.99967     2.28197    0.00456     3.28620
      C    2   -0.19301      0.99964     2.18483    0.00854     3.19301
      C    3   -0.19095      0.99963     2.18399    0.00734     3.19095
      C    4   -0.19745      0.99962     2.18910    0.00873     3.19745
      C    5   -0.09623      0.99960     2.08581    0.01082     3.09623
      N    6   -0.34467      0.99968     2.83597    0.00902     3.84467
      C    7    0.41760      0.99966     1.55977    0.02297     2.58240
      O    8   -0.33785      0.99988     3.33323    0.00475     4.33785
      N    9   -0.27069      0.99962     2.75848    0.01259     3.77069
      C   10   -0.13886      0.99954     2.12732    0.01199     3.13886
      C   11    0.40062      0.99972     1.57463    0.02504     2.59938
      O   12   -0.30421      0.99987     3.29826    0.00609     4.30421
      O   13   -0.34217      0.99988     3.33440    0.00789     4.34217
      C   14    0.00104      0.99959     1.98587    0.01350     2.99896
      C   15   -0.29069      0.99963     2.28506    0.00599     3.29069
      C   16   -0.19889      0.99961     2.19066    0.00863     3.19889
      C   17   -0.28783      0.99967     2.28327    0.00490     3.28783
      H   18    0.09726      0.00000     0.40146    0.00128     0.40274
      H   19    0.09970      0.00000     0.39905    0.00126     0.40030
      H   20    0.09577      0.00000     0.40294    0.00129     0.40423
      H   21    0.08954      0.00000     0.40913    0.00133     0.41046
      H   22    0.09661      0.00000     0.40233    0.00107     0.40339
      H   23    0.09800      0.00000     0.40069    0.00132     0.40200
      H   24    0.09668      0.00000     0.40230    0.00102     0.40332
      H   25    0.10175      0.00000     0.39689    0.00136     0.39825
      H   26    0.10057      0.00000     0.39825    0.00119     0.39943
      H   27    0.10488      0.00000     0.39257    0.00255     0.39512
      H   28    0.09323      0.00000     0.40558    0.00119     0.40677
      H   29    0.19098      0.00000     0.30640    0.00263     0.30902
      H   30    0.11503      0.00000     0.38378    0.00120     0.38497
      H   31    0.12281      0.00000     0.37582    0.00137     0.37719
      H   32    0.25020      0.00000     0.22211    0.02770     0.24980
      H   33    0.09682      0.00000     0.40100    0.00218     0.40318
      H   34    0.10748      0.00000     0.39161    0.00091     0.39252
      H   35    0.09762      0.00000     0.40162    0.00076     0.40238
      H   36    0.10839      0.00000     0.39038    0.00123     0.39161
      H   37    0.09485      0.00000     0.40426    0.00089     0.40515
      H   38    0.11055      0.00000     0.38836    0.00109     0.38945
      H   39    0.09487      0.00000     0.40418    0.00095     0.40513
      H   40    0.09877      0.00000     0.40059    0.00064     0.40123
      H   41    0.09810      0.00000     0.40094    0.00095     0.40190
 =======================================================================
   * Total *    0.00000     16.99449    49.77481    0.23070    67.00000

 Normal termination of Gaussian 16 at Fri Dec 11 13:41:33 2020.
