 Gaussian 16, Revision A.03,

 -----------------------------------------------------------
 # opt freq B3LYP/6-31G(d) empiricaldispersion=gd3bj scf=xqc
 -----------------------------------------------------------

 -------------------------------
 CID_154105515_JID_3148_neutraal
 -------------------------------
 Symbolic Z-matrix:
 Charge =  0 Multiplicity = 1

 SCF Done:  E(RB3LYP) =  -607.753644725     A.U. after   15 cycles
 SCF Done:  E(RB3LYP) =  -607.758228286     A.U. after   12 cycles
 SCF Done:  E(RB3LYP) =  -607.759352840     A.U. after   13 cycles
 SCF Done:  E(RB3LYP) =  -607.759663859     A.U. after   12 cycles
 SCF Done:  E(RB3LYP) =  -607.760098295     A.U. after   12 cycles
 SCF Done:  E(RB3LYP) =  -607.760214252     A.U. after   12 cycles
 SCF Done:  E(RB3LYP) =  -607.760230055     A.U. after   11 cycles
 SCF Done:  E(RB3LYP) =  -607.760237192     A.U. after    9 cycles
 SCF Done:  E(RB3LYP) =  -607.760238168     A.U. after    9 cycles
 SCF Done:  E(RB3LYP) =  -607.760238306     A.U. after    8 cycles
 Optimization completed.
    -- Stationary point found.
 Normal termination of Gaussian 16 at Wed Dec  9 22:23:23 2020.

 --------------------------------------------------------------------
 #N Geom=AllCheck Guess=TCheck SCRF=Check GenChk RB3LYP/6-31G(d) Freq
 --------------------------------------------------------------------

 Structure from the checkpoint file:  "JID_3148.chk"
 -------------------------------
 CID_154105515_JID_3148_neutraal
 -------------------------------
 Charge =  0 Multiplicity = 1

 SCF Done:  E(RB3LYP) =  -607.760238306     A.U. after    1 cycles

  Exact polarizability: 136.710  -1.075 113.446  -0.700  -7.773  57.208
 Approx polarizability: 196.573  -7.084 190.233  -1.479 -17.937  95.595

                      1                      2                      3
                      A                      A                      A
 Frequencies --     44.6379                62.3514                84.1258
 Red. masses --      4.3760                 8.1012                 6.6877
 Frc consts  --      0.0051                 0.0186                 0.0279
 IR Inten    --      0.8007                 4.5777                 1.6931

                      4                      5                      6
                      A                      A                      A
 Frequencies --     89.0256               132.0967               223.2348
 Red. masses --     11.7744                 5.6419                 6.5056
 Frc consts  --      0.0550                 0.0580                 0.1910
 IR Inten    --      1.8733                 2.9431                 5.4993

                      7                      8                      9
                      A                      A                      A
 Frequencies --    278.2265               327.0869               366.8427
 Red. masses --      5.5346                 6.1926                 4.6099
 Frc consts  --      0.2524                 0.3903                 0.3655
 IR Inten    --      1.9390                 3.7524                 1.9717

                     10                     11                     12
                      A                      A                      A
 Frequencies --    383.1147               418.3924               421.4854
 Red. masses --      4.8216                 3.1153                 2.7749
 Frc consts  --      0.4170                 0.3213                 0.2904
 IR Inten    --      1.8453                 1.7657                 5.1997

                     13                     14                     15
                      A                      A                      A
 Frequencies --    492.3702               534.5098               554.4527
 Red. masses --      6.6978                 2.8314                 1.2861
 Frc consts  --      0.9567                 0.4766                 0.2329
 IR Inten    --      6.1293                13.4154                89.8909

                     16                     17                     18
                      A                      A                      A
 Frequencies --    613.0403               633.8497               679.2153
 Red. masses --      4.3152                 6.2360                 6.1314
 Frc consts  --      0.9555                 1.4761                 1.6666
 IR Inten    --     41.9766                 3.0087                12.2485

                     19                     20                     21
                      A                      A                      A
 Frequencies --    708.5964               753.5315               775.9766
 Red. masses --      2.0918                 4.7221                 3.9115
 Frc consts  --      0.6188                 1.5798                 1.3877
 IR Inten    --     28.5306                 8.0827                55.9146

                     22                     23                     24
                      A                      A                      A
 Frequencies --    780.5182               844.2897               918.3848
 Red. masses --      2.4614                 1.2479                 3.5518
 Frc consts  --      0.8835                 0.5241                 1.7650
 IR Inten    --     15.2269                 0.3013                 6.7433

                     25                     26                     27
                      A                      A                      A
 Frequencies --    919.9169               933.7092               964.7904
 Red. masses --      1.6301                 2.7090                 1.3401
 Frc consts  --      0.8127                 1.3915                 0.7349
 IR Inten    --      3.2693                20.2975                 0.4544

                     28                     29                     30
                      A                      A                      A
 Frequencies --    993.1385              1022.8709              1041.8358
 Red. masses --      1.2563                 5.8939                 3.2704
 Frc consts  --      0.7301                 3.6333                 2.0915
 IR Inten    --      0.1439                 1.7149                62.5495

                     31                     32                     33
                      A                      A                      A
 Frequencies --   1068.6696              1121.4802              1172.5159
 Red. masses --      2.0196                 1.6461                 3.6744
 Frc consts  --      1.3589                 1.2198                 2.9763
 IR Inten    --      7.3292                 2.1158               174.8377

                     34                     35                     36
                      A                      A                      A
 Frequencies --   1196.7844              1206.1028              1222.8609
 Red. masses --      1.0954                 1.9780                 1.1502
 Frc consts  --      0.9244                 1.6953                 1.0134
 IR Inten    --      4.8341               199.1953                 0.3247

                     37                     38                     39
                      A                      A                      A
 Frequencies --   1274.1286              1351.8555              1356.4902
 Red. masses --      1.8711                 2.5182                 2.2184
 Frc consts  --      1.7897                 2.7114                 2.4050
 IR Inten    --     73.0531                17.6538                 5.7606

                     40                     41                     42
                      A                      A                      A
 Frequencies --   1374.6459              1399.6507              1455.4319
 Red. masses --      1.6334                 1.3291                 2.2880
 Frc consts  --      1.8185                 1.5341                 2.8555
 IR Inten    --      1.8482                17.2187               231.0271

                     43                     44                     45
                      A                      A                      A
 Frequencies --   1494.8842              1508.5451              1552.3992
 Red. masses --      1.2160                 2.3945                 2.2691
 Frc consts  --      1.6011                 3.2105                 3.2220
 IR Inten    --     73.4283                13.4156                73.9570

                     46                     47                     48
                      A                      A                      A
 Frequencies --   1650.2011              1664.6741              1841.2341
 Red. masses --      5.8629                 5.5119                 9.7036
 Frc consts  --      9.4067                 8.9994                19.3822
 IR Inten    --      3.3013                24.2870               383.3760

                     49                     50                     51
                      A                      A                      A
 Frequencies --   2373.6049              3100.0367              3150.2125
 Red. masses --     12.5859                 1.0604                 1.1044
 Frc consts  --     41.7782                 6.0042                 6.4571
 IR Inten    --      0.4738                 5.3863                 0.2889

                     52                     53                     54
                      A                      A                      A
 Frequencies --   3191.1315              3200.3832              3211.3976
 Red. masses --      1.0855                 1.0896                 1.0930
 Frc consts  --      6.5128                 6.5753                 6.6417
 IR Inten    --      0.2433                12.1535                23.7803

                     55                     56                     57
                      A                      A                      A
 Frequencies --   3219.2125              3253.2719              3737.3060
 Red. masses --      1.0967                 1.0929                 1.0648
 Frc consts  --      6.6961                 6.8150                 8.7628
 IR Inten    --      9.5226                 1.3124               114.9295

 - Thermochemistry -
 -------------------
 Temperature   298.150 Kelvin.  Pressure   1.00000 Atm.
 Atom     1 has atomic number  6 and mass  12.00000

 Molecular mass:   176.05858 amu.
 Principal axes and moments of inertia in atomic units:
                           1         2         3
     Eigenvalues --  1421.652932863.639113990.80435
           X            0.99986   0.01533  -0.00679
           Y           -0.01534   0.99988  -0.00118
           Z            0.00677   0.00129   0.99998
 This molecule is an asymmetric top.
 Rotational symmetry number  1.
 Warning -- assumption of classical behavior for rotation
           may cause significant error
 Rotational temperatures (Kelvin)      0.06092     0.03025     0.02170
 Rotational constants (GHZ):           1.26947     0.63023     0.45222
 Zero-point vibrational energy     420754.9 (Joules/Mol)
                                  100.56284 (Kcal/Mol)
 Warning -- explicit consideration of  16 degrees of freedom as
           vibrations may cause significant error
 Vibrational temperatures:     64.22    89.71   121.04   128.09   190.06
          (Kelvin)            321.19   400.31   470.61   527.80   551.22
                              601.97   606.42   708.41   769.04   797.73
                              882.03   911.97   977.24  1019.51  1084.16
                             1116.46  1122.99  1214.74  1321.35  1323.56
                             1343.40  1388.12  1428.90  1471.68  1498.97
                             1537.58  1613.56  1686.99  1721.91  1735.31
                             1759.42  1833.19  1945.02  1951.69  1977.81
                             2013.79  2094.04  2150.80  2170.46  2233.56
                             2374.27  2395.09  2649.13  3415.09  4460.26
                             4532.45  4591.33  4604.64  4620.48  4631.73
                             4680.73  5377.15

 Zero-point correction=                           0.160257 (Hartree/Particle)
 Thermal correction to Energy=                    0.171507
 Thermal correction to Enthalpy=                  0.172451
 Thermal correction to Gibbs Free Energy=         0.121913
 Sum of electronic and zero-point Energies=           -607.599981
 Sum of electronic and thermal Energies=              -607.588731
 Sum of electronic and thermal Enthalpies=            -607.587787
 Sum of electronic and thermal Free Energies=         -607.638326

                     E (Thermal)             CV                S
                      KCal/Mol        Cal/Mol-Kelvin    Cal/Mol-Kelvin
 Total                  107.622             42.020            106.367
 Electronic               0.000              0.000              0.000
 Translational            0.889              2.981             41.404
 Rotational               0.889              2.981             31.164
 Vibrational            105.845             36.059             33.800
 Vibration     1          0.595              1.980              5.042
 Vibration     2          0.597              1.972              4.381
 Vibration     3          0.601              1.960              3.792
 Vibration     4          0.602              1.957              3.681
 Vibration     5          0.612              1.921              2.915
 Vibration     6          0.649              1.806              1.933
 Vibration     7          0.679              1.714              1.545
 Vibration     8          0.711              1.621              1.274
 Vibration     9          0.740              1.540              1.093
 Vibration    10          0.752              1.506              1.027
 Vibration    11          0.781              1.430              0.897
 Vibration    12          0.784              1.424              0.887
 Vibration    13          0.848              1.267              0.677
 Vibration    14          0.889              1.174              0.577
 Vibration    15          0.910              1.130              0.535
 Vibration    16          0.972              1.004              0.428

 Optimization completed.
    -- Stationary point found.
 Normal termination of Gaussian 16 at Wed Dec  9 22:28:10 2020.

 ----------------------------------------------------------------------
 # B3LYP/6-311++G(d,p) empiricaldispersion=gd3bj scf=xqc pop=npa geom=c
 heck
 ----------------------------------------------------------------------

 ---------------------------------------
 CID_154105515_JID_3148_Energie_neutraal
 ---------------------------------------
 Structure from the checkpoint file:  "JID_3148.chk"
 Charge =  0 Multiplicity = 1

 SCF Done:  E(RB3LYP) =  -607.937595297     A.U. after   15 cycles
 Normal termination of Gaussian 16 at Wed Dec  9 22:30:04 2020.

 ----------------------------------------------------------------------
 # B3LYP/6-311++G(d,p) empiricaldispersion=gd3bj scf=xqc pop=npa geom=c
 heck
 ----------------------------------------------------------------------

 -------------------------------------
 CID_154105515_JID_3148_Energie_kation
 -------------------------------------
 Structure from the checkpoint file:  "JID_3148.chk"
 Charge =  1 Multiplicity = 2

 SCF Done:  E(UB3LYP) =  -607.617053664     A.U. after   23 cycles
 Normal termination of Gaussian 16 at Wed Dec  9 22:34:12 2020.
 Gaussian 16:  ES64L-G16RevA.03 25-Dec-2016

 ----------------------------------------------------------------------
 # B3LYP/6-311++G(d,p) empiricaldispersion=gd3bj scf=xqc pop=npa geom=c
 heck
 ----------------------------------------------------------------------

 ------------------------------------
 CID_154105515_JID_3148_Energie_anion
 ------------------------------------
 Structure from the checkpoint file:  "JID_3148.chk"
 Charge = -1 Multiplicity = 2

                         Standard orientation:
 ---------------------------------------------------------------------
 Center     Atomic      Atomic             Coordinates (Angstroms)
 Number     Number       Type             X           Y           Z
 ---------------------------------------------------------------------
      1          6           0        3.431451    0.383134   -0.138809
      2          6           0        2.527525    1.430868   -0.304464
      3          6           0        1.157584    1.209242   -0.163327
      4          6           0        0.688062   -0.067359    0.162286
      5          6           0        1.591594   -1.121911    0.333564
      6          6           0        2.955620   -0.891542    0.174195
      7          7           0       -0.714677   -0.274237    0.361201
      8          6           0       -1.494610    0.778706    1.005910
      9          6           0       -2.094299    1.733191    0.054843
     10          7           0       -2.547775    2.487526   -0.700645
     11          6           0       -1.352905   -1.368434   -0.184731
     12          8           0       -0.824209   -2.281572   -0.783231
     13          8           0       -2.695265   -1.309960    0.044831
     14          1           0        4.497042    0.556031   -0.255611
     15          1           0        2.881421    2.425740   -0.558061
     16          1           0        0.461401    2.024699   -0.329835
     17          1           0        1.223791   -2.110066    0.575994
     18          1           0        3.650943   -1.715405    0.305895
     19          1           0       -2.293128    0.329278    1.599021
     20          1           0       -0.832089    1.323564    1.683573
     21          1           0       -3.056556   -2.109964   -0.374469
 ---------------------------------------------------------------------

 SCF Done:  E(UB3LYP) =  -607.927874415     A.U. after   33 cycles
 SCF Done:  E(UB3LYP) =  -607.927874415     a.u. after    1 cycles

 The electronic state is 2-A.
 Alpha  occ. eigenvalues --  -19.07215 -19.00785 -14.27515 -14.22609 -10.23437
 Alpha  occ. eigenvalues --  -10.16074 -10.12819 -10.12374 -10.08510 -10.08379
 Alpha  occ. eigenvalues --  -10.08312 -10.08185 -10.07972  -1.02136  -0.92573
 Alpha  occ. eigenvalues --   -0.87833  -0.81909  -0.76319  -0.68098  -0.66128
 Alpha  occ. eigenvalues --   -0.65034  -0.56477  -0.52247  -0.49299  -0.46855
 Alpha  occ. eigenvalues --   -0.44233  -0.42628  -0.40647  -0.38269  -0.36765
 Alpha  occ. eigenvalues --   -0.36505  -0.35518  -0.33877  -0.33291  -0.32110
 Alpha  occ. eigenvalues --   -0.28986  -0.28016  -0.27477  -0.26326  -0.25150
 Alpha  occ. eigenvalues --   -0.24436  -0.23369  -0.20567  -0.19505  -0.16535
 Alpha  occ. eigenvalues --   -0.14335   0.04278
 Alpha virt. eigenvalues --    0.06066   0.07064   0.07310   0.07555   0.07938
 Alpha virt. eigenvalues --    0.09157   0.09690   0.10031   0.11095   0.12083
 Alpha virt. eigenvalues --    0.12404   0.13278   0.13809   0.14243   0.14983

  Beta  occ. eigenvalues --  -19.07157 -19.00764 -14.27513 -14.22597 -10.23421
  Beta  occ. eigenvalues --  -10.16006 -10.12792 -10.12372 -10.08507 -10.08336
  Beta  occ. eigenvalues --  -10.08288 -10.08179 -10.07926  -1.02059  -0.92505
  Beta  occ. eigenvalues --   -0.87790  -0.81877  -0.76258  -0.68010  -0.66045
  Beta  occ. eigenvalues --   -0.64965  -0.56382  -0.52188  -0.49218  -0.46789
  Beta  occ. eigenvalues --   -0.44166  -0.42547  -0.40589  -0.38207  -0.36701
  Beta  occ. eigenvalues --   -0.36453  -0.35454  -0.33834  -0.33254  -0.32055
  Beta  occ. eigenvalues --   -0.28906  -0.27963  -0.27423  -0.26286  -0.25116
  Beta  occ. eigenvalues --   -0.24396  -0.23314  -0.20490  -0.19433  -0.16405
  Beta  occ. eigenvalues --   -0.14210
  Beta virt. eigenvalues --    0.06571   0.07285   0.07590   0.07617   0.08063
  Beta virt. eigenvalues --    0.08805   0.09713   0.09877   0.10659   0.11257
  Beta virt. eigenvalues --    0.12372   0.12843   0.13388   0.13869   0.14342

 Mulliken charges and spin densities:
               1          2
     1  C    1.266943  -1.653545
     2  C    0.288725  -0.329141
     3  C    0.287601   0.272480
     4  C   -1.159860   0.265468
     5  C   -0.524246   0.419560
     6  C    0.154492  -0.324241
     7  N    0.386237  -0.092095
     8  C    0.370530  -0.759162
     9  C    0.550689  -0.431073
    10  N   -0.287197  -0.017701
    11  C    0.471407  -0.260242
    12  O   -0.327452   0.001566
    13  O   -0.287657   0.080337
    14  H   -0.275132   0.414169
    15  H   -0.487807   0.671431
    16  H    0.311100  -0.160262
    17  H   -0.020651   0.215174
    18  H   -0.178449   0.348787
    19  H   -0.689047   0.942347
    20  H   -0.426351   0.642181
    21  H   -0.423878   0.753962
 Sum of Mulliken charges =  -1.00000   1.00000

 Dipole moment (field-independent basis, Debye):
    X=              2.9215    Y=             -0.0965    Z=             -0.2392  Tot=              2.9329
 Quadrupole moment (field-independent basis, Debye-Ang):
   XX=           -143.4849   YY=           -116.6743   ZZ=           -104.0888
   XY=             -4.5746   XZ=              2.0401   YZ=             -0.8195

 Summary of Natural Population Analysis:

                                       Natural Population
                Natural  -----------------------------------------------
    Atom  No    Charge         Core      Valence    Rydberg      Total
 -----------------------------------------------------------------------
      C    1   -0.10058      0.99956     2.09078    0.01024     3.10058
      C    2   -0.09800      0.99957     2.08790    0.01053     3.09800
      C    3   -0.10984      0.99951     2.10109    0.00923     3.10984
      C    4    0.08523      0.99945     1.90258    0.01274     2.91477
      C    5   -0.09691      0.99951     2.08853    0.00887     3.09691
      C    6   -0.09456      0.99956     2.08544    0.00956     3.09456
      N    7   -0.25841      0.99961     2.74454    0.01426     3.75841
      C    8   -0.14098      0.99951     2.12842    0.01305     3.14098
      C    9    0.15682      0.99964     1.82816    0.01538     2.84318
      N   10   -0.17677      0.99979     2.66524    0.01173     3.67677
      C   11    0.46972      0.99968     1.50550    0.02510     2.53028
      O   12   -0.32120      0.99987     3.31540    0.00593     4.32120
      O   13   -0.35036      0.99988     3.34364    0.00684     4.35036
      H   14    0.10130      0.00000     0.39742    0.00129     0.39870
      H   15    0.10196      0.00000     0.39701    0.00103     0.39804
      H   16    0.10689      0.00000     0.39135    0.00176     0.39311
      H   17    0.11349      0.00000     0.38537    0.00114     0.38651
      H   18    0.10039      0.00000     0.39870    0.00091     0.39961
      H   19    0.13616      0.00000     0.35929    0.00455     0.36384
      H   20    0.12489      0.00000     0.37276    0.00236     0.37511
      H   21    0.25079      0.00000     0.23378    0.01544     0.24921
 =======================================================================
   * Total *    0.00000     12.99516    32.82289    0.18195    46.00000

 Normal termination of Gaussian 16 at Wed Dec  9 22:40:16 2020.
