 Gaussian 16, Revision A.03,

 -----------------------------------------------------------
 # opt freq B3LYP/6-31G(d) empiricaldispersion=gd3bj scf=xqc
 -----------------------------------------------------------

 -------------------------------
 CID_129213039_JID_6609_neutraal
 -------------------------------
 Symbolic Z-matrix:
 Charge =  0 Multiplicity = 1

 SCF Done:  E(RB3LYP) =  -1028.79378963     A.U. after   15 cycles
 SCF Done:  E(RB3LYP) =  -1028.79730448     A.U. after   12 cycles
 SCF Done:  E(RB3LYP) =  -1028.79790872     A.U. after   12 cycles
 SCF Done:  E(RB3LYP) =  -1028.79812119     A.U. after   12 cycles
 SCF Done:  E(RB3LYP) =  -1028.79833424     A.U. after   12 cycles
 SCF Done:  E(RB3LYP) =  -1028.79870332     A.U. after   12 cycles
 SCF Done:  E(RB3LYP) =  -1028.79770681     A.U. after   15 cycles
 SCF Done:  E(RB3LYP) =  -1028.79928491     A.U. after   12 cycles
 SCF Done:  E(RB3LYP) =  -1028.79950950     A.U. after   12 cycles
 SCF Done:  E(RB3LYP) =  -1028.79955420     A.U. after   11 cycles
 SCF Done:  E(RB3LYP) =  -1028.79956084     A.U. after    9 cycles
 SCF Done:  E(RB3LYP) =  -1028.79956105     A.U. after    8 cycles
 SCF Done:  E(RB3LYP) =  -1028.79956116     A.U. after    8 cycles
 SCF Done:  E(RB3LYP) =  -1028.79956121     A.U. after    7 cycles
 SCF Done:  E(RB3LYP) =  -1028.79956122     A.U. after    6 cycles
 Optimization completed.
    -- Stationary point found.
 Normal termination of Gaussian 16 at Thu Dec 10 23:54:50 2020.

 --------------------------------------------------------------------
 #N Geom=AllCheck Guess=TCheck SCRF=Check GenChk RB3LYP/6-31G(d) Freq
 --------------------------------------------------------------------

 Structure from the checkpoint file:  "JID_6609.chk"
 -------------------------------
 CID_129213039_JID_6609_neutraal
 -------------------------------
 Charge =  0 Multiplicity = 1

 SCF Done:  E(RB3LYP) =  -1028.79956122     A.U. after    1 cycles

  Exact polarizability: 266.954  -3.172 154.755  -0.929  -7.194  90.167
 Approx polarizability: 348.876  -9.102 264.206  -3.840 -21.827 137.681

                      1                      2                      3
                      A                      A                      A
 Frequencies --     24.4568                42.0145                54.7523
 Red. masses --      3.2493                 3.8403                 4.3485
 Frc consts  --      0.0011                 0.0040                 0.0077
 IR Inten    --      0.2173                 1.0986                 0.8654

                      4                      5                      6
                      A                      A                      A
 Frequencies --     60.8988                81.3505               117.6569
 Red. masses --      4.0687                 4.6138                 3.9176
 Frc consts  --      0.0089                 0.0180                 0.0320
 IR Inten    --      4.0241                 2.5769                 0.7950

                      7                      8                      9
                      A                      A                      A
 Frequencies --    149.8599               159.7446               207.6006
 Red. masses --      1.2520                 2.5601                 3.2336
 Frc consts  --      0.0166                 0.0385                 0.0821
 IR Inten    --      0.6761                 1.4962                 0.7418

                     10                     11                     12
                      A                      A                      A
 Frequencies --    230.1290               239.0305               257.5563
 Red. masses --      2.7958                 1.1894                 1.6542
 Frc consts  --      0.0872                 0.0400                 0.0647
 IR Inten    --      2.4260                 0.2142                 0.2738

                     13                     14                     15
                      A                      A                      A
 Frequencies --    271.8443               281.3517               351.6453
 Red. masses --      2.0699                 4.0038                 3.7107
 Frc consts  --      0.0901                 0.1867                 0.2703
 IR Inten    --      0.2739                 1.5453                 1.2800

                     16                     17                     18
                      A                      A                      A
 Frequencies --    367.7250               408.8228               436.7462
 Red. masses --      4.3399                 3.6342                 3.8295
 Frc consts  --      0.3458                 0.3579                 0.4304
 IR Inten    --      7.7069                 2.3030                 2.9128

                     19                     20                     21
                      A                      A                      A
 Frequencies --    455.0566               514.4473               532.6428
 Red. masses --      4.3881                 3.7760                 6.1878
 Frc consts  --      0.5354                 0.5888                 1.0343
 IR Inten    --      1.7056                 1.1563                 0.0670

                     22                     23                     24
                      A                      A                      A
 Frequencies --    579.2654               621.5087               640.3349
 Red. masses --      2.7842                 5.3409                 3.2486
 Frc consts  --      0.5504                 1.2155                 0.7848
 IR Inten    --      4.4122                 0.1072                 6.3826

                     25                     26                     27
                      A                      A                      A
 Frequencies --    659.7117               677.6463               714.8238
 Red. masses --      7.8292                 6.1331                 6.3108
 Frc consts  --      2.0076                 1.6593                 1.8999
 IR Inten    --      2.2223                 1.7306                 1.1778

                     28                     29                     30
                      A                      A                      A
 Frequencies --    748.0029               777.1798               802.0484
 Red. masses --      1.2568                 5.3991                 5.1112
 Frc consts  --      0.4143                 1.9214                 1.9372
 IR Inten    --     40.8085                 5.6379                 7.7607

                     31                     32                     33
                      A                      A                      A
 Frequencies --    837.7535               848.1313               907.2165
 Red. masses --      1.2992                 1.5060                 2.6413
 Frc consts  --      0.5372                 0.6383                 1.2808
 IR Inten    --      0.0280                22.5405                 0.1780

                     34                     35                     36
                      A                      A                      A
 Frequencies --    942.5358               956.5640               973.6162
 Red. masses --      1.1833                 1.3859                 1.5157
 Frc consts  --      0.6194                 0.7472                 0.8465
 IR Inten    --      0.0996                 3.3816                 0.1472

                     37                     38                     39
                      A                      A                      A
 Frequencies --    977.1142               979.8613               983.3016
 Red. masses --      5.1975                 1.3947                 4.0312
 Frc consts  --      2.9237                 0.7890                 2.2964
 IR Inten    --     65.2232                 3.0863                11.3804

                     40                     41                     42
                      A                      A                      A
 Frequencies --    999.6998              1016.7994              1042.2567
 Red. masses --      1.1817                 1.5013                 3.4474
 Frc consts  --      0.6958                 0.9145                 2.2064
 IR Inten    --      5.2077                 5.5391                 7.5993

                     43                     44                     45
                      A                      A                      A
 Frequencies --   1069.4951              1090.7029              1115.6430
 Red. masses --      1.5710                 1.5237                 2.0578
 Frc consts  --      1.0587                 1.0680                 1.5091
 IR Inten    --     74.8331                 7.6121                10.9272

                     46                     47                     48
                      A                      A                      A
 Frequencies --   1135.6650              1171.3901              1193.2509
 Red. masses --      2.2974                 1.5362                 1.6659
 Frc consts  --      1.7458                 1.2419                 1.3975
 IR Inten    --      0.7438                 3.6495                 7.5905

                     49                     50                     51
                      A                      A                      A
 Frequencies --   1224.7016              1255.7145              1291.0330
 Red. masses --      2.0003                 2.2227                 4.1651
 Frc consts  --      1.7677                 2.0650                 4.0903
 IR Inten    --     26.1315                 1.2982                11.3945

                     52                     53                     54
                      A                      A                      A
 Frequencies --   1325.1270              1350.9059              1361.9752
 Red. masses --      3.7552                 1.8422                 1.3286
 Frc consts  --      3.8851                 1.9808                 1.4521
 IR Inten    --      6.0306                21.3852                 2.4475

                     55                     56                     57
                      A                      A                      A
 Frequencies --   1374.2927              1385.4728              1395.3949
 Red. masses --      2.1818                 1.2878                 4.2446
 Frc consts  --      2.4278                 1.4564                 4.8695
 IR Inten    --    107.6048                39.6207               205.0361

                     58                     59                     60
                      A                      A                      A
 Frequencies --   1415.3245              1427.3618              1446.5044
 Red. masses --      4.2996                 1.2262                 1.3420
 Frc consts  --      5.0744                 1.4719                 1.6544
 IR Inten    --      8.8958                 2.9544                 7.9873

                     61                     62                     63
                      A                      A                      A
 Frequencies --   1455.4853              1467.5421              1487.6731
 Red. masses --      2.0066                 3.4702                 1.0515
 Frc consts  --      2.5045                 4.4033                 1.3711
 IR Inten    --     34.8300                 7.0046                 7.6145

                     64                     65                     66
                      A                      A                      A
 Frequencies --   1506.1968              1517.1355              1521.5886
 Red. masses --      1.0580                 1.0448                 1.0475
 Frc consts  --      1.4142                 1.4169                 1.4289
 IR Inten    --     12.7119                 0.0032                 2.5924

                     67                     68                     69
                      A                      A                      A
 Frequencies --   1533.1868              1535.0705              1545.3899
 Red. masses --      1.0535                 1.3413                 1.9001
 Frc consts  --      1.4591                 1.8623                 2.6736
 IR Inten    --      9.9239                65.6979               203.9433

                     70                     71                     72
                      A                      A                      A
 Frequencies --   1571.2926              1628.6650              1658.1182
 Red. masses --      5.2440                 6.1597                 5.9129
 Frc consts  --      7.6283                 9.6267                 9.5782
 IR Inten    --    176.2925                51.8628                86.3103

                     73                     74                     75
                      A                      A                      A
 Frequencies --   3035.4761              3045.4120              3049.6347
 Red. masses --      1.0837                 1.0349                 1.0360
 Frc consts  --      5.8832                 5.6553                 5.6767
 IR Inten    --     13.4759                23.3067                33.0906

                     76                     77                     78
                      A                      A                      A
 Frequencies --   3081.6576              3109.4810              3115.9429
 Red. masses --      1.0288                 1.1023                 1.1013
 Frc consts  --      5.7564                 6.2798                 6.3002
 IR Inten    --     16.1837                 1.2469                76.6776

                     79                     80                     81
                      A                      A                      A
 Frequencies --   3124.1168              3125.7984              3160.7056
 Red. masses --      1.1030                 1.1028                 1.0902
 Frc consts  --      6.3428                 6.3482                 6.4172
 IR Inten    --     22.0915                38.2564                36.0295

                     82                     83                     84
                      A                      A                      A
 Frequencies --   3174.8557              3177.2286              3193.4674
 Red. masses --      1.1062                 1.1079                 1.0888
 Frc consts  --      6.5696                 6.5893                 6.5421
 IR Inten    --      7.8322                 3.9716                16.9808

                     85                     86                     87
                      A                      A                      A
 Frequencies --   3222.4301              3277.7177              3296.1474
 Red. masses --      1.0938                 1.0907                 1.1048
 Frc consts  --      6.6917                 6.9039                 7.0718
 IR Inten    --      7.5143                 0.2596                 1.0393

 - Thermochemistry -
 -------------------
 Temperature   298.150 Kelvin.  Pressure   1.00000 Atm.
 Atom     1 has atomic number  6 and mass  12.00000

 Molecular mass:   233.09867 amu.
 Principal axes and moments of inertia in atomic units:
                           1         2         3
     Eigenvalues --  1245.302689722.66655**********
           X            0.99999   0.00319  -0.00092
           Y           -0.00318   0.99999   0.00335
           Z            0.00093  -0.00335   0.99999
 This molecule is an asymmetric top.
 Rotational symmetry number  1.
 Warning -- assumption of classical behavior for rotation
           may cause significant error
 Rotational temperatures (Kelvin)      0.06955     0.00891     0.00823
 Rotational constants (GHZ):           1.44924     0.18562     0.17157
 Zero-point vibrational energy     667385.1 (Joules/Mol)
                                  159.50887 (Kcal/Mol)
 Warning -- explicit consideration of  22 degrees of freedom as
           vibrations may cause significant error
 Vibrational temperatures:     35.19    60.45    78.78    87.62   117.05
          (Kelvin)            169.28   215.61   229.84   298.69   331.10
                              343.91   370.57   391.12   404.80   505.94
                              529.07   588.20   628.38   654.72   740.17
                              766.35   833.43   894.21   921.30   949.18
                              974.98  1028.47  1076.21  1118.19  1153.97
                             1205.34  1220.27  1305.28  1356.10  1376.28
                             1400.82  1405.85  1409.80  1414.75  1438.35
                             1462.95  1499.57  1538.76  1569.28  1605.16
                             1633.97  1685.37  1716.82  1762.07  1806.69
                             1857.51  1906.56  1943.65  1959.58  1977.30
                             1993.39  2007.66  2036.34  2053.66  2081.20
                             2094.12  2111.47  2140.43  2167.08  2182.82
                             2189.23  2205.91  2208.62  2223.47  2260.74
                             2343.29  2385.66  4367.37  4381.67  4387.74
                             4433.82  4473.85  4483.15  4494.91  4497.33
                             4547.55  4567.91  4571.32  4594.69  4636.36
                             4715.90  4742.42

 Zero-point correction=                           0.254194 (Hartree/Particle)
 Thermal correction to Energy=                    0.269955
 Thermal correction to Enthalpy=                  0.270899
 Thermal correction to Gibbs Free Energy=         0.209252
 Sum of electronic and zero-point Energies=          -1028.545368
 Sum of electronic and thermal Energies=             -1028.529606
 Sum of electronic and thermal Enthalpies=           -1028.528662
 Sum of electronic and thermal Free Energies=        -1028.590309

                     E (Thermal)             CV                S
                      KCal/Mol        Cal/Mol-Kelvin    Cal/Mol-Kelvin
 Total                  169.399             58.595            129.746
 Electronic               0.000              0.000              0.000
 Translational            0.889              2.981             42.241
 Rotational               0.889              2.981             33.210
 Vibrational            167.622             52.634             54.296
 Vibration     1          0.593              1.985              6.235
 Vibration     2          0.595              1.980              5.162
 Vibration     3          0.596              1.976              4.638
 Vibration     4          0.597              1.973              4.428
 Vibration     5          0.600              1.962              3.858
 Vibration     6          0.608              1.935              3.139
 Vibration     7          0.618              1.903              2.674
 Vibration     8          0.622              1.892              2.553
 Vibration     9          0.641              1.829              2.065
 Vibration    10          0.652              1.795              1.878
 Vibration    11          0.657              1.781              1.810
 Vibration    12          0.667              1.750              1.678
 Vibration    13          0.675              1.725              1.584
 Vibration    14          0.681              1.708              1.525
 Vibration    15          0.728              1.572              1.159
 Vibration    16          0.740              1.539              1.089
 Vibration    17          0.773              1.451              0.931
 Vibration    18          0.797              1.390              0.837
 Vibration    19          0.813              1.350              0.781
 Vibration    20          0.869              1.218              0.623
 Vibration    21          0.888              1.178              0.581
 Vibration    22          0.936              1.076              0.487

 Optimization completed.
    -- Stationary point found.
 Normal termination of Gaussian 16 at Fri Dec 11 00:03:10 2020.

 ----------------------------------------------------------------------
 # B3LYP/6-311++G(d,p) empiricaldispersion=gd3bj scf=xqc pop=npa geom=c
 heck
 ----------------------------------------------------------------------

 ---------------------------------------
 CID_129213039_JID_6609_Energie_neutraal
 ---------------------------------------
 Structure from the checkpoint file:  "JID_6609.chk"
 Charge =  0 Multiplicity = 1

 SCF Done:  E(RB3LYP) =  -1028.98883552     A.U. after   16 cycles
 Normal termination of Gaussian 16 at Fri Dec 11 00:07:06 2020.

 ----------------------------------------------------------------------
 # B3LYP/6-311++G(d,p) empiricaldispersion=gd3bj scf=xqc pop=npa geom=c
 heck
 ----------------------------------------------------------------------

 -------------------------------------
 CID_129213039_JID_6609_Energie_kation
 -------------------------------------
 Structure from the checkpoint file:  "JID_6609.chk"
 Charge =  1 Multiplicity = 2

 SCF Done:  E(UB3LYP) =  -1028.71805585     A.U. after   23 cycles
 Normal termination of Gaussian 16 at Fri Dec 11 00:14:37 2020.
 Gaussian 16:  ES64L-G16RevA.03 25-Dec-2016

 ----------------------------------------------------------------------
 # B3LYP/6-311++G(d,p) empiricaldispersion=gd3bj scf=xqc pop=npa geom=c
 heck
 ----------------------------------------------------------------------

 ------------------------------------
 CID_129213039_JID_6609_Energie_anion
 ------------------------------------
 Structure from the checkpoint file:  "JID_6609.chk"
 Charge = -1 Multiplicity = 2

                         Standard orientation:
 ---------------------------------------------------------------------
 Center     Atomic      Atomic             Coordinates (Angstroms)
 Number     Number       Type             X           Y           Z
 ---------------------------------------------------------------------
      1          6           0       -5.207745   -0.165066   -1.080955
      2          6           0       -4.389217    0.716942   -0.122988
      3          6           0       -5.022402    0.748262    1.278446
      4          6           0       -2.939821    0.278979   -0.068124
      5          6           0       -1.907500    1.130012   -0.472263
      6          7           0       -0.609145    0.814377   -0.470125
      7          6           0       -0.273940   -0.394641   -0.029845
      8          6           0       -1.209057   -1.332378    0.431207
      9          6           0       -2.552488   -0.985380    0.394070
     10          7           0        1.100884   -0.722220   -0.041250
     11          6           0        1.656055   -1.972367   -0.119944
     12          6           0        3.019229   -1.812654   -0.102177
     13          6           0        3.207355   -0.403415   -0.008813
     14          7           0        2.054268    0.253829    0.026075
     15         16           0        4.763285    0.422811    0.061064
     16          6           0        4.189911    2.155915    0.112706
     17          1           0       -5.239762   -1.203413   -0.729855
     18          1           0       -4.774293   -0.164722   -2.086443
     19          1           0       -6.240480    0.194816   -1.150460
     20          1           0       -4.402139    1.741508   -0.518295
     21          1           0       -5.049337   -0.254364    1.721620
     22          1           0       -4.455848    1.397765    1.953678
     23          1           0       -6.052924    1.117559    1.228340
     24          1           0       -2.145202    2.131212   -0.830711
     25          1           0       -0.892822   -2.289338    0.830589
     26          1           0       -3.297620   -1.694429    0.744341
     27          1           0        1.046936   -2.858014   -0.217388
     28          1           0        3.774544   -2.581950   -0.161469
     29          1           0        3.597191    2.385379   -0.774346
     30          1           0        3.585398    2.330716    1.004156
     31          1           0        5.089474    2.775133    0.138395
 ---------------------------------------------------------------------

 SCF Done:  E(UB3LYP) =  -1028.98210806     A.U. after   33 cycles
 SCF Done:  E(UB3LYP) =  -1028.98210806     a.u. after    1 cycles

 The electronic state is 2-A.
 Alpha  occ. eigenvalues --  -88.75400 -14.27796 -14.21109 -14.17145 -10.11209
 Alpha  occ. eigenvalues --  -10.10952 -10.10187 -10.09432 -10.08139 -10.07291
 Alpha  occ. eigenvalues --  -10.06478 -10.06217 -10.05885 -10.05557 -10.05358
 Alpha  occ. eigenvalues --  -10.05159  -7.84021  -5.80429  -5.80031  -5.79405
 Alpha  occ. eigenvalues --   -0.93903  -0.82484  -0.74416  -0.71230  -0.68560
 Alpha  occ. eigenvalues --   -0.67589  -0.66400  -0.61777  -0.58084  -0.56840
 Alpha  occ. eigenvalues --   -0.52855  -0.51662  -0.48411  -0.46181  -0.44414
 Alpha  occ. eigenvalues --   -0.43563  -0.38105  -0.37195  -0.35451  -0.34742
 Alpha  occ. eigenvalues --   -0.34039  -0.33351  -0.33158  -0.32382  -0.31885
 Alpha  occ. eigenvalues --   -0.31081  -0.29556  -0.28457  -0.27620  -0.27431
 Alpha  occ. eigenvalues --   -0.27178  -0.24147  -0.23644  -0.23456  -0.22444
 Alpha  occ. eigenvalues --   -0.20183  -0.18650  -0.16817  -0.15355  -0.13935
 Alpha  occ. eigenvalues --   -0.13434  -0.10112   0.04677
 Alpha virt. eigenvalues --    0.06447   0.07057   0.07486   0.08334   0.08639
 Alpha virt. eigenvalues --    0.08915   0.09217   0.10028   0.10747   0.11269
 Alpha virt. eigenvalues --    0.11374   0.12075   0.12413   0.12553   0.12794

  Beta  occ. eigenvalues --  -88.75398 -14.27837 -14.20986 -14.16863 -10.10983
  Beta  occ. eigenvalues --  -10.10913 -10.10186 -10.09285 -10.08192 -10.07298
  Beta  occ. eigenvalues --  -10.06541 -10.06208 -10.05729 -10.05527 -10.05313
  Beta  occ. eigenvalues --  -10.04994  -7.84019  -5.80427  -5.80030  -5.79397
  Beta  occ. eigenvalues --   -0.93778  -0.82070  -0.74254  -0.71007  -0.68433
  Beta  occ. eigenvalues --   -0.67392  -0.66222  -0.61611  -0.58006  -0.56738
  Beta  occ. eigenvalues --   -0.52731  -0.51426  -0.48288  -0.46070  -0.44244
  Beta  occ. eigenvalues --   -0.43420  -0.37967  -0.37114  -0.35344  -0.34442
  Beta  occ. eigenvalues --   -0.34002  -0.33293  -0.33068  -0.32313  -0.31801
  Beta  occ. eigenvalues --   -0.30876  -0.29452  -0.28360  -0.27557  -0.27323
  Beta  occ. eigenvalues --   -0.26523  -0.24017  -0.23596  -0.23357  -0.22372
  Beta  occ. eigenvalues --   -0.19877  -0.18480  -0.15864  -0.14762  -0.13410
  Beta  occ. eigenvalues --   -0.12964  -0.09702
  Beta virt. eigenvalues --    0.06905   0.07104   0.07589   0.08556   0.08732
  Beta virt. eigenvalues --    0.09027   0.09286   0.09316   0.10307   0.10746
  Beta virt. eigenvalues --    0.11337   0.11359   0.12109   0.12637   0.12730

 Mulliken charges and spin densities:
               1          2
     1  C    0.116963  -0.751929
     2  C   -2.055338   2.036292
     3  C    0.682665  -1.322170
     4  C    1.262724  -0.723389
     5  C   -0.836576   0.412242
     6  N   -0.124311   0.157627
     7  C    0.096348  -0.619836
     8  C    0.534583  -0.288366
     9  C    0.026683  -0.136620
    10  N    0.415435  -0.033465
    11  C   -0.001900  -0.107749
    12  C    0.053420   0.188124
    13  C   -0.130252  -0.116539
    14  N   -0.020637   0.077666
    15  S   -0.464213  -0.023687
    16  C   -0.532313  -0.021049
    17  H   -0.189864   0.334027
    18  H    0.077221   0.050236
    19  H   -0.171675   0.307259
    20  H    0.027429   0.130537
    21  H   -0.009221   0.145951
    22  H    0.012409   0.121951
    23  H   -0.565455   0.710959
    24  H    0.129427   0.042586
    25  H    0.036621   0.091417
    26  H   -0.023923   0.164586
    27  H    0.006256   0.111944
    28  H    0.144617   0.038054
    29  H    0.185472   0.010467
    30  H    0.187153   0.005460
    31  H    0.130253   0.007415
 Sum of Mulliken charges =  -1.00000   1.00000

 Dipole moment (field-independent basis, Debye):
    X=              7.1671    Y=             -0.6270    Z=             -0.3063  Tot=              7.2010
 Quadrupole moment (field-independent basis, Debye-Ang):
   XX=           -211.9354   YY=           -119.5264   ZZ=           -123.5362
   XY=              6.3261   XZ=              7.5169   YZ=             -2.8667

 Summary of Natural Population Analysis:

                                       Natural Population
                Natural  -----------------------------------------------
    Atom  No    Charge         Core      Valence    Rydberg      Total
 -----------------------------------------------------------------------
      C    1   -0.27745      0.99965     2.27242    0.00537     3.27745
      C    2   -0.11946      0.99959     2.10965    0.01022     3.11946
      C    3   -0.27888      0.99965     2.27365    0.00558     3.27888
      C    4   -0.01394      0.99948     2.00317    0.01128     3.01394
      C    5    0.02142      0.99953     1.96588    0.01317     2.97858
      N    6   -0.19114      0.99967     2.68224    0.00923     3.69114
      C    7    0.21874      0.99950     1.76619    0.01556     2.78126
      C    8   -0.14019      0.99954     2.13248    0.00818     3.14019
      C    9   -0.05798      0.99952     2.04955    0.00891     3.05798
      N   10   -0.11238      0.99962     2.60054    0.01221     3.61238
      C   11    0.02318      0.99957     1.96764    0.00961     2.97682
      C   12   -0.17163      0.99950     2.16243    0.00971     3.17163
      C   13   -0.00182      0.99953     1.98584    0.01645     3.00182
      N   14   -0.14343      0.99966     2.63148    0.01229     3.64343
      S   15    0.10932      4.99954     2.86908    0.02207     7.89068
      C   16   -0.34551      0.99962     2.34057    0.00532     3.34551
      H   17    0.09682      0.00000     0.40213    0.00105     0.40318
      H   18    0.09862      0.00000     0.40057    0.00081     0.40138
      H   19    0.09553      0.00000     0.40361    0.00086     0.40447
      H   20    0.09307      0.00000     0.40477    0.00216     0.40693
      H   21    0.09518      0.00000     0.40376    0.00106     0.40482
      H   22    0.10028      0.00000     0.39890    0.00082     0.39972
      H   23    0.09833      0.00000     0.39995    0.00172     0.40167
      H   24    0.08349      0.00000     0.41493    0.00158     0.41651
      H   25    0.09897      0.00000     0.39927    0.00176     0.40103
      H   26    0.09670      0.00000     0.40227    0.00103     0.40330
      H   27    0.10159      0.00000     0.39731    0.00110     0.39841
      H   28    0.10503      0.00000     0.39399    0.00099     0.39497
      H   29    0.10978      0.00000     0.38805    0.00216     0.39022
      H   30    0.10896      0.00000     0.38979    0.00125     0.39104
      H   31    0.09878      0.00000     0.40046    0.00076     0.40122
 =======================================================================
   * Total *    0.00000     19.99319    41.81256    0.19425    62.00000

 Normal termination of Gaussian 16 at Fri Dec 11 00:25:53 2020.
