 Gaussian 16, Revision A.03,

 -----------------------------------------------------------
 # opt freq B3LYP/6-31G(d) empiricaldispersion=gd3bj scf=xqc
 -----------------------------------------------------------

 -------------------------------
 CID_102345844_JID_4794_neutraal
 -------------------------------
 Symbolic Z-matrix:
 Charge =  0 Multiplicity = 1

 SCF Done:  E(RB3LYP) =  -646.814887079     A.U. after   15 cycles
 SCF Done:  E(RB3LYP) =  -646.825646288     A.U. after   12 cycles
 SCF Done:  E(RB3LYP) =  -646.829966339     A.U. after   12 cycles
 SCF Done:  E(RB3LYP) =  -646.834125030     A.U. after   13 cycles
 SCF Done:  E(RB3LYP) =  -646.835283129     A.U. after   11 cycles
 SCF Done:  E(RB3LYP) =  -646.835752046     A.U. after   12 cycles
 SCF Done:  E(RB3LYP) =  -646.835827930     A.U. after   11 cycles
 SCF Done:  E(RB3LYP) =  -646.835906846     A.U. after   10 cycles
 SCF Done:  E(RB3LYP) =  -646.835995026     A.U. after   11 cycles
 SCF Done:  E(RB3LYP) =  -646.836051788     A.U. after   11 cycles
 SCF Done:  E(RB3LYP) =  -646.844345049     A.U. after    8 cycles
 SCF Done:  E(RB3LYP) =  -646.844346192     A.U. after    8 cycles
 SCF Done:  E(RB3LYP) =  -646.844346910     A.U. after    8 cycles
 SCF Done:  E(RB3LYP) =  -646.844347257     A.U. after    7 cycles
 SCF Done:  E(RB3LYP) =  -646.844347342     A.U. after    7 cycles
 Optimization completed.
    -- Stationary point found.
 Normal termination of Gaussian 16 at Thu Dec 10 10:56:46 2020.

 --------------------------------------------------------------------
 #N Geom=AllCheck Guess=TCheck SCRF=Check GenChk RB3LYP/6-31G(d) Freq
 --------------------------------------------------------------------

 Structure from the checkpoint file:  "JID_4794.chk"
 -------------------------------
 CID_102345844_JID_4794_neutraal
 -------------------------------
 Charge =  0 Multiplicity = 1

 SCF Done:  E(RB3LYP) =  -646.844347342     A.U. after    1 cycles

  Exact polarizability: 150.619  -2.946 141.551   0.141  -1.206  85.632
 Approx polarizability: 201.032 -20.290 224.733   1.569 -10.171 132.591

                      1                      2                      3
                      A                      A                      A
 Frequencies --     75.5740                95.9493               102.7610
 Red. masses --      3.0910                 2.8217                 4.7688
 Frc consts  --      0.0104                 0.0153                 0.0297
 IR Inten    --      2.1591                 2.8363                 4.1159

                      4                      5                      6
                      A                      A                      A
 Frequencies --    117.3661               132.4656               139.4331
 Red. masses --      2.4769                 1.0865                 1.5972
 Frc consts  --      0.0201                 0.0112                 0.0183
 IR Inten    --      1.3696                 0.4666                 2.1817

                      7                      8                      9
                      A                      A                      A
 Frequencies --    172.9218               193.9722               208.4369
 Red. masses --      1.5180                 1.2491                 2.2523
 Frc consts  --      0.0267                 0.0277                 0.0577
 IR Inten    --      0.7075                 0.3799                 2.1066

                     10                     11                     12
                      A                      A                      A
 Frequencies --    226.3455               237.2545               262.2644
 Red. masses --      3.2398                 1.5144                 1.9775
 Frc consts  --      0.0978                 0.0502                 0.0801
 IR Inten    --      8.7603                 0.8120                 0.7208

                     13                     14                     15
                      A                      A                      A
 Frequencies --    288.2490               321.5830               343.3626
 Red. masses --      2.5906                 2.5575                 3.2751
 Frc consts  --      0.1268                 0.1558                 0.2275
 IR Inten    --      2.7968                17.1376                11.1914

                     16                     17                     18
                      A                      A                      A
 Frequencies --    384.9419               412.8074               437.4598
 Red. masses --      2.2339                 3.6613                 5.7788
 Frc consts  --      0.1950                 0.3676                 0.6516
 IR Inten    --      1.1695                 4.4802                14.4478

                     19                     20                     21
                      A                      A                      A
 Frequencies --    470.1766               522.5638               573.3719
 Red. masses --      5.4638                 4.7180                 4.7629
 Frc consts  --      0.7117                 0.7591                 0.9226
 IR Inten    --     11.6982                 7.0341                13.5339

                     22                     23                     24
                      A                      A                      A
 Frequencies --    611.2132               626.3040               673.4285
 Red. masses --      4.5468                 4.1269                 8.0123
 Frc consts  --      1.0008                 0.9538                 2.1409
 IR Inten    --      1.5330                15.7402                 4.7656

                     25                     26                     27
                      A                      A                      A
 Frequencies --    730.0874               751.8700               901.5413
 Red. masses --      5.6750                 9.4840                 4.6801
 Frc consts  --      1.7822                 3.1588                 2.2412
 IR Inten    --     13.8043                21.7047                10.0260

                     28                     29                     30
                      A                      A                      A
 Frequencies --    930.4033               952.1667              1017.8864
 Red. masses --      5.0365                 3.3765                 2.5794
 Frc consts  --      2.5687                 1.8036                 1.5746
 IR Inten    --     15.5779                 4.3559                14.9456

                     31                     32                     33
                      A                      A                      A
 Frequencies --   1024.5654              1041.8159              1067.7549
 Red. masses --      2.1576                 1.9908                 2.1580
 Frc consts  --      1.3344                 1.2731                 1.4496
 IR Inten    --     20.8759                33.6517                71.6172

                     34                     35                     36
                      A                      A                      A
 Frequencies --   1111.5984              1129.0065              1157.5603
 Red. masses --      1.4227                 2.4576                 1.3308
 Frc consts  --      1.0358                 1.8456                 1.0506
 IR Inten    --      9.8243                39.4811                 6.6021

                     37                     38                     39
                      A                      A                      A
 Frequencies --   1160.6807              1161.7984              1177.3735
 Red. masses --      1.5326                 1.3287                 1.4663
 Frc consts  --      1.2165                 1.0566                 1.1976
 IR Inten    --     25.4117                18.8865                11.6141

                     40                     41                     42
                      A                      A                      A
 Frequencies --   1185.2381              1198.1362              1223.5910
 Red. masses --      2.1573                 1.8479                 1.8701
 Frc consts  --      1.7856                 1.5629                 1.6496
 IR Inten    --     16.7228                 7.4223                20.0245

                     43                     44                     45
                      A                      A                      A
 Frequencies --   1243.3174              1258.3357              1273.5342
 Red. masses --      2.0054                 2.9193                 3.0715
 Frc consts  --      1.8265                 2.7235                 2.9350
 IR Inten    --     37.7341               143.2704                 4.0071

                     46                     47                     48
                      A                      A                      A
 Frequencies --   1279.4611              1312.2899              1366.9211
 Red. masses --      2.7336                 2.2993                 1.3770
 Frc consts  --      2.6366                 2.3329                 1.5159
 IR Inten    --     31.0619                52.8630                78.3587

                     49                     50                     51
                      A                      A                      A
 Frequencies --   1403.9593              1416.8350              1445.8414
 Red. masses --      2.7049                 2.7414                 1.3535
 Frc consts  --      3.1413                 3.2423                 1.6671
 IR Inten    --     10.9892               196.0724                 9.5636

                     52                     53                     54
                      A                      A                      A
 Frequencies --   1454.0448              1467.9269              1474.0149
 Red. masses --      1.3357                 1.2198                 1.1713
 Frc consts  --      1.6638                 1.5487                 1.4995
 IR Inten    --     41.1035                48.3032                 9.2433

                     55                     56                     57
                      A                      A                      A
 Frequencies --   1491.2156              1502.0987              1511.4680
 Red. masses --      1.4753                 1.3652                 1.0560
 Frc consts  --      1.9329                 1.8149                 1.4213
 IR Inten    --     52.7623                46.1363                 5.3704

                     58                     59                     60
                      A                      A                      A
 Frequencies --   1514.2998              1518.0973              1526.6147
 Red. masses --      1.0840                 1.1029                 1.0720
 Frc consts  --      1.4646                 1.4975                 1.4720
 IR Inten    --     50.4907                40.2109                12.0989

                     61                     62                     63
                      A                      A                      A
 Frequencies --   1528.5437              1536.4189              1541.5876
 Red. masses --      1.0619                 1.0771                 1.0554
 Frc consts  --      1.4618                 1.4981                 1.4778
 IR Inten    --     10.3513                10.1859                 9.7220

                     64                     65                     66
                      A                      A                      A
 Frequencies --   1545.3902              1550.2863              1568.6872
 Red. masses --      1.1237                 1.2885                 1.1325
 Frc consts  --      1.5811                 1.8245                 1.6419
 IR Inten    --      3.8646                87.7282                 6.5500

                     67                     68                     69
                      A                      A                      A
 Frequencies --   1691.0300              1747.3914              2822.9816
 Red. masses --     10.2230                10.8414                 1.0755
 Frc consts  --     17.2240                19.5036                 5.0498
 IR Inten    --     97.7303               435.2260               134.0509

                     70                     71                     72
                      A                      A                      A
 Frequencies --   2953.0680              2983.4876              3004.1394
 Red. masses --      1.0602                 1.0579                 1.0645
 Frc consts  --      5.4473                 5.5483                 5.6603
 IR Inten    --    110.8539                96.6352                31.0304

                     73                     74                     75
                      A                      A                      A
 Frequencies --   3010.4084              3033.6298              3063.0603
 Red. masses --      1.0585                 1.0434                 1.0874
 Frc consts  --      5.6521                 5.6577                 6.0111
 IR Inten    --    126.4515                38.2490                57.2685

                     76                     77                     78
                      A                      A                      A
 Frequencies --   3085.7855              3089.3056              3099.1137
 Red. masses --      1.0889                 1.0788                 1.0799
 Frc consts  --      6.1091                 6.0662                 6.1109
 IR Inten    --     38.3041                50.6857                38.8578

                     79                     80                     81
                      A                      A                      A
 Frequencies --   3113.7691              3116.6901              3157.4217
 Red. masses --      1.0951                 1.0933                 1.1024
 Frc consts  --      6.2559                 6.2574                 6.4752
 IR Inten    --     15.2014                43.6510                20.4262

                     82                     83                     84
                      A                      A                      A
 Frequencies --   3162.8021              3174.6300              3181.0840
 Red. masses --      1.1001                 1.0981                 1.0965
 Frc consts  --      6.4838                 6.5205                 6.5372
 IR Inten    --      7.1003                 1.0453                 1.4716

 - Thermochemistry -
 -------------------
 Temperature   298.150 Kelvin.  Pressure   1.00000 Atm.
 Atom     1 has atomic number  6 and mass  12.00000

 Molecular mass:   196.13241 amu.
 Principal axes and moments of inertia in atomic units:
                           1         2         3
     Eigenvalues --  1889.518032584.174814132.00649
           X            0.99895   0.04576   0.00270
           Y           -0.04580   0.99884   0.01475
           Z           -0.00202  -0.01486   0.99989
 This molecule is an asymmetric top.
 Rotational symmetry number  1.
 Warning -- assumption of classical behavior for rotation
           may cause significant error
 Rotational temperatures (Kelvin)      0.04584     0.03352     0.02096
 Rotational constants (GHZ):           0.95513     0.69838     0.43677
 Zero-point vibrational energy     680521.3 (Joules/Mol)
                                  162.64848 (Kcal/Mol)
 Warning -- explicit consideration of  22 degrees of freedom as
           vibrations may cause significant error
 Vibrational temperatures:    108.73   138.05   147.85   168.86   190.59
          (Kelvin)            200.61   248.80   279.08   299.89   325.66
                              341.36   377.34   414.73   462.69   494.02
                              553.85   593.94   629.41   676.48   751.85
                              824.95   879.40   901.11   968.91  1050.43
                             1081.77  1297.12  1338.64  1369.96  1464.51
                             1474.12  1498.94  1536.26  1599.34  1624.39
                             1665.47  1669.96  1671.57  1693.98  1705.29
                             1723.85  1760.47  1788.86  1810.46  1832.33
                             1840.86  1888.09  1966.69  2019.98  2038.51
                             2080.24  2092.05  2112.02  2120.78  2145.53
                             2161.18  2174.67  2178.74  2184.20  2196.46
                             2199.23  2210.56  2218.00  2223.47  2230.52
                             2256.99  2433.02  2514.11  4061.64  4248.81
                             4292.57  4322.29  4331.31  4364.72  4407.06
                             4439.76  4444.82  4458.93  4480.02  4484.22
                             4542.83  4550.57  4567.58  4576.87

 Zero-point correction=                           0.259197 (Hartree/Particle)
 Thermal correction to Energy=                    0.273493
 Thermal correction to Enthalpy=                  0.274437
 Thermal correction to Gibbs Free Energy=         0.218963
 Sum of electronic and zero-point Energies=           -646.585150
 Sum of electronic and thermal Energies=              -646.570854
 Sum of electronic and thermal Enthalpies=            -646.569910
 Sum of electronic and thermal Free Energies=         -646.625384

                     E (Thermal)             CV                S
                      KCal/Mol        Cal/Mol-Kelvin    Cal/Mol-Kelvin
 Total                  171.620             52.862            116.755
 Electronic               0.000              0.000              0.000
 Translational            0.889              2.981             41.726
 Rotational               0.889              2.981             31.379
 Vibrational            169.842             46.901             43.650
 Vibration     1          0.599              1.965              4.003
 Vibration     2          0.603              1.952              3.535
 Vibration     3          0.605              1.947              3.401
 Vibration     4          0.608              1.935              3.143
 Vibration     5          0.613              1.921              2.910
 Vibration     6          0.615              1.914              2.812
 Vibration     7          0.626              1.876              2.403
 Vibration     8          0.635              1.848              2.190
 Vibration     9          0.642              1.828              2.057
 Vibration    10          0.650              1.801              1.908
 Vibration    11          0.656              1.784              1.823
 Vibration    12          0.670              1.742              1.647
 Vibration    13          0.685              1.696              1.484
 Vibration    14          0.707              1.632              1.302
 Vibration    15          0.722              1.589              1.196
 Vibration    16          0.754              1.502              1.020
 Vibration    17          0.777              1.442              0.917
 Vibration    18          0.798              1.389              0.835
 Vibration    19          0.827              1.316              0.737
 Vibration    20          0.878              1.200              0.604
 Vibration    21          0.930              1.089              0.498
 Vibration    22          0.970              1.008              0.431

 Optimization completed.
    -- Stationary point found.
 Normal termination of Gaussian 16 at Thu Dec 10 11:06:33 2020.

 ----------------------------------------------------------------------
 # B3LYP/6-311++G(d,p) empiricaldispersion=gd3bj scf=xqc pop=npa geom=c
 heck
 ----------------------------------------------------------------------

 ---------------------------------------
 CID_102345844_JID_4794_Energie_neutraal
 ---------------------------------------
 Structure from the checkpoint file:  "JID_4794.chk"
 Charge =  0 Multiplicity = 1

 SCF Done:  E(RB3LYP) =  -647.023202659     A.U. after   15 cycles
 Normal termination of Gaussian 16 at Thu Dec 10 11:10:46 2020.

 ----------------------------------------------------------------------
 # B3LYP/6-311++G(d,p) empiricaldispersion=gd3bj scf=xqc pop=npa geom=c
 heck
 ----------------------------------------------------------------------

 -------------------------------------
 CID_102345844_JID_4794_Energie_kation
 -------------------------------------
 Structure from the checkpoint file:  "JID_4794.chk"
 Charge =  1 Multiplicity = 2

 SCF Done:  E(UB3LYP) =  -646.779555370     A.U. after   22 cycles
 Normal termination of Gaussian 16 at Thu Dec 10 11:18:22 2020.
 Gaussian 16:  ES64L-G16RevA.03 25-Dec-2016

 ----------------------------------------------------------------------
 # B3LYP/6-311++G(d,p) empiricaldispersion=gd3bj scf=xqc pop=npa geom=c
 heck
 ----------------------------------------------------------------------

 ------------------------------------
 CID_102345844_JID_4794_Energie_anion
 ------------------------------------
 Structure from the checkpoint file:  "JID_4794.chk"
 Charge = -1 Multiplicity = 2

                         Standard orientation:
 ---------------------------------------------------------------------
 Center     Atomic      Atomic             Coordinates (Angstroms)
 Number     Number       Type             X           Y           Z
 ---------------------------------------------------------------------
      1          6           0        1.299107    2.853307    0.245316
      2          7           0        1.252788    1.531668   -0.360232
      3          6           0        2.450891    0.713708   -0.134623
      4          7           0        1.973628   -0.680957   -0.206434
      5          6           0        0.608560   -0.602322    0.056082
      6          6           0        0.166821    0.676674   -0.030469
      7          6           0       -1.251726    0.992139   -0.145183
      8          8           0       -1.706284    2.094352   -0.453410
      9          7           0       -2.062882   -0.122338    0.093923
     10          6           0       -1.477397   -1.253226    0.810905
     11          7           0       -0.221227   -1.715471    0.226870
     12          6           0       -0.377509   -2.532663   -0.991262
     13          6           0       -3.497099    0.071504    0.195049
     14          6           0        2.792905   -1.673839    0.467581
     15          1           0        1.498154    2.812466    1.332701
     16          1           0        0.339143    3.341065    0.072451
     17          1           0        2.090317    3.443575   -0.229477
     18          1           0        3.229179    0.911629   -0.880992
     19          1           0        2.880958    0.904348    0.877816
     20          1           0       -1.268620   -0.980144    1.856947
     21          1           0       -2.194320   -2.078119    0.798518
     22          1           0        0.612217   -2.790541   -1.373274
     23          1           0       -0.907225   -3.455204   -0.736258
     24          1           0       -0.928031   -1.998700   -1.778116
     25          1           0       -3.824844    0.202819    1.238080
     26          1           0       -3.754508    0.971807   -0.362545
     27          1           0       -4.023310   -0.790324   -0.230258
     28          1           0        3.730047   -1.816281   -0.079561
     29          1           0        3.032429   -1.372260    1.501816
     30          1           0        2.255217   -2.622963    0.500166
 ---------------------------------------------------------------------

 SCF Done:  E(UB3LYP) =  -647.011190842     A.U. after   33 cycles
 SCF Done:  E(UB3LYP) =  -647.011190842     a.u. after    1 cycles

 The electronic state is 2-A.
 Alpha  occ. eigenvalues --  -18.98348 -14.24299 -14.23932 -14.23521 -14.22798
 Alpha  occ. eigenvalues --  -10.16911 -10.14026 -10.14023 -10.13995 -10.10053
 Alpha  occ. eigenvalues --  -10.10006 -10.09643 -10.09569 -10.09066  -0.93677
 Alpha  occ. eigenvalues --   -0.90768  -0.86819  -0.81704  -0.79811  -0.68348
 Alpha  occ. eigenvalues --   -0.63436  -0.63000  -0.60651  -0.58075  -0.56361
 Alpha  occ. eigenvalues --   -0.51961  -0.48210  -0.44478  -0.43344  -0.40485
 Alpha  occ. eigenvalues --   -0.39980  -0.38971  -0.37041  -0.35186  -0.34654
 Alpha  occ. eigenvalues --   -0.34456  -0.34177  -0.33281  -0.32619  -0.30992
 Alpha  occ. eigenvalues --   -0.30304  -0.29694  -0.29371  -0.29324  -0.28986
 Alpha  occ. eigenvalues --   -0.27806  -0.27415  -0.23395  -0.17734  -0.16304
 Alpha  occ. eigenvalues --   -0.15189  -0.14578  -0.08129   0.04252
 Alpha virt. eigenvalues --    0.06073   0.07287   0.07543   0.08050   0.08449
 Alpha virt. eigenvalues --    0.09367   0.09507   0.09998   0.10995   0.11237
 Alpha virt. eigenvalues --    0.11934   0.12398   0.12963   0.13191   0.13502

  Beta  occ. eigenvalues --  -18.98345 -14.24284 -14.23932 -14.23521 -14.22795
  Beta  occ. eigenvalues --  -10.16909 -10.14006 -10.13999 -10.13982 -10.10008
  Beta  occ. eigenvalues --  -10.09982 -10.09592 -10.09563 -10.09069  -0.93670
  Beta  occ. eigenvalues --   -0.90750  -0.86805  -0.81692  -0.79793  -0.68326
  Beta  occ. eigenvalues --   -0.63394  -0.62962  -0.60598  -0.58030  -0.56304
  Beta  occ. eigenvalues --   -0.51933  -0.48161  -0.44455  -0.43307  -0.40450
  Beta  occ. eigenvalues --   -0.39948  -0.38936  -0.37003  -0.35153  -0.34632
  Beta  occ. eigenvalues --   -0.34429  -0.34130  -0.33249  -0.32578  -0.30964
  Beta  occ. eigenvalues --   -0.30271  -0.29660  -0.29347  -0.29286  -0.28965
  Beta  occ. eigenvalues --   -0.27774  -0.27391  -0.23351  -0.17708  -0.16297
  Beta  occ. eigenvalues --   -0.15155  -0.14568  -0.08094
  Beta virt. eigenvalues --    0.06588   0.06885   0.07664   0.07952   0.08606
  Beta virt. eigenvalues --    0.09163   0.09852   0.10109   0.10396   0.11311
  Beta virt. eigenvalues --    0.11720   0.12173   0.12759   0.13251   0.13579

 Mulliken charges and spin densities:
               1          2
     1  C   -0.172725  -0.195124
     2  N   -0.020100   0.070858
     3  C   -0.067639  -0.335494
     4  N   -0.245749   0.242694
     5  C   -0.636390   0.389926
     6  C   -0.118953   0.206228
     7  C   -0.014284  -0.252574
     8  O   -0.390339   0.003780
     9  N   -0.158129   0.187249
    10  C    0.395616  -0.762554
    11  N    0.023907   0.215980
    12  C    1.077829  -1.375065
    13  C    0.420825  -0.723157
    14  C    1.228762  -1.501367
    15  H    0.004432   0.093123
    16  H    0.176023   0.009719
    17  H    0.066288   0.057898
    18  H   -0.104457   0.310683
    19  H   -0.010019   0.103228
    20  H   -0.058876   0.267979
    21  H   -0.300567   0.478786
    22  H   -0.250739   0.397644
    23  H   -0.506665   0.685458
    24  H   -0.050219   0.211534
    25  H   -0.108911   0.248816
    26  H    0.164043   0.014943
    27  H   -0.199841   0.354186
    28  H   -0.478565   0.646162
    29  H   -0.257574   0.379864
    30  H   -0.406986   0.568599
 Sum of Mulliken charges =  -1.00000   1.00000

 Dipole moment (field-independent basis, Debye):
    X=             -0.4785    Y=              5.3523    Z=              0.6101  Tot=              5.4082
 Quadrupole moment (field-independent basis, Debye-Ang):
   XX=           -147.2280   YY=           -145.7609   ZZ=           -116.6155
   XY=              5.6296   XZ=             -0.2010   YZ=              1.2968

 Summary of Natural Population Analysis:

                                       Natural Population
                Natural  -----------------------------------------------
    Atom  No    Charge         Core      Valence    Rydberg      Total
 -----------------------------------------------------------------------
      C    1   -0.17683      0.99964     2.17077    0.00642     3.17683
      N    2   -0.25840      0.99969     2.74685    0.01186     3.75840
      C    3    0.02959      0.99963     1.95695    0.01384     2.97041
      N    4   -0.25429      0.99965     2.74214    0.01250     3.75429
      C    5    0.21423      0.99938     1.77128    0.01511     2.78577
      C    6   -0.01767      0.99932     2.00482    0.01354     3.01767
      C    7    0.32778      0.99958     1.65117    0.02148     2.67222
      O    8   -0.33321      0.99988     3.32795    0.00537     4.33321
      N    9   -0.27077      0.99966     2.76110    0.01001     3.77077
      C   10    0.02183      0.99960     1.96484    0.01373     2.97817
      N   11   -0.26914      0.99967     2.75428    0.01519     3.76914
      C   12   -0.17703      0.99962     2.16885    0.00856     3.17703
      C   13   -0.17936      0.99964     2.17126    0.00845     3.17936
      C   14   -0.17661      0.99963     2.16794    0.00904     3.17661
      H   15    0.07839      0.00000     0.41941    0.00220     0.42161
      H   16    0.11325      0.00000     0.38554    0.00121     0.38675
      H   17    0.09020      0.00000     0.40873    0.00107     0.40980
      H   18    0.09258      0.00000     0.40541    0.00201     0.40742
      H   19    0.06783      0.00000     0.42968    0.00249     0.43217
      H   20    0.09160      0.00000     0.40678    0.00162     0.40840
      H   21    0.10200      0.00000     0.39592    0.00208     0.39800
      H   22    0.10238      0.00000     0.39605    0.00157     0.39762
      H   23    0.10067      0.00000     0.39702    0.00231     0.39933
      H   24    0.09023      0.00000     0.40791    0.00186     0.40977
      H   25    0.08754      0.00000     0.41136    0.00110     0.41246
      H   26    0.11331      0.00000     0.38563    0.00106     0.38669
      H   27    0.09600      0.00000     0.40283    0.00116     0.40400
      H   28    0.09932      0.00000     0.39841    0.00227     0.40068
      H   29    0.08703      0.00000     0.41098    0.00200     0.41297
      H   30    0.10756      0.00000     0.39026    0.00217     0.39244
 =======================================================================
   * Total *   -0.00000     13.99459    38.81212    0.19329    53.00000

 Normal termination of Gaussian 16 at Thu Dec 10 11:28:46 2020.
