 Gaussian 16, Revision A.03,

 -----------------------------------------------------------
 # opt freq B3LYP/6-31G(d) empiricaldispersion=gd3bj scf=xqc
 -----------------------------------------------------------

 -------------------------------
 CID_131221116_JID_1851_neutraal
 -------------------------------
 Symbolic Z-matrix:
 Charge =  0 Multiplicity = 1

 SCF Done:  E(RB3LYP) =  -626.759405999     A.U. after   15 cycles
 SCF Done:  E(RB3LYP) =  -626.763418797     A.U. after   13 cycles
 SCF Done:  E(RB3LYP) =  -626.753784618     A.U. after   16 cycles
 SCF Done:  E(RB3LYP) =  -626.763076836     A.U. after   14 cycles
 SCF Done:  E(RB3LYP) =  -626.763928484     A.U. after   10 cycles
 SCF Done:  E(RB3LYP) =  -626.763856485     A.U. after   14 cycles
 SCF Done:  E(RB3LYP) =  -626.764463280     A.U. after   14 cycles
 SCF Done:  E(RB3LYP) =  -626.764625946     A.U. after   14 cycles
 SCF Done:  E(RB3LYP) =  -626.764701085     A.U. after   14 cycles
 SCF Done:  E(RB3LYP) =  -626.764827614     A.U. after   13 cycles
 SCF Done:  E(RB3LYP) =  -626.764881739     A.U. after   12 cycles
 SCF Done:  E(RB3LYP) =  -626.764882157     A.U. after    9 cycles
 SCF Done:  E(RB3LYP) =  -626.764882242     A.U. after    9 cycles
 SCF Done:  E(RB3LYP) =  -626.764882229     A.U. after    8 cycles
 Optimization completed.
    -- Stationary point found.
 Normal termination of Gaussian 16 at Tue Dec  8 21:23:54 2020.

 --------------------------------------------------------------------
 #N Geom=AllCheck Guess=TCheck SCRF=Check GenChk RB3LYP/6-31G(d) Freq
 --------------------------------------------------------------------

 Structure from the checkpoint file:  "JID_1851.chk"
 -------------------------------
 CID_131221116_JID_1851_neutraal
 -------------------------------
 Charge =  0 Multiplicity = 1

 SCF Done:  E(RB3LYP) =  -626.764882229     A.U. after    1 cycles

  Exact polarizability:  70.211   2.712  76.987  -3.220   0.993  71.020
 Approx polarizability:  90.999   5.369 139.042  -1.632  -0.896 113.433

                      1                      2                      3
                      A                      A                      A
 Frequencies --     37.2782                56.1139                99.2640
 Red. masses --      7.5555                14.3197                 7.4169
 Frc consts  --      0.0062                 0.0266                 0.0431
 IR Inten    --      0.4236                 0.1852                 0.7052

                      4                      5                      6
                      A                      A                      A
 Frequencies --    159.6687               203.9195               230.2137
 Red. masses --      4.7899                 1.1543                 3.0801
 Frc consts  --      0.0719                 0.0283                 0.0962
 IR Inten    --      4.7807                 2.9320                 8.1076

                      7                      8                      9
                      A                      A                      A
 Frequencies --    252.9296               275.8377               277.7216
 Red. masses --      1.3790                 3.2515                 2.1991
 Frc consts  --      0.0520                 0.1458                 0.0999
 IR Inten    --      0.1485                10.6425                 7.3769

                     10                     11                     12
                      A                      A                      A
 Frequencies --    326.6638               351.8554               358.6076
 Red. masses --      3.7190                 3.8221                 3.0958
 Frc consts  --      0.2338                 0.2788                 0.2346
 IR Inten    --      2.6589                16.2402                 1.7399

                     13                     14                     15
                      A                      A                      A
 Frequencies --    389.1740               444.3690               472.2669
 Red. masses --      2.8077                 1.6608                 5.9081
 Frc consts  --      0.2505                 0.1932                 0.7764
 IR Inten    --      3.1549               130.2904                12.9357

                     16                     17                     18
                      A                      A                      A
 Frequencies --    549.3013               596.8242               623.9184
 Red. masses --      4.0252                 3.4451                 1.5363
 Frc consts  --      0.7156                 0.7230                 0.3524
 IR Inten    --     11.2625                15.7496                96.4026

                     19                     20                     21
                      A                      A                      A
 Frequencies --    671.9601               740.2968               757.5059
 Red. masses --      4.5027                 3.1669                 4.9783
 Frc consts  --      1.1979                 1.0226                 1.6831
 IR Inten    --     33.2746                49.1868                 6.0555

                     22                     23                     24
                      A                      A                      A
 Frequencies --    859.7306               872.4387               918.6405
 Red. masses --     10.9511                 3.2677                 3.4272
 Frc consts  --      4.7691                 1.4654                 1.7041
 IR Inten    --     23.0015                12.1337                 5.0511

                     25                     26                     27
                      A                      A                      A
 Frequencies --    972.1039               974.3147              1044.2068
 Red. masses --      1.3955                 2.2360                 1.3354
 Frc consts  --      0.7770                 1.2506                 0.8579
 IR Inten    --      1.4275                 8.7015                 2.6575

                     28                     29                     30
                      A                      A                      A
 Frequencies --   1137.4680              1160.9749              1185.0951
 Red. masses --      4.5920                 2.0581                 2.0809
 Frc consts  --      3.5005                 1.6344                 1.7219
 IR Inten    --    191.6423                64.2512                83.6337

                     31                     32                     33
                      A                      A                      A
 Frequencies --   1244.7901              1252.1957              1301.4840
 Red. masses --      2.7432                 2.5707                 1.4427
 Frc consts  --      2.5044                 2.3749                 1.4398
 IR Inten    --      3.7860                 4.9680                 2.0909

                     34                     35                     36
                      A                      A                      A
 Frequencies --   1325.4871              1398.0009              1407.8314
 Red. masses --      1.5344                 2.1983                 3.5280
 Frc consts  --      1.5883                 2.5314                 4.1199
 IR Inten    --     48.9450                69.4023                41.0286

                     37                     38                     39
                      A                      A                      A
 Frequencies --   1434.6775              1460.2854              1475.2237
 Red. masses --      1.3948                 1.3523                 1.2760
 Frc consts  --      1.6916                 1.6991                 1.6362
 IR Inten    --     17.8599                19.4378                76.9113

                     40                     41                     42
                      A                      A                      A
 Frequencies --   1509.3386              1511.1484              1526.5800
 Red. masses --      1.0503                 1.0493                 1.0526
 Frc consts  --      1.4097                 1.4117                 1.4453
 IR Inten    --      3.7321                 0.9904                 8.6806

                     43                     44                     45
                      A                      A                      A
 Frequencies --   1535.0362              1655.1508              1858.0588
 Red. masses --      1.0577                11.5059                10.1386
 Frc consts  --      1.4684                18.5714                20.6227
 IR Inten    --     21.3386               188.9935               237.8641

                     46                     47                     48
                      A                      A                      A
 Frequencies --   3073.6733              3081.8375              3110.8540
 Red. masses --      1.0385                 1.0400                 1.0856
 Frc consts  --      5.7804                 5.8197                 6.1899
 IR Inten    --      7.5803                11.8755                 9.6561

                     49                     50                     51
                      A                      A                      A
 Frequencies --   3138.7454              3151.1432              3184.8171
 Red. masses --      1.1032                 1.1006                 1.1011
 Frc consts  --      6.4033                 6.4390                 6.5805
 IR Inten    --      7.2500                17.0566                 6.8382

                     52                     53                     54
                      A                      A                      A
 Frequencies --   3195.5992              3668.1776              3674.2261
 Red. masses --      1.0994                 1.0640                 1.0647
 Frc consts  --      6.6144                 8.4349                 8.4685
 IR Inten    --      2.1726                56.8526                55.6983

 - Thermochemistry -
 -------------------
 Temperature   298.150 Kelvin.  Pressure   1.00000 Atm.
 Atom     1 has atomic number  6 and mass  12.00000

 Molecular mass:   163.04807 amu.
 Principal axes and moments of inertia in atomic units:
                           1         2         3
     Eigenvalues --  1275.272481817.729041838.48560
           X            0.99771   0.03275  -0.05912
           Y           -0.00185   0.88766   0.46050
           Z            0.06756  -0.45934   0.88569
 This molecule is an asymmetric top.
 Rotational symmetry number  1.
 Warning -- assumption of classical behavior for rotation
           may cause significant error
 Rotational temperatures (Kelvin)      0.06792     0.04765     0.04711
 Rotational constants (GHZ):           1.41518     0.99285     0.98165
 Zero-point vibrational energy     407777.2 (Joules/Mol)
                                   97.46109 (Kcal/Mol)
 Warning -- explicit consideration of  17 degrees of freedom as
           vibrations may cause significant error
 Vibrational temperatures:     53.64    80.74   142.82   229.73   293.39
          (Kelvin)            331.23   363.91   396.87   399.58   470.00
                              506.24   515.96   559.93   639.35   679.49
                              790.32   858.70   897.68   966.80  1065.12
                             1089.88  1236.96  1255.24  1321.72  1398.64
                             1401.82  1502.38  1636.56  1670.38  1705.09
                             1790.98  1801.63  1872.55  1907.08  2011.41
                             2025.56  2064.18  2101.02  2122.52  2171.60
                             2174.21  2196.41  2208.57  2381.39  2673.33
                             4422.33  4434.08  4475.83  4515.95  4533.79
                             4582.24  4597.75  5277.69  5286.39

 Zero-point correction=                           0.155314 (Hartree/Particle)
 Thermal correction to Energy=                    0.166838
 Thermal correction to Enthalpy=                  0.167783
 Thermal correction to Gibbs Free Energy=         0.117746
 Sum of electronic and zero-point Energies=           -626.609568
 Sum of electronic and thermal Energies=              -626.598044
 Sum of electronic and thermal Enthalpies=            -626.597100
 Sum of electronic and thermal Free Energies=         -626.647137

                     E (Thermal)             CV                S
                      KCal/Mol        Cal/Mol-Kelvin    Cal/Mol-Kelvin
 Total                  104.693             41.894            105.311
 Electronic               0.000              0.000              0.000
 Translational            0.889              2.981             41.175
 Rotational               0.889              2.981             29.834
 Vibrational            102.915             35.932             34.302
 Vibration     1          0.594              1.982              5.399
 Vibration     2          0.596              1.975              4.589
 Vibration     3          0.604              1.950              3.469
 Vibration     4          0.622              1.892              2.554
 Vibration     5          0.640              1.834              2.097
 Vibration     6          0.652              1.795              1.877
 Vibration     7          0.664              1.758              1.710
 Vibration     8          0.677              1.718              1.559
 Vibration     9          0.679              1.715              1.548
 Vibration    10          0.710              1.622              1.277
 Vibration    11          0.728              1.571              1.158
 Vibration    12          0.733              1.558              1.128
 Vibration    13          0.757              1.493              1.003
 Vibration    14          0.804              1.373              0.813
 Vibration    15          0.829              1.312              0.731
 Vibration    16          0.905              1.141              0.546
 Vibration    17          0.955              1.039              0.455

 Optimization completed.
    -- Stationary point found.
 Normal termination of Gaussian 16 at Tue Dec  8 21:29:02 2020.

 ----------------------------------------------------------------------
 # B3LYP/6-311++G(d,p) empiricaldispersion=gd3bj scf=xqc pop=npa geom=c
 heck
 ----------------------------------------------------------------------

 ---------------------------------------
 CID_131221116_JID_1851_Energie_neutraal
 ---------------------------------------
 Structure from the checkpoint file:  "JID_1851.chk"
 Charge =  0 Multiplicity = 1

 SCF Done:  E(RB3LYP) =  -626.971572511     A.U. after   15 cycles
 Normal termination of Gaussian 16 at Tue Dec  8 21:31:20 2020.

 ----------------------------------------------------------------------
 # B3LYP/6-311++G(d,p) empiricaldispersion=gd3bj scf=xqc pop=npa geom=c
 heck
 ----------------------------------------------------------------------

 -------------------------------------
 CID_131221116_JID_1851_Energie_kation
 -------------------------------------
 Structure from the checkpoint file:  "JID_1851.chk"
 Charge =  1 Multiplicity = 2

 SCF Done:  E(UB3LYP) =  -626.591899863     A.U. after   33 cycles
 SCF Done:  E(UB3LYP) =  -626.591899863     a.u. after    1 cycles
 Normal termination of Gaussian 16 at Tue Dec  8 21:38:31 2020.
 Gaussian 16:  ES64L-G16RevA.03 25-Dec-2016

 ----------------------------------------------------------------------
 # B3LYP/6-311++G(d,p) empiricaldispersion=gd3bj scf=xqc pop=npa geom=c
 heck
 ----------------------------------------------------------------------

 ------------------------------------
 CID_131221116_JID_1851_Energie_anion
 ------------------------------------
 Structure from the checkpoint file:  "JID_1851.chk"
 Charge = -1 Multiplicity = 2

                         Standard orientation:
 ---------------------------------------------------------------------
 Center     Atomic      Atomic             Coordinates (Angstroms)
 Number     Number       Type             X           Y           Z
 ---------------------------------------------------------------------
      1          6           0        0.679241   -1.880576   -0.564957
      2          6           0        0.794692   -0.362885   -0.487392
      3          6           0        1.979355    0.161917   -1.301430
      4          6           0       -0.523571    0.355702   -0.938212
      5          6           0       -1.677268    0.050487    0.022899
      6          8           0       -1.950661    0.737396    0.978014
      7          8           0       -2.346540   -1.075359   -0.310038
      8          8           0       -0.386874    1.739733   -1.087579
      9          7           0        1.035963    0.052936    0.976058
     10          8           0        1.049574   -0.812657    1.839849
     11          8           0        1.190125    1.257825    1.188621
     12          1           0        0.497221   -2.162441   -1.606772
     13          1           0       -0.136996   -2.267328    0.044738
     14          1           0        1.608783   -2.349897   -0.235394
     15          1           0        1.835082   -0.111625   -2.351065
     16          1           0        2.053071    1.245975   -1.231026
     17          1           0        2.910127   -0.294407   -0.950448
     18          1           0       -0.766737   -0.050442   -1.923924
     19          1           0       -3.038393   -1.197688    0.368949
     20          1           0       -0.173576    2.093930   -0.203850
 ---------------------------------------------------------------------

 SCF Done:  E(UB3LYP) =  -626.983460942     A.U. after   33 cycles
 SCF Done:  E(UB3LYP) =  -626.983460942     a.u. after    1 cycles

 The electronic state is 2-A.
 Alpha  occ. eigenvalues --  -19.06142 -19.00086 -19.00049 -18.93898 -18.93753
 Alpha  occ. eigenvalues --  -14.29247 -10.18875 -10.12113 -10.09749 -10.04436
 Alpha  occ. eigenvalues --  -10.04376  -1.01699  -0.99953  -0.91943  -0.90224
 Alpha  occ. eigenvalues --   -0.84648  -0.70516  -0.60735  -0.57339  -0.53378
 Alpha  occ. eigenvalues --   -0.49930  -0.42371  -0.41293  -0.37890  -0.37060
 Alpha  occ. eigenvalues --   -0.35916  -0.32875  -0.32674  -0.32393  -0.30524
 Alpha  occ. eigenvalues --   -0.30276  -0.28158  -0.27388  -0.27200  -0.26046
 Alpha  occ. eigenvalues --   -0.23641  -0.22114  -0.20946  -0.18101  -0.15702
 Alpha  occ. eigenvalues --   -0.13124  -0.10979  -0.09827   0.05317
 Alpha virt. eigenvalues --    0.07293   0.08695   0.10387   0.10902   0.11585
 Alpha virt. eigenvalues --    0.12742   0.13397   0.14320   0.14545   0.16246
 Alpha virt. eigenvalues --    0.17161   0.17263   0.19090   0.19470   0.19950

  Beta  occ. eigenvalues --  -19.06101 -19.00077 -19.00042 -18.93355 -18.93300
  Beta  occ. eigenvalues --  -14.28195 -10.18874 -10.12071 -10.09805 -10.04396
  Beta  occ. eigenvalues --  -10.04371  -1.00388  -0.99816  -0.91901  -0.90195
  Beta  occ. eigenvalues --   -0.83689  -0.70361  -0.60641  -0.57302  -0.52567
  Beta  occ. eigenvalues --   -0.49697  -0.41740  -0.41191  -0.37762  -0.36163
  Beta  occ. eigenvalues --   -0.35544  -0.32543  -0.32366  -0.30837  -0.30335
  Beta  occ. eigenvalues --   -0.29242  -0.27821  -0.27135  -0.26840  -0.25747
  Beta  occ. eigenvalues --   -0.23331  -0.22041  -0.20909  -0.18049  -0.15602
  Beta  occ. eigenvalues --   -0.10581  -0.09814  -0.09306
  Beta virt. eigenvalues --    0.08132   0.09063   0.10351   0.10785   0.11529
  Beta virt. eigenvalues --    0.12636   0.13172   0.14133   0.14413   0.15248
  Beta virt. eigenvalues --    0.16487   0.17123   0.17455   0.19162   0.19410

 Mulliken charges and spin densities:
               1          2
     1  C   -0.481486  -0.139928
     2  C   -0.235625   0.206938
     3  C   -0.382689  -0.009161
     4  C    0.240997  -0.394406
     5  C   -0.028495  -0.111976
     6  O   -0.276445   0.008866
     7  O   -0.151817  -0.002128
     8  O   -0.166032   0.002743
     9  N    0.065589   0.297649
    10  O   -0.218739   0.221755
    11  O   -0.316878   0.181656
    12  H    0.063676   0.028379
    13  H    0.123212   0.085773
    14  H    0.180283  -0.007468
    15  H    0.086772   0.026517
    16  H    0.172452   0.002150
    17  H    0.139166   0.008440
    18  H    0.225490  -0.003283
    19  H   -0.287625   0.574210
    20  H    0.248194   0.023273
 Sum of Mulliken charges =  -1.00000   1.00000

 Dipole moment (field-independent basis, Debye):
    X=              0.7462    Y=             -1.0814    Z=             -5.7272  Tot=              5.8759
 Quadrupole moment (field-independent basis, Debye-Ang):
   XX=            -89.4628   YY=            -84.0498   ZZ=            -88.4549
   XY=             -4.6468   XZ=             -3.7763   YZ=              1.4929

 Summary of Natural Population Analysis:

                                       Natural Population
                Natural  -----------------------------------------------
    Atom  No    Charge         Core      Valence    Rydberg      Total
 -----------------------------------------------------------------------
      C    1   -0.29398      0.99961     2.28728    0.00708     3.29398
      C    2    0.02925      0.99954     1.95723    0.01398     2.97075
      C    3   -0.28571      0.99961     2.27881    0.00730     3.28571
      C    4    0.02373      0.99946     1.95769    0.01912     2.97627
      C    5    0.39617      0.99971     1.57619    0.02793     2.60383
      O    6   -0.29425      0.99987     3.28761    0.00677     4.29425
      O    7   -0.34728      0.99987     3.34042    0.00698     4.34728
      O    8   -0.37327      0.99989     3.36663    0.00674     4.37327
      N    9    0.35038      0.99972     2.12034    0.02957     3.14962
      O   10   -0.18528      0.99989     3.17703    0.00836     4.18528
      O   11   -0.22258      0.99989     3.21468    0.00801     4.22258
      H   12    0.09047      0.00000     0.40839    0.00114     0.40953
      H   13    0.11465      0.00000     0.38393    0.00142     0.38535
      H   14    0.10656      0.00000     0.39239    0.00105     0.39344
      H   15    0.09063      0.00000     0.40803    0.00135     0.40937
      H   16    0.11666      0.00000     0.38215    0.00120     0.38334
      H   17    0.09989      0.00000     0.39911    0.00100     0.40011
      H   18    0.09351      0.00000     0.40464    0.00185     0.40649
      H   19    0.24115      0.00000     0.24778    0.01107     0.25885
      H   20    0.24932      0.00000     0.24772    0.00296     0.25068
 =======================================================================
   * Total *    0.00000     10.99706    31.83806    0.16488    43.00000

 Normal termination of Gaussian 16 at Tue Dec  8 21:46:02 2020.
