 Gaussian 16, Revision A.03,

 -----------------------------------------------------------
 # opt freq B3LYP/6-31G(d) empiricaldispersion=gd3bj scf=xqc
 -----------------------------------------------------------

 -------------------------------
 CID_142410941_JID_1106_neutraal
 -------------------------------
 Symbolic Z-matrix:
 Charge =  0 Multiplicity = 1

 SCF Done:  E(RB3LYP) =  -833.317011108     A.U. after   16 cycles
 SCF Done:  E(RB3LYP) =  -833.323402228     A.U. after   14 cycles
 SCF Done:  E(RB3LYP) =  -833.325428168     A.U. after   13 cycles
 SCF Done:  E(RB3LYP) =  -833.326260143     A.U. after   13 cycles
 SCF Done:  E(RB3LYP) =  -833.327257223     A.U. after   13 cycles
 SCF Done:  E(RB3LYP) =  -833.330524567     A.U. after   13 cycles
 SCF Done:  E(RB3LYP) =  -833.332004863     A.U. after   13 cycles
 SCF Done:  E(RB3LYP) =  -833.333684683     A.U. after   12 cycles
 SCF Done:  E(RB3LYP) =  -833.334737639     A.U. after   13 cycles
 SCF Done:  E(RB3LYP) =  -833.334847840     A.U. after   12 cycles
 SCF Done:  E(RB3LYP) =  -833.334946449     A.U. after   11 cycles
 SCF Done:  E(RB3LYP) =  -833.334950149     A.U. after   11 cycles
 SCF Done:  E(RB3LYP) =  -833.334952499     A.U. after   11 cycles
 SCF Done:  E(RB3LYP) =  -833.334953280     A.U. after    9 cycles
 SCF Done:  E(RB3LYP) =  -833.334953374     A.U. after    8 cycles
 Optimization completed.
    -- Stationary point found.
 Normal termination of Gaussian 16 at Tue Dec  8 19:14:32 2020.

 --------------------------------------------------------------------
 #N Geom=AllCheck Guess=TCheck SCRF=Check GenChk RB3LYP/6-31G(d) Freq
 --------------------------------------------------------------------

 Structure from the checkpoint file:  "JID_1106.chk"
 -------------------------------
 CID_142410941_JID_1106_neutraal
 -------------------------------
 Charge =  0 Multiplicity = 1

 SCF Done:  E(RB3LYP) =  -833.334953374     A.U. after    1 cycles

  Exact polarizability: 151.916  -9.507 106.219   7.823   0.831  57.567
 Approx polarizability: 228.054 -22.464 200.905  11.640  -2.806  93.026

                      1                      2                      3
                      A                      A                      A
 Frequencies --     33.9862                58.5101               144.2435
 Red. masses --      6.0898                 4.5705                 4.5804
 Frc consts  --      0.0041                 0.0092                 0.0561
 IR Inten    --      0.9041                 1.7759                 3.0830

                      4                      5                      6
                      A                      A                      A
 Frequencies --    229.3969               262.4807               339.3021
 Red. masses --      4.3827                 3.0163                 3.6631
 Frc consts  --      0.1359                 0.1224                 0.2485
 IR Inten    --      5.2064                24.1760                 5.3899

                      7                      8                      9
                      A                      A                      A
 Frequencies --    372.2386               447.0113               492.2549
 Red. masses --      7.4073                 4.6609                 6.2805
 Frc consts  --      0.6047                 0.5487                 0.8967
 IR Inten    --      6.0856                12.6716                 8.2112

                     10                     11                     12
                      A                      A                      A
 Frequencies --    573.0608               590.4862               632.8086
 Red. masses --      5.5903                 2.6992                 2.7622
 Frc consts  --      1.0817                 0.5545                 0.6517
 IR Inten    --      3.9423                 7.9577                10.1011

                     13                     14                     15
                      A                      A                      A
 Frequencies --    654.5581               690.7055               722.4432
 Red. masses --      7.2597                 6.9944                 1.5044
 Frc consts  --      1.8326                 1.9660                 0.4626
 IR Inten    --      2.7621                 0.1239                83.3513

                     16                     17                     18
                      A                      A                      A
 Frequencies --    759.1072               769.9317               779.1649
 Red. masses --      1.3707                 3.5189                 1.7580
 Frc consts  --      0.4654                 1.2290                 0.6288
 IR Inten    --     29.0198                19.8602                 5.1730

                     19                     20                     21
                      A                      A                      A
 Frequencies --    831.1793               860.6678               877.6877
 Red. masses --      2.8249                 3.9206                 1.4340
 Frc consts  --      1.1498                 1.7111                 0.6508
 IR Inten    --     59.4273                26.4683                10.5666

                     22                     23                     24
                      A                      A                      A
 Frequencies --    907.9173               932.7126               946.6680
 Red. masses --      1.3756                 2.2902                 1.7435
 Frc consts  --      0.6681                 1.1739                 0.9206
 IR Inten    --     10.1237                34.2090                 6.5212

                     25                     26                     27
                      A                      A                      A
 Frequencies --    988.7514              1012.0989              1068.2070
 Red. masses --      3.5990                 2.6924                 1.8041
 Frc consts  --      2.0731                 1.6249                 1.2129
 IR Inten    --      5.9286                 2.0510                 7.4046

                     28                     29                     30
                      A                      A                      A
 Frequencies --   1079.7086              1157.7081              1219.4732
 Red. masses --      2.1095                 1.3921                 1.3622
 Frc consts  --      1.4489                 1.0993                 1.1935
 IR Inten    --      0.6413                15.1511                 6.1586

                     31                     32                     33
                      A                      A                      A
 Frequencies --   1236.5775              1282.0823              1296.5065
 Red. masses --      1.5923                 1.8770                 1.8843
 Frc consts  --      1.4345                 1.8178                 1.8662
 IR Inten    --      3.9897                88.5173                41.7851

                     34                     35                     36
                      A                      A                      A
 Frequencies --   1384.7188              1415.5060              1449.6965
 Red. masses --      1.4680                 5.2774                 4.1123
 Frc consts  --      1.6584                 6.2301                 5.0920
 IR Inten    --      5.9803                28.5066                21.0159

                     37                     38                     39
                      A                      A                      A
 Frequencies --   1469.6372              1504.6266              1622.8546
 Red. masses --      2.1905                 1.2798                 6.8851
 Frc consts  --      2.7875                 1.7071                10.6837
 IR Inten    --     20.0538                26.6926               134.2068

                     40                     41                     42
                      A                      A                      A
 Frequencies --   1623.5132              1693.5701              3194.0724
 Red. masses --      6.1621                 5.2583                 1.0891
 Frc consts  --      9.5695                 8.8859                 6.5467
 IR Inten    --    112.9901                17.4923                 4.7007

                     43                     44                     45
                      A                      A                      A
 Frequencies --   3198.0162              3213.0028              3216.8738
 Red. masses --      1.0865                 1.0914                 1.0980
 Frc consts  --      6.5469                 6.6383                 6.6948
 IR Inten    --      0.9308                 6.3863                31.3885

                     46                     47                     48
                      A                      A                      A
 Frequencies --   3235.1011              3295.3955              3373.6718
 Red. masses --      1.0966                 1.0938                 1.0741
 Frc consts  --      6.7617                 6.9983                 7.2028
 IR Inten    --      9.6037                 4.0810                 7.8428

 - Thermochemistry -
 -------------------
 Temperature   298.150 Kelvin.  Pressure   1.00000 Atm.
 Atom     1 has atomic number  6 and mass  12.00000

 Molecular mass:   165.03607 amu.
 Principal axes and moments of inertia in atomic units:
                           1         2         3
     Eigenvalues --   652.512933084.448463517.04594
           X            0.99998  -0.00155   0.00615
           Y            0.00151   0.99998   0.00543
           Z           -0.00616  -0.00542   0.99997
 This molecule is an asymmetric top.
 Rotational symmetry number  1.
 Warning -- assumption of classical behavior for rotation
           may cause significant error
 Rotational temperatures (Kelvin)      0.13274     0.02808     0.02463
 Rotational constants (GHZ):           2.76583     0.58511     0.51314
 Zero-point vibrational energy     353735.1 (Joules/Mol)
                                   84.54472 (Kcal/Mol)
 Warning -- explicit consideration of  11 degrees of freedom as
           vibrations may cause significant error
 Vibrational temperatures:     48.90    84.18   207.53   330.05   377.65
          (Kelvin)            488.18   535.57   643.15   708.25   824.51
                              849.58   910.47   941.76   993.77  1039.43
                             1092.19  1107.76  1121.04  1195.88  1238.31
                             1262.80  1306.29  1341.97  1362.04  1422.59
                             1456.18  1536.91  1553.46  1665.68  1754.55
                             1779.16  1844.63  1865.38  1992.30  2036.60
                             2085.79  2114.48  2164.82  2334.93  2335.87
                             2436.67  4595.56  4601.23  4622.79  4628.36
                             4654.59  4741.34  4853.96

 Zero-point correction=                           0.134731 (Hartree/Particle)
 Thermal correction to Energy=                    0.143772
 Thermal correction to Enthalpy=                  0.144716
 Thermal correction to Gibbs Free Energy=         0.099018
 Sum of electronic and zero-point Energies=           -833.200223
 Sum of electronic and thermal Energies=              -833.191181
 Sum of electronic and thermal Enthalpies=            -833.190237
 Sum of electronic and thermal Free Energies=         -833.235936

                     E (Thermal)             CV                S
                      KCal/Mol        Cal/Mol-Kelvin    Cal/Mol-Kelvin
 Total                   90.218             34.833             96.181
 Electronic               0.000              0.000              0.000
 Translational            0.889              2.981             41.211
 Rotational               0.889              2.981             30.338
 Vibrational             88.441             28.871             24.632
 Vibration     1          0.594              1.983              5.582
 Vibration     2          0.596              1.974              4.507
 Vibration     3          0.616              1.909              2.747
 Vibration     4          0.652              1.796              1.884
 Vibration     5          0.670              1.742              1.645
 Vibration     6          0.719              1.597              1.215
 Vibration     7          0.744              1.529              1.071
 Vibration     8          0.806              1.367              0.805
 Vibration     9          0.848              1.267              0.678
 Vibration    10          0.929              1.090              0.498
 Vibration    11          0.948              1.052              0.466

                           ! Non-Optimized Parameters !
 Normal termination of Gaussian 16 at Tue Dec  8 19:17:36 2020.

 ----------------------------------------------------------------------
 # B3LYP/6-311++G(d,p) empiricaldispersion=gd3bj scf=xqc pop=npa geom=c
 heck
 ----------------------------------------------------------------------

 ---------------------------------------
 CID_142410941_JID_1106_Energie_neutraal
 ---------------------------------------
 Structure from the checkpoint file:  "JID_1106.chk"
 Charge =  0 Multiplicity = 1

 SCF Done:  E(RB3LYP) =  -833.480565561     A.U. after   15 cycles
 Normal termination of Gaussian 16 at Tue Dec  8 19:18:41 2020.

 ----------------------------------------------------------------------
 # B3LYP/6-311++G(d,p) empiricaldispersion=gd3bj scf=xqc pop=npa geom=c
 heck
 ----------------------------------------------------------------------

 -------------------------------------
 CID_142410941_JID_1106_Energie_kation
 -------------------------------------
 Structure from the checkpoint file:  "JID_1106.chk"
 Charge =  1 Multiplicity = 2

 SCF Done:  E(UB3LYP) =  -833.210571557     A.U. after   21 cycles
 Normal termination of Gaussian 16 at Tue Dec  8 19:21:02 2020.
 Gaussian 16:  ES64L-G16RevA.03 25-Dec-2016

 ----------------------------------------------------------------------
 # B3LYP/6-311++G(d,p) empiricaldispersion=gd3bj scf=xqc pop=npa geom=c
 heck
 ----------------------------------------------------------------------

 ------------------------------------
 CID_142410941_JID_1106_Energie_anion
 ------------------------------------
 Structure from the checkpoint file:  "JID_1106.chk"
 Charge = -1 Multiplicity = 2

                         Standard orientation:
 ---------------------------------------------------------------------
 Center     Atomic      Atomic             Coordinates (Angstroms)
 Number     Number       Type             X           Y           Z
 ---------------------------------------------------------------------
      1          6           0       -3.173769   -0.111141   -0.719283
      2          6           0       -2.478766   -1.235858   -0.470057
      3          7           0       -1.409790   -1.224975    0.492424
      4          7           0       -0.772297    0.041672    0.541016
      5          6           0       -1.584414    1.176411    0.539284
      6          6           0       -2.808072    1.114262   -0.031394
      7          6           0        0.585919    0.072296    0.226688
      8          6           0        1.438435   -1.006997    0.253075
      9         16           0        3.024830   -0.483105   -0.172388
     10          7           0        2.594734    1.129131   -0.374577
     11          6           0        1.305180    1.258049   -0.145867
     12          1           0       -3.970217   -0.106736   -1.456938
     13          1           0       -2.667181   -2.191266   -0.950376
     14          1           0       -1.758230   -1.439319    1.431484
     15          1           0       -1.166360    2.069405    0.994907
     16          1           0       -3.476260    1.966843   -0.004408
     17          1           0        1.188012   -2.032204    0.480032
     18          1           0        0.857353    2.240028   -0.263219
 ---------------------------------------------------------------------

 SCF Done:  E(UB3LYP) =  -833.472721519     A.U. after   33 cycles
 SCF Done:  E(UB3LYP) =  -833.472721519     a.u. after    1 cycles

 The electronic state is 2-A.
 Alpha  occ. eigenvalues --  -88.75221 -14.22555 -14.20320 -14.19072 -10.07641
 Alpha  occ. eigenvalues --  -10.07382 -10.04790 -10.04616 -10.03885 -10.02262
 Alpha  occ. eigenvalues --  -10.01685  -7.83703  -5.80099  -5.79609  -5.79254
 Alpha  occ. eigenvalues --   -0.87515  -0.82218  -0.71115  -0.66204  -0.63648
 Alpha  occ. eigenvalues --   -0.60504  -0.53667  -0.49513  -0.44797  -0.43523
 Alpha  occ. eigenvalues --   -0.40528  -0.40180  -0.35160  -0.33371  -0.31563
 Alpha  occ. eigenvalues --   -0.30029  -0.28689  -0.27679  -0.26934  -0.23171
 Alpha  occ. eigenvalues --   -0.22575  -0.20203  -0.17101  -0.16191  -0.13950
 Alpha  occ. eigenvalues --   -0.13259  -0.10138  -0.05190   0.06044
 Alpha virt. eigenvalues --    0.08681   0.09434   0.09616   0.10311   0.11271
 Alpha virt. eigenvalues --    0.11487   0.12299   0.12665   0.13525   0.14039
 Alpha virt. eigenvalues --    0.15508   0.15912   0.17273   0.17973   0.18951

  Beta  occ. eigenvalues --  -88.75185 -14.22590 -14.20240 -14.18939 -10.07619
  Beta  occ. eigenvalues --  -10.07383 -10.04499 -10.04340 -10.03598 -10.02224
  Beta  occ. eigenvalues --  -10.01603  -7.83670  -5.80083  -5.79595  -5.79131
  Beta  occ. eigenvalues --   -0.87332  -0.82031  -0.70777  -0.65821  -0.63294
  Beta  occ. eigenvalues --   -0.60270  -0.53407  -0.49028  -0.44409  -0.43280
  Beta  occ. eigenvalues --   -0.40375  -0.39948  -0.34934  -0.33202  -0.31318
  Beta  occ. eigenvalues --   -0.29854  -0.28363  -0.27533  -0.26551  -0.22980
  Beta  occ. eigenvalues --   -0.22307  -0.19724  -0.16416  -0.15939  -0.13143
  Beta  occ. eigenvalues --   -0.12631  -0.09122  -0.04360
  Beta virt. eigenvalues --    0.08792   0.09794   0.10101   0.10367   0.11051
  Beta virt. eigenvalues --    0.11453   0.11868   0.12337   0.12715   0.13570
  Beta virt. eigenvalues --    0.14164   0.15477   0.15917   0.17231   0.18291

 Mulliken charges and spin densities:
               1          2
     1  C    0.290534  -0.177753
     2  C   -0.626023   0.305215
     3  N   -0.079158  -0.118905
     4  N    0.245864   0.059149
     5  C   -0.172391  -0.117728
     6  C   -0.109943   0.078278
     7  C   -0.880999  -0.185249
     8  C    0.543157   0.323162
     9  S   -0.042303  -0.006490
    10  N   -0.181558   0.043029
    11  C   -0.311527   0.083403
    12  H    0.092295   0.017766
    13  H    0.100896  -0.021145
    14  H    0.058271   0.165733
    15  H   -0.008062   0.080992
    16  H   -0.161963   0.275689
    17  H    0.088430   0.161314
    18  H    0.154479   0.033538
 Sum of Mulliken charges =  -1.00000   1.00000

 Dipole moment (field-independent basis, Debye):
    X=              0.8071    Y=             -1.0116    Z=              0.0576  Tot=              1.2954
 Quadrupole moment (field-independent basis, Debye-Ang):
   XX=           -114.7192   YY=            -88.3364   ZZ=            -85.8823
   XY=             -1.7250   XZ=              2.7768   YZ=              1.5078

 Summary of Natural Population Analysis:

                                       Natural Population
                Natural  -----------------------------------------------
    Atom  No    Charge         Core      Valence    Rydberg      Total
 -----------------------------------------------------------------------
      C    1   -0.13055      0.99953     2.12125    0.00977     3.13055
      C    2    0.03579      0.99952     1.94999    0.01470     2.96421
      N    3   -0.23305      0.99974     2.71835    0.01496     3.73305
      N    4   -0.15844      0.99962     2.64625    0.01257     3.65844
      C    5    0.04775      0.99952     1.93903    0.01369     2.95225
      C    6   -0.14358      0.99955     2.13278    0.01124     3.14358
      C    7    0.04135      0.99944     1.94657    0.01265     2.95865
      C    8   -0.16922      0.99951     2.15686    0.01284     3.16922
      S    9    0.27572      4.99947     2.69455    0.03026     7.72428
      N   10   -0.30221      0.99974     2.79083    0.01164     3.80221
      C   11   -0.00120      0.99959     1.98655    0.01505     3.00120
      H   12    0.09430      0.00000     0.40491    0.00080     0.40570
      H   13    0.08312      0.00000     0.41601    0.00087     0.41688
      H   14    0.16754      0.00000     0.33041    0.00206     0.33246
      H   15    0.08710      0.00000     0.41115    0.00174     0.41290
      H   16    0.09620      0.00000     0.40269    0.00111     0.40380
      H   17    0.11359      0.00000     0.38503    0.00137     0.38641
      H   18    0.09578      0.00000     0.40201    0.00222     0.40422
 =======================================================================
   * Total *    0.00000     14.99524    27.83521    0.16955    43.00000

 Normal termination of Gaussian 16 at Tue Dec  8 19:24:47 2020.
