 Gaussian 16, Revision A.03,

 -----------------------------------------------------------
 # opt freq B3LYP/6-31G(d) empiricaldispersion=gd3bj scf=xqc
 -----------------------------------------------------------

 -------------------------------
 CID_141871884_JID_5147_neutraal
 -------------------------------
 Symbolic Z-matrix:
 Charge =  0 Multiplicity = 1

 SCF Done:  E(RB3LYP) =  -727.243463392     A.U. after   15 cycles
 SCF Done:  E(RB3LYP) =  -727.262475661     A.U. after   13 cycles
 SCF Done:  E(RB3LYP) =  -727.264840497     A.U. after   14 cycles
 SCF Done:  E(RB3LYP) =  -727.264471289     A.U. after   13 cycles
 SCF Done:  E(RB3LYP) =  -727.265995533     A.U. after   12 cycles
 SCF Done:  E(RB3LYP) =  -727.265912493     A.U. after   13 cycles
 SCF Done:  E(RB3LYP) =  -727.266336287     A.U. after   12 cycles
 SCF Done:  E(RB3LYP) =  -727.266245418     A.U. after   13 cycles
 SCF Done:  E(RB3LYP) =  -727.266395881     A.U. after   12 cycles
 SCF Done:  E(RB3LYP) =  -727.266641488     A.U. after   12 cycles
 SCF Done:  E(RB3LYP) =  -727.266836313     A.U. after   12 cycles
 SCF Done:  E(RB3LYP) =  -727.266837209     A.U. after    9 cycles
 SCF Done:  E(RB3LYP) =  -727.266837494     A.U. after    9 cycles
 SCF Done:  E(RB3LYP) =  -727.266837544     A.U. after    7 cycles
 SCF Done:  E(RB3LYP) =  -727.266837601     A.U. after    8 cycles
 Optimization completed.
    -- Stationary point found.
 Normal termination of Gaussian 16 at Thu Dec 10 14:51:43 2020.

 --------------------------------------------------------------------
 #N Geom=AllCheck Guess=TCheck SCRF=Check GenChk RB3LYP/6-31G(d) Freq
 --------------------------------------------------------------------

 Structure from the checkpoint file:  "JID_5147.chk"
 -------------------------------
 CID_141871884_JID_5147_neutraal
 -------------------------------
 Charge =  0 Multiplicity = 1

 SCF Done:  E(RB3LYP) =  -727.266837601     A.U. after    1 cycles

  Exact polarizability: 134.898   0.299 115.567  -5.449  -5.277  93.208
 Approx polarizability: 181.822  -2.001 180.492 -10.508  -6.189 159.489

                      1                      2                      3
                      A                      A                      A
 Frequencies --     39.0604                57.4128                73.1388
 Red. masses --      4.1350                 6.9017                 4.6753
 Frc consts  --      0.0037                 0.0134                 0.0147
 IR Inten    --      4.8399                 0.9120                 4.3815

                      4                      5                      6
                      A                      A                      A
 Frequencies --     85.2364               116.7930               128.4965
 Red. masses --      4.9796                 5.1399                 3.8509
 Frc consts  --      0.0213                 0.0413                 0.0375
 IR Inten    --     11.0380                 0.5227                 3.4477

                      7                      8                      9
                      A                      A                      A
 Frequencies --    132.6348               145.4571               192.2418
 Red. masses --      5.1623                 1.0550                 6.0110
 Frc consts  --      0.0535                 0.0132                 0.1309
 IR Inten    --      6.3200                 0.3076                 2.4613

                     10                     11                     12
                      A                      A                      A
 Frequencies --    201.4105               252.9359               278.3065
 Red. masses --      1.1889                 3.8565                 4.6863
 Frc consts  --      0.0284                 0.1454                 0.2139
 IR Inten    --      0.2621                 2.8236                 1.8617

                     13                     14                     15
                      A                      A                      A
 Frequencies --    304.2839               365.7354               387.1463
 Red. masses --      3.9517                 4.1368                 5.3671
 Frc consts  --      0.2156                 0.3260                 0.4740
 IR Inten    --      4.2603                 0.2453                 1.6055

                     16                     17                     18
                      A                      A                      A
 Frequencies --    418.6848               483.1544               509.2051
 Red. masses --      4.6393                 2.8696                 2.6030
 Frc consts  --      0.4792                 0.3947                 0.3977
 IR Inten    --     20.9779                 4.4634                 6.1239

                     19                     20                     21
                      A                      A                      A
 Frequencies --    547.7561               575.1354               593.1920
 Red. masses --      3.2166                 3.5574                 4.2466
 Frc consts  --      0.5686                 0.6933                 0.8804
 IR Inten    --      4.1584                 1.9717                 9.9962

                     22                     23                     24
                      A                      A                      A
 Frequencies --    615.0533               634.4583               674.4631
 Red. masses --      3.7994                 4.2514                 2.9904
 Frc consts  --      0.8468                 1.0083                 0.8015
 IR Inten    --      5.5980                 1.3938                 2.0911

                     25                     26                     27
                      A                      A                      A
 Frequencies --    711.0301               725.3492               760.0284
 Red. masses --      4.7143                 3.6412                 3.7195
 Frc consts  --      1.4043                 1.1287                 1.2659
 IR Inten    --      0.8329                 3.7880                 1.6343

                     28                     29                     30
                      A                      A                      A
 Frequencies --    869.5025               886.5147               887.4337
 Red. masses --      2.7484                 2.9897                 5.2122
 Frc consts  --      1.2243                 1.3843                 2.4185
 IR Inten    --      3.5300                 1.3684                12.7367

                     31                     32                     33
                      A                      A                      A
 Frequencies --    915.4195               967.9002               997.1246
 Red. masses --      2.6299                 2.7972                 1.6993
 Frc consts  --      1.2985                 1.5439                 0.9954
 IR Inten    --      3.2657                 4.1341                 6.5129

                     34                     35                     36
                      A                      A                      A
 Frequencies --   1015.1016              1038.8929              1053.2022
 Red. masses --      1.8961                 1.5931                 3.1841
 Frc consts  --      1.1511                 1.0131                 2.0810
 IR Inten    --      8.8219                 0.4155                37.5429

                     37                     38                     39
                      A                      A                      A
 Frequencies --   1064.5476              1074.0948              1114.0792
 Red. masses --      3.1041                 2.0058                 1.9609
 Frc consts  --      2.0726                 1.3634                 1.4339
 IR Inten    --     11.2496                 9.0933                 2.5969

                     40                     41                     42
                      A                      A                      A
 Frequencies --   1134.1944              1161.6895              1170.1088
 Red. masses --      1.6392                 1.4347                 2.1744
 Frc consts  --      1.2424                 1.1408                 1.7541
 IR Inten    --     13.2423                17.9524                 8.1047

                     43                     44                     45
                      A                      A                      A
 Frequencies --   1196.5334              1200.9762              1235.0532
 Red. masses --      2.2794                 1.8883                 1.4661
 Frc consts  --      1.9227                 1.6047                 1.3176
 IR Inten    --    105.8680                45.5263                 3.5668

                     46                     47                     48
                      A                      A                      A
 Frequencies --   1239.7058              1267.2378              1282.6785
 Red. masses --      1.5214                 2.4844                 1.3467
 Frc consts  --      1.3776                 2.3506                 1.3054
 IR Inten    --      3.8523                52.7374                19.7973

                     49                     50                     51
                      A                      A                      A
 Frequencies --   1325.4465              1338.5253              1406.9560
 Red. masses --      1.5765                 1.5870                 1.3981
 Frc consts  --      1.6319                 1.6752                 1.6306
 IR Inten    --      9.5716                60.9336                 3.8614

                     52                     53                     54
                      A                      A                      A
 Frequencies --   1410.4137              1421.2042              1429.0221
 Red. masses --      1.3131                 1.4158                 1.5623
 Frc consts  --      1.5390                 1.6849                 1.8797
 IR Inten    --     63.7370                47.2655                 9.0492

                     55                     56                     57
                      A                      A                      A
 Frequencies --   1446.4314              1494.3381              1497.7702
 Red. masses --      1.1409                 1.0596                 1.0547
 Frc consts  --      1.4063                 1.3941                 1.3940
 IR Inten    --      5.9628                12.0423                20.6862

                     58                     59                     60
                      A                      A                      A
 Frequencies --   1504.1237              1507.8496              1797.5497
 Red. masses --      1.0477                 1.0554                10.4778
 Frc consts  --      1.3965                 1.4137                19.9472
 IR Inten    --     13.1825                19.1831               152.2130

                     61                     62                     63
                      A                      A                      A
 Frequencies --   1807.0843              1845.5748              1874.4230
 Red. masses --     10.4662                12.3743                12.4329
 Frc consts  --     20.1371                24.8332                25.7369
 IR Inten    --     99.5569               442.2606               104.6784

                     64                     65                     66
                      A                      A                      A
 Frequencies --   2997.1858              3046.3834              3052.0565
 Red. masses --      1.0816                 1.0736                 1.0374
 Frc consts  --      5.7246                 5.8701                 5.6935
 IR Inten    --     11.7242                 4.5470                 1.8384

                     67                     68                     69
                      A                      A                      A
 Frequencies --   3054.9316              3080.0394              3104.3274
 Red. masses --      1.0470                 1.0605                 1.0865
 Frc consts  --      5.7573                 5.9276                 6.1692
 IR Inten    --      0.9787                 0.1371                 5.5061

                     70                     71                     72
                      A                      A                      A
 Frequencies --   3116.1245              3124.2468              3125.6066
 Red. masses --      1.0990                 1.0940                 1.1023
 Frc consts  --      6.2877                 6.2915                 6.3449
 IR Inten    --      7.6132                 6.4756                 0.3225

                     73                     74                     75
                      A                      A                      A
 Frequencies --   3126.0544              3171.9109              3173.9411
 Red. masses --      1.0877                 1.1023                 1.1045
 Frc consts  --      6.2628                 6.5340                 6.5555
 IR Inten    --     13.8880                 7.9876                 5.1732

 - Thermochemistry -
 -------------------
 Temperature   298.150 Kelvin.  Pressure   1.00000 Atm.
 Atom     1 has atomic number  6 and mass  12.00000

 Molecular mass:   208.07356 amu.
 Principal axes and moments of inertia in atomic units:
                           1         2         3
     Eigenvalues --  2110.761423374.845254754.18484
           X            0.99953   0.02955  -0.00791
           Y           -0.02977   0.99912  -0.02967
           Z            0.00703   0.02989   0.99953
 This molecule is an asymmetric top.
 Rotational symmetry number  1.
 Warning -- assumption of classical behavior for rotation
           may cause significant error
 Rotational temperatures (Kelvin)      0.04103     0.02566     0.01822
 Rotational constants (GHZ):           0.85502     0.53476     0.37961
 Zero-point vibrational energy     556618.3 (Joules/Mol)
                                  133.03497 (Kcal/Mol)
 Warning -- explicit consideration of  22 degrees of freedom as
           vibrations may cause significant error
 Vibrational temperatures:     56.20    82.60   105.23   122.64   168.04
          (Kelvin)            184.88   190.83   209.28   276.59   289.78
                              363.92   400.42   437.80   526.21   557.02
                              602.39   695.15   732.63   788.10   827.49
                              853.47   884.92   912.84   970.40  1023.01
                             1043.62  1093.51  1251.02  1275.50  1276.82
                             1317.08  1392.59  1434.64  1460.50  1494.74
                             1515.32  1531.65  1545.38  1602.91  1631.85
                             1671.41  1683.53  1721.54  1727.94  1776.97
                             1783.66  1823.27  1845.49  1907.02  1925.84
                             2024.30  2029.27  2044.80  2056.04  2081.09
                             2150.02  2154.96  2164.10  2169.46  2586.27
                             2599.99  2655.37  2696.88  4312.28  4383.07
                             4391.23  4395.37  4431.49  4466.43  4483.41
                             4495.09  4497.05  4497.70  4563.67  4566.59

 Zero-point correction=                           0.212005 (Hartree/Particle)
 Thermal correction to Energy=                    0.226618
 Thermal correction to Enthalpy=                  0.227562
 Thermal correction to Gibbs Free Energy=         0.169687
 Sum of electronic and zero-point Energies=           -727.054833
 Sum of electronic and thermal Energies=              -727.040220
 Sum of electronic and thermal Enthalpies=            -727.039276
 Sum of electronic and thermal Free Energies=         -727.097151

                     E (Thermal)             CV                S
                      KCal/Mol        Cal/Mol-Kelvin    Cal/Mol-Kelvin
 Total                  142.205             53.475            121.809
 Electronic               0.000              0.000              0.000
 Translational            0.889              2.981             41.902
 Rotational               0.889              2.981             31.893
 Vibrational            140.427             47.514             48.013
 Vibration     1          0.594              1.981              5.306
 Vibration     2          0.596              1.975              4.544
 Vibration     3          0.599              1.967              4.067
 Vibration     4          0.601              1.959              3.767
 Vibration     5          0.608              1.935              3.153
 Vibration     6          0.611              1.925              2.968
 Vibration     7          0.613              1.921              2.907
 Vibration     8          0.617              1.908              2.731
 Vibration     9          0.634              1.851              2.206
 Vibration    10          0.638              1.838              2.120
 Vibration    11          0.664              1.758              1.710
 Vibration    12          0.679              1.714              1.544
 Vibration    13          0.695              1.666              1.393
 Vibration    14          0.739              1.543              1.098
 Vibration    15          0.756              1.498              1.011
 Vibration    16          0.782              1.430              0.896
 Vibration    17          0.839              1.287              0.702
 Vibration    18          0.864              1.230              0.636
 Vibration    19          0.903              1.145              0.549
 Vibration    20          0.931              1.085              0.494
 Vibration    21          0.951              1.046              0.462
 Vibration    22          0.975              1.000              0.424

 Optimization completed.
    -- Stationary point found.
 Normal termination of Gaussian 16 at Thu Dec 10 15:00:08 2020.

 ----------------------------------------------------------------------
 # B3LYP/6-311++G(d,p) empiricaldispersion=gd3bj scf=xqc pop=npa geom=c
 heck
 ----------------------------------------------------------------------

 ---------------------------------------
 CID_141871884_JID_5147_Energie_neutraal
 ---------------------------------------
 Structure from the checkpoint file:  "JID_5147.chk"
 Charge =  0 Multiplicity = 1

 SCF Done:  E(RB3LYP) =  -727.478190083     A.U. after   14 cycles
 Normal termination of Gaussian 16 at Thu Dec 10 15:02:54 2020.

 ----------------------------------------------------------------------
 # B3LYP/6-311++G(d,p) empiricaldispersion=gd3bj scf=xqc pop=npa geom=c
 heck
 ----------------------------------------------------------------------

 -------------------------------------
 CID_141871884_JID_5147_Energie_kation
 -------------------------------------
 Structure from the checkpoint file:  "JID_5147.chk"
 Charge =  1 Multiplicity = 2

 SCF Done:  E(UB3LYP) =  -727.141571998     A.U. after   29 cycles
 Normal termination of Gaussian 16 at Thu Dec 10 15:10:28 2020.
 Gaussian 16:  ES64L-G16RevA.03 25-Dec-2016

 ----------------------------------------------------------------------
 # B3LYP/6-311++G(d,p) empiricaldispersion=gd3bj scf=xqc pop=npa geom=c
 heck
 ----------------------------------------------------------------------

 ------------------------------------
 CID_141871884_JID_5147_Energie_anion
 ------------------------------------
 Structure from the checkpoint file:  "JID_5147.chk"
 Charge = -1 Multiplicity = 2

                         Standard orientation:
 ---------------------------------------------------------------------
 Center     Atomic      Atomic             Coordinates (Angstroms)
 Number     Number       Type             X           Y           Z
 ---------------------------------------------------------------------
      1          6           0       -3.196117   -1.575958    0.341493
      2          6           0       -1.884516   -1.250832   -0.327618
      3          8           0       -1.757140   -1.167425   -1.535571
      4          6           0       -0.710599   -0.930769    0.587754
      5          6           0        0.662940   -0.767961   -0.090438
      6          6           0        0.948669    0.424256    0.835477
      7          6           0       -0.582425    0.610983    1.037491
      8          6           0       -1.404201    1.568231    0.172828
      9          8           0       -2.584072    1.700023    0.447045
     10          6           0       -0.758035    2.285989   -0.983968
     11          6           0        2.163698    1.037797    0.167889
     12          8           0        2.445239    2.181668   -0.097201
     13          6           0        2.987381   -0.228368   -0.229223
     14          6           0        2.012859   -1.447239   -0.119047
     15          8           0        2.329569   -2.604325    0.002691
     16          1           0       -3.944744   -1.838484   -0.407859
     17          1           0       -3.526680   -0.686529    0.892946
     18          1           0       -3.079133   -2.392903    1.063027
     19          1           0       -0.696445   -1.571710    1.473789
     20          1           0        0.469947   -0.395757   -1.106168
     21          1           0        1.328401    0.009832    1.783300
     22          1           0       -0.886392    0.784347    2.071513
     23          1           0        0.176478    2.769317   -0.682423
     24          1           0       -0.513811    1.556635   -1.767499
     25          1           0       -1.459653    3.015195   -1.392649
     26          1           0        3.373351   -0.122880   -1.249354
     27          1           0        3.851997   -0.363364    0.429835
 ---------------------------------------------------------------------

 SCF Done:  E(UB3LYP) =  -727.483147850     A.U. after   33 cycles
 SCF Done:  E(UB3LYP) =  -727.483147850     a.u. after    1 cycles

 The electronic state is 2-A.
 Alpha  occ. eigenvalues --  -19.00024 -18.98985 -18.98686 -18.96974 -10.14360
 Alpha  occ. eigenvalues --  -10.13313 -10.13133 -10.11409 -10.07782 -10.07672
 Alpha  occ. eigenvalues --  -10.07229 -10.06818 -10.06746 -10.05927 -10.04244
 Alpha  occ. eigenvalues --   -0.93381  -0.92509  -0.92225  -0.90722  -0.76925
 Alpha  occ. eigenvalues --   -0.67564  -0.63674  -0.61635  -0.57551  -0.56734
 Alpha  occ. eigenvalues --   -0.51252  -0.46004  -0.44026  -0.39991  -0.38583
 Alpha  occ. eigenvalues --   -0.36962  -0.35310  -0.35006  -0.34760  -0.33359
 Alpha  occ. eigenvalues --   -0.32203  -0.31808  -0.31506  -0.30935  -0.30606
 Alpha  occ. eigenvalues --   -0.29893  -0.28392  -0.27657  -0.27207  -0.25935
 Alpha  occ. eigenvalues --   -0.24701  -0.23680  -0.23381  -0.22865  -0.21489
 Alpha  occ. eigenvalues --   -0.20104  -0.14473  -0.13221  -0.12243  -0.11856
 Alpha  occ. eigenvalues --    0.04792
 Alpha virt. eigenvalues --    0.07339   0.07795   0.08640   0.08864   0.09425
 Alpha virt. eigenvalues --    0.10254   0.10348   0.11194   0.11811   0.12187
 Alpha virt. eigenvalues --    0.13318   0.13844   0.14150   0.14525   0.14964

  Beta  occ. eigenvalues --  -18.99962 -18.98810 -18.98537 -18.96744 -10.14217
  Beta  occ. eigenvalues --  -10.13067 -10.12967 -10.11131 -10.07722 -10.07637
  Beta  occ. eigenvalues --  -10.07257 -10.06854 -10.06741 -10.05940 -10.04265
  Beta  occ. eigenvalues --   -0.93220  -0.92153  -0.91921  -0.90259  -0.76793
  Beta  occ. eigenvalues --   -0.67284  -0.63481  -0.61414  -0.57366  -0.56601
  Beta  occ. eigenvalues --   -0.50874  -0.45646  -0.43730  -0.39720  -0.38160
  Beta  occ. eigenvalues --   -0.36775  -0.34921  -0.34629  -0.34493  -0.33058
  Beta  occ. eigenvalues --   -0.32049  -0.31557  -0.31319  -0.30575  -0.30319
  Beta  occ. eigenvalues --   -0.29649  -0.28185  -0.27491  -0.26673  -0.25653
  Beta  occ. eigenvalues --   -0.24341  -0.23112  -0.22675  -0.22379  -0.21143
  Beta  occ. eigenvalues --   -0.19604  -0.14327  -0.13099  -0.12110  -0.11661
  Beta virt. eigenvalues --    0.07781   0.08751   0.09104   0.09238   0.09859
  Beta virt. eigenvalues --    0.10287   0.10715   0.11202   0.11794   0.12020
  Beta virt. eigenvalues --    0.12309   0.13268   0.13873   0.14286   0.14527

 Mulliken charges and spin densities:
               1          2
     1  C   -0.463735  -0.086318
     2  C   -0.045176   0.115794
     3  O   -0.258816   0.037502
     4  C    0.227591  -0.179646
     5  C    0.122255  -0.058737
     6  C    0.085895  -0.105483
     7  C    0.443650   0.098216
     8  C   -0.428235   0.208339
     9  O   -0.306075   0.076498
    10  C   -0.427888  -0.027286
    11  C   -0.148699   0.098015
    12  O   -0.340842   0.064605
    13  C   -0.309862  -0.219131
    14  C   -0.293819   0.052780
    15  O   -0.329922   0.030676
    16  H    0.149863  -0.000490
    17  H    0.171725   0.028501
    18  H    0.127209  -0.006246
    19  H    0.037149   0.210030
    20  H    0.236689   0.009126
    21  H   -0.013869   0.244028
    22  H    0.136494   0.114009
    23  H    0.184598   0.000711
    24  H    0.148506   0.026014
    25  H    0.153663   0.000350
    26  H    0.178922   0.016679
    27  H   -0.037270   0.251464
 Sum of Mulliken charges =  -1.00000   1.00000

 Dipole moment (field-independent basis, Debye):
    X=             -0.9668    Y=             -0.5570    Z=              0.5106  Tot=              1.2271
 Quadrupole moment (field-independent basis, Debye-Ang):
   XX=           -130.7701   YY=           -123.5954   ZZ=           -102.8653
   XY=              7.7371   XZ=             -4.2157   YZ=             -3.1862

 Summary of Natural Population Analysis:

                                       Natural Population
                Natural  -----------------------------------------------
    Atom  No    Charge         Core      Valence    Rydberg      Total
 -----------------------------------------------------------------------
      C    1   -0.33588      0.99962     2.33160    0.00466     3.33588
      C    2    0.31425      0.99965     1.66347    0.02263     2.68575
      O    3   -0.28273      0.99987     3.27675    0.00611     4.28273
      C    4   -0.12596      0.99952     2.11488    0.01155     3.12596
      C    5   -0.15072      0.99949     2.13910    0.01212     3.15072
      C    6   -0.15064      0.99950     2.14002    0.01112     3.15064
      C    7   -0.11954      0.99954     2.10615    0.01385     3.11954
      C    8    0.32439      0.99965     1.65322    0.02274     2.67561
      O    9   -0.28446      0.99987     3.27766    0.00692     4.28446
      C   10   -0.34136      0.99962     2.33769    0.00405     3.34136
      C   11    0.32669      0.99963     1.64995    0.02373     2.67331
      O   12   -0.27665      0.99986     3.27025    0.00653     4.27665
      C   13   -0.28580      0.99957     2.27833    0.00790     3.28580
      C   14    0.31732      0.99963     1.65907    0.02398     2.68268
      O   15   -0.28199      0.99986     3.27543    0.00669     4.28199
      H   16    0.10422      0.00000     0.39472    0.00106     0.39578
      H   17    0.12358      0.00000     0.37513    0.00130     0.37642
      H   18    0.10142      0.00000     0.39761    0.00097     0.39858
      H   19    0.10812      0.00000     0.39084    0.00105     0.39188
      H   20    0.12152      0.00000     0.37730    0.00117     0.37848
      H   21    0.10875      0.00000     0.38921    0.00204     0.39125
      H   22    0.11115      0.00000     0.38785    0.00099     0.38885
      H   23    0.11917      0.00000     0.37989    0.00094     0.38083
      H   24    0.11318      0.00000     0.38605    0.00077     0.38682
      H   25    0.10307      0.00000     0.39595    0.00098     0.39693
      H   26    0.11927      0.00000     0.38001    0.00072     0.38073
      H   27    0.11963      0.00000     0.37842    0.00195     0.38037
 =======================================================================
   * Total *    0.00000     14.99490    39.80658    0.19852    55.00000

 Normal termination of Gaussian 16 at Thu Dec 10 15:19:38 2020.
