 Gaussian 16, Revision A.03,

 -----------------------------------------------------------
 # opt freq B3LYP/6-31G(d) empiricaldispersion=gd3bj scf=xqc
 -----------------------------------------------------------

 ------------------------------
 CID_43537936_JID_4531_neutraal
 ------------------------------
 Symbolic Z-matrix:
 Charge =  0 Multiplicity = 1

 SCF Done:  E(RB3LYP) =  -694.028735927     A.U. after   14 cycles
 SCF Done:  E(RB3LYP) =  -694.032822648     A.U. after   12 cycles
 SCF Done:  E(RB3LYP) =  -694.033810214     A.U. after   12 cycles
 SCF Done:  E(RB3LYP) =  -694.035226603     A.U. after   12 cycles
 SCF Done:  E(RB3LYP) =  -694.036419295     A.U. after   12 cycles
 SCF Done:  E(RB3LYP) =  -694.036765418     A.U. after   12 cycles
 SCF Done:  E(RB3LYP) =  -694.037017312     A.U. after   11 cycles
 SCF Done:  E(RB3LYP) =  -694.037174352     A.U. after   10 cycles
 SCF Done:  E(RB3LYP) =  -694.037254506     A.U. after   10 cycles
 SCF Done:  E(RB3LYP) =  -694.037424551     A.U. after   11 cycles
 SCF Done:  E(RB3LYP) =  -694.038757079     A.U. after    9 cycles
 SCF Done:  E(RB3LYP) =  -694.038757627     A.U. after    8 cycles
 SCF Done:  E(RB3LYP) =  -694.038757795     A.U. after    8 cycles
 SCF Done:  E(RB3LYP) =  -694.038757905     A.U. after    7 cycles
 SCF Done:  E(RB3LYP) =  -694.038757992     A.U. after    7 cycles
 SCF Done:  E(RB3LYP) =  -694.038758027     A.U. after    7 cycles
 Optimization completed.
    -- Stationary point found.
 Normal termination of Gaussian 16 at Thu Dec 10 10:12:17 2020.

 --------------------------------------------------------------------
 #N Geom=AllCheck Guess=TCheck SCRF=Check GenChk RB3LYP/6-31G(d) Freq
 --------------------------------------------------------------------

 Structure from the checkpoint file:  "JID_4531.chk"
 ------------------------------
 CID_43537936_JID_4531_neutraal
 ------------------------------
 Charge =  0 Multiplicity = 1

 SCF Done:  E(RB3LYP) =  -694.038758027     A.U. after    1 cycles

  Exact polarizability: 134.090   0.405 116.028   3.535   2.650 105.138
 Approx polarizability: 161.476  -1.885 157.391  13.713   6.454 155.701

                      1                      2                      3
                      A                      A                      A
 Frequencies --     14.4757                28.8895                30.4594
 Red. masses --      4.1991                 3.8266                 4.1353
 Frc consts  --      0.0005                 0.0019                 0.0023
 IR Inten    --      0.5986                 0.6792                 0.4892

                      4                      5                      6
                      A                      A                      A
 Frequencies --     38.0670                59.7261                86.9552
 Red. masses --      3.3055                 3.0238                 2.7288
 Frc consts  --      0.0028                 0.0064                 0.0122
 IR Inten    --      0.0188                 0.3082                 0.4939

                      7                      8                      9
                      A                      A                      A
 Frequencies --    103.6391               128.3640               140.4685
 Red. masses --      3.0341                 2.0361                 1.3537
 Frc consts  --      0.0192                 0.0198                 0.0157
 IR Inten    --      0.2430                 0.4443                 0.0050

                     10                     11                     12
                      A                      A                      A
 Frequencies --    179.9079               212.2869               228.3585
 Red. masses --      2.8429                 2.0271                 1.1479
 Frc consts  --      0.0542                 0.0538                 0.0353
 IR Inten    --      2.6130                 1.5258                 0.4477

                     13                     14                     15
                      A                      A                      A
 Frequencies --    241.7910               254.5043               265.3542
 Red. masses --      1.5064                 2.6218                 1.1192
 Frc consts  --      0.0519                 0.1001                 0.0464
 IR Inten    --      3.0117                 3.6698                 0.4085

                     16                     17                     18
                      A                      A                      A
 Frequencies --    281.4909               292.1370               326.4623
 Red. masses --      3.2061                 2.7335                 3.0670
 Frc consts  --      0.1497                 0.1374                 0.1926
 IR Inten    --     11.1010                 1.4205                 2.7825

                     19                     20                     21
                      A                      A                      A
 Frequencies --    353.0585               360.9505               379.7921
 Red. masses --      3.9610                 2.5475                 2.3033
 Frc consts  --      0.2909                 0.1956                 0.1957
 IR Inten    --     11.8149                 0.7317                 1.3977

                     22                     23                     24
                      A                      A                      A
 Frequencies --    414.4693               502.0686               557.1851
 Red. masses --      3.5292                 4.8461                 2.5047
 Frc consts  --      0.3572                 0.7197                 0.4581
 IR Inten    --     12.3198                 4.7702                 3.5365

                     25                     26                     27
                      A                      A                      A
 Frequencies --    575.7093               695.7870               765.1010
 Red. masses --      2.8263                 3.5859                 6.1127
 Frc consts  --      0.5519                 1.0228                 2.1083
 IR Inten    --      3.9688                 4.3860                 5.0946

                     28                     29                     30
                      A                      A                      A
 Frequencies --    793.7585               811.7120               844.1941
 Red. masses --      1.5912                 1.7832                 4.0184
 Frc consts  --      0.5907                 0.6922                 1.6873
 IR Inten    --      3.7502                 1.2784                11.1479

                     31                     32                     33
                      A                      A                      A
 Frequencies --    918.6229               929.9377               934.3039
 Red. masses --      2.4278                 1.5013                 2.2707
 Frc consts  --      1.2071                 0.7649                 1.1679
 IR Inten    --      9.5766                 1.7318                 8.9333

                     34                     35                     36
                      A                      A                      A
 Frequencies --    948.4014               955.9657               996.4307
 Red. masses --      1.2537                 1.2399                 4.3211
 Frc consts  --      0.6644                 0.6676                 2.5278
 IR Inten    --      0.6593                 3.7831                14.7106

                     37                     38                     39
                      A                      A                      A
 Frequencies --   1005.6286              1062.8645              1074.9680
 Red. masses --      2.1718                 4.1034                 2.6017
 Frc consts  --      1.2941                 2.7312                 1.7713
 IR Inten    --      5.6430                12.4869                73.2138

                     40                     41                     42
                      A                      A                      A
 Frequencies --   1096.5361              1131.3241              1149.9837
 Red. masses --      3.4813                 2.5058                 2.9335
 Frc consts  --      2.4662                 1.8896                 2.2857
 IR Inten    --    107.0508                22.5946               181.8539

                     43                     44                     45
                      A                      A                      A
 Frequencies --   1156.3525              1183.6173              1186.5156
 Red. masses --      2.3243                 2.3361                 1.2786
 Frc consts  --      1.8312                 1.9282                 1.0606
 IR Inten    --     44.2262                49.3750                 1.5313

                     46                     47                     48
                      A                      A                      A
 Frequencies --   1189.5531              1204.0482              1217.9917
 Red. masses --      1.9577                 2.6105                 1.6022
 Frc consts  --      1.6321                 2.2298                 1.4004
 IR Inten    --     48.5398               118.4903                16.2469

                     49                     50                     51
                      A                      A                      A
 Frequencies --   1220.9412              1280.0276              1289.8101
 Red. masses --      1.8876                 1.2455                 2.9053
 Frc consts  --      1.6578                 1.2024                 2.8477
 IR Inten    --     11.0956                 4.9575               154.9702

                     52                     53                     54
                      A                      A                      A
 Frequencies --   1303.3176              1325.4362              1343.1678
 Red. masses --      1.4752                 1.3029                 1.1214
 Frc consts  --      1.4764                 1.3486                 1.1920
 IR Inten    --    124.9929                 9.3675                 3.0673

                     55                     56                     57
                      A                      A                      A
 Frequencies --   1368.5030              1380.5622              1382.4435
 Red. masses --      1.2354                 1.3039                 1.3163
 Frc consts  --      1.3631                 1.4642                 1.4822
 IR Inten    --     16.9383                 0.5483                 3.4833

                     58                     59                     60
                      A                      A                      A
 Frequencies --   1411.3647              1421.8824              1426.5838
 Red. masses --      1.1950                 1.2505                 1.3111
 Frc consts  --      1.4024                 1.4895                 1.5721
 IR Inten    --      4.8932                 4.5931                14.2267

                     61                     62                     63
                      A                      A                      A
 Frequencies --   1439.3265              1446.3645              1456.6535
 Red. masses --      1.2840                 1.2821                 1.3661
 Frc consts  --      1.5672                 1.5803                 1.7078
 IR Inten    --     15.8429                12.9826                 5.3959

                     64                     65                     66
                      A                      A                      A
 Frequencies --   1492.4913              1512.8441              1514.7533
 Red. masses --      1.2012                 1.0481                 1.0477
 Frc consts  --      1.5765                 1.4133                 1.4164
 IR Inten    --      5.6024                 5.8237                 1.0836

                     67                     68                     69
                      A                      A                      A
 Frequencies --   1516.1228              1523.4654              1525.0972
 Red. masses --      1.0641                 1.0586                 1.0489
 Frc consts  --      1.4411                 1.4476                 1.4374
 IR Inten    --      0.3521                 1.2754                 3.8412

                     70                     71                     72
                      A                      A                      A
 Frequencies --   1526.5364              1527.9714              1534.1734
 Red. masses --      1.0567                 1.0556                 1.0567
 Frc consts  --      1.4508                 1.4520                 1.4653
 IR Inten    --     12.3905                 8.3970                 6.7194

                     73                     74                     75
                      A                      A                      A
 Frequencies --   1538.7476              1546.9073              1552.7681
 Red. masses --      1.0567                 1.0785                 1.0838
 Frc consts  --      1.4741                 1.5206                 1.5396
 IR Inten    --      3.5174                 3.6982                 6.1298

                     76                     77                     78
                      A                      A                      A
 Frequencies --   1831.3298              2997.1960              3013.4941
 Red. masses --     11.1216                 1.0570                 1.0686
 Frc consts  --     21.9761                 5.5943                 5.7174
 IR Inten    --    233.0611                35.2605                33.9795

                     79                     80                     81
                      A                      A                      A
 Frequencies --   3034.8544              3044.6671              3049.8885
 Red. masses --      1.0986                 1.0602                 1.0357
 Frc consts  --      5.9617                 5.7906                 5.6760
 IR Inten    --     17.9859                48.2694                20.0696

                     82                     83                     84
                      A                      A                      A
 Frequencies --   3056.3009              3062.9416              3064.3351
 Red. masses --      1.0400                 1.0355                 1.0857
 Frc consts  --      5.7234                 5.7235                 6.0067
 IR Inten    --     19.8401                19.0644                17.7993

                     85                     86                     87
                      A                      A                      A
 Frequencies --   3076.0163              3084.7602              3100.1263
 Red. masses --      1.0294                 1.1028                 1.0861
 Frc consts  --      5.7389                 6.1829                 6.1499
 IR Inten    --     32.0970                23.6585                 8.4004

                     88                     89                     90
                      A                      A                      A
 Frequencies --   3113.0084              3118.0836              3123.2922
 Red. masses --      1.1017                 1.0989                 1.1007
 Frc consts  --      6.2905                 6.2950                 6.3263
 IR Inten    --      0.9899                46.9368                87.1247

                     91                     92                     93
                      A                      A                      A
 Frequencies --   3131.1400              3132.5854              3134.6854
 Red. masses --      1.1029                 1.1024                 1.1028
 Frc consts  --      6.3708                 6.3736                 6.3847
 IR Inten    --     21.7689                26.8118                32.7702

                     94                     95                     96
                      A                      A                      A
 Frequencies --   3150.5467              3154.5589              3182.0732
 Red. masses --      1.1074                 1.1020                 1.1073
 Frc consts  --      6.4765                 6.4609                 6.6057
 IR Inten    --     20.5365                13.4522                16.7333

 - Thermochemistry -
 -------------------
 Temperature   298.150 Kelvin.  Pressure   1.00000 Atm.
 Atom     1 has atomic number  6 and mass  12.00000

 Molecular mass:   204.13616 amu.
 Principal axes and moments of inertia in atomic units:
                           1         2         3
     Eigenvalues --  1627.416507266.388088040.47057
           X            0.99990   0.01193  -0.00715
           Y           -0.01200   0.99989  -0.00871
           Z            0.00704   0.00879   0.99994
 This molecule is an asymmetric top.
 Rotational symmetry number  1.
 Warning -- assumption of classical behavior for rotation
           may cause significant error
 Rotational temperatures (Kelvin)      0.05322     0.01192     0.01077
 Rotational constants (GHZ):           1.10896     0.24837     0.22446
 Zero-point vibrational energy     788185.4 (Joules/Mol)
                                  188.38084 (Kcal/Mol)
 Warning -- explicit consideration of  25 degrees of freedom as
           vibrations may cause significant error
 Vibrational temperatures:     20.83    41.57    43.82    54.77    85.93
          (Kelvin)            125.11   149.11   184.69   202.10   258.85
                              305.43   328.56   347.88   366.17   381.79
                              405.00   420.32   469.71   507.97   519.33
                              546.44   596.33   722.36   801.67   828.32
                             1001.08  1100.81  1142.04  1167.87  1214.61
                             1321.69  1337.97  1344.25  1364.54  1375.42
                             1433.64  1446.88  1529.23  1546.64  1577.67
                             1627.72  1654.57  1663.73  1702.96  1707.13
                             1711.50  1732.36  1752.42  1756.66  1841.67
                             1855.75  1875.18  1907.01  1932.52  1968.97
                             1986.32  1989.03  2030.64  2045.77  2052.54
                             2070.87  2081.00  2095.80  2147.36  2176.65
                             2179.39  2181.36  2191.93  2194.27  2196.35
                             2198.41  2207.33  2213.91  2225.65  2234.09
                             2634.88  4312.30  4335.75  4366.48  4380.60
                             4388.11  4397.34  4406.89  4408.89  4425.70
                             4438.28  4460.39  4478.92  4486.23  4493.72
                             4505.01  4507.09  4510.11  4532.93  4538.71
                             4578.29

 Zero-point correction=                           0.300204 (Hartree/Particle)
 Thermal correction to Energy=                    0.317630
 Thermal correction to Enthalpy=                  0.318574
 Thermal correction to Gibbs Free Energy=         0.251622
 Sum of electronic and zero-point Energies=           -693.738554
 Sum of electronic and thermal Energies=              -693.721128
 Sum of electronic and thermal Enthalpies=            -693.720184
 Sum of electronic and thermal Free Energies=         -693.787136

                     E (Thermal)             CV                S
                      KCal/Mol        Cal/Mol-Kelvin    Cal/Mol-Kelvin
 Total                  199.316             60.677            140.914
 Electronic               0.000              0.000              0.000
 Translational            0.889              2.981             41.845
 Rotational               0.889              2.981             32.919
 Vibrational            197.539             54.716             66.150
 Vibration     1          0.593              1.986              7.276
 Vibration     2          0.593              1.984              5.904
 Vibration     3          0.594              1.984              5.799
 Vibration     4          0.594              1.982              5.357
 Vibration     5          0.597              1.974              4.466
 Vibration     6          0.601              1.958              3.727
 Vibration     7          0.605              1.946              3.385
 Vibration     8          0.611              1.925              2.970
 Vibration     9          0.615              1.913              2.797
 Vibration    10          0.629              1.867              2.329
 Vibration    11          0.643              1.822              2.024
 Vibration    12          0.651              1.798              1.892
 Vibration    13          0.658              1.776              1.790
 Vibration    14          0.665              1.755              1.699
 Vibration    15          0.671              1.737              1.626
 Vibration    16          0.681              1.708              1.525
 Vibration    17          0.688              1.688              1.462
 Vibration    18          0.710              1.623              1.278
 Vibration    19          0.729              1.569              1.153
 Vibration    20          0.735              1.553              1.118
 Vibration    21          0.750              1.513              1.040
 Vibration    22          0.778              1.439              0.911
 Vibration    23          0.857              1.245              0.653
 Vibration    24          0.913              1.124              0.529
 Vibration    25          0.932              1.084              0.493

 Optimization completed.
    -- Stationary point found.
 Normal termination of Gaussian 16 at Thu Dec 10 10:20:26 2020.

 ----------------------------------------------------------------------
 # B3LYP/6-311++G(d,p) empiricaldispersion=gd3bj scf=xqc pop=npa geom=c
 heck
 ----------------------------------------------------------------------

 --------------------------------------
 CID_43537936_JID_4531_Energie_neutraal
 --------------------------------------
 Structure from the checkpoint file:  "JID_4531.chk"
 Charge =  0 Multiplicity = 1

 SCF Done:  E(RB3LYP) =  -694.247512138     A.U. after   14 cycles
 Normal termination of Gaussian 16 at Thu Dec 10 10:23:57 2020.

 ----------------------------------------------------------------------
 # B3LYP/6-311++G(d,p) empiricaldispersion=gd3bj scf=xqc pop=npa geom=c
 heck
 ----------------------------------------------------------------------

 ------------------------------------
 CID_43537936_JID_4531_Energie_kation
 ------------------------------------
 Structure from the checkpoint file:  "JID_4531.chk"
 Charge =  1 Multiplicity = 2

 SCF Done:  E(UB3LYP) =  -693.925404971     A.U. after   22 cycles
 Normal termination of Gaussian 16 at Thu Dec 10 10:32:16 2020.
 Gaussian 16:  ES64L-G16RevA.03 25-Dec-2016

 ----------------------------------------------------------------------
 # B3LYP/6-311++G(d,p) empiricaldispersion=gd3bj scf=xqc pop=npa geom=c
 heck
 ----------------------------------------------------------------------

 -----------------------------------
 CID_43537936_JID_4531_Energie_anion
 -----------------------------------
 Structure from the checkpoint file:  "JID_4531.chk"
 Charge = -1 Multiplicity = 2

                         Standard orientation:
 ---------------------------------------------------------------------
 Center     Atomic      Atomic             Coordinates (Angstroms)
 Number     Number       Type             X           Y           Z
 ---------------------------------------------------------------------
      1          6           0        4.331942    1.440530   -1.026617
      2          6           0        4.140447    0.532138    0.190112
      3          6           0        3.381063    1.220623    1.326769
      4          8           0        3.568232   -0.730850   -0.169961
      5          6           0        2.229175   -0.729846   -0.644564
      6          6           0        1.342104   -1.466370    0.362301
      7          8           0        0.020468   -1.668106   -0.109293
      8          6           0       -0.790110   -0.506099   -0.089255
      9          6           0       -2.243328   -0.954299   -0.274695
     10          6           0       -2.717519   -1.825866    0.900637
     11          6           0       -3.166705    0.235188   -0.458261
     12          8           0       -3.999605    0.353426   -1.329375
     13          8           0       -2.967226    1.165861    0.507515
     14          6           0       -3.825298    2.314928    0.435287
     15          1           0        3.373585    1.784797   -1.431873
     16          1           0        4.866957    0.904413   -1.816464
     17          1           0        4.912724    2.328510   -0.752938
     18          1           0        5.130935    0.248809    0.564084
     19          1           0        3.280305    0.546056    2.182762
     20          1           0        3.919149    2.117092    1.654391
     21          1           0        2.378618    1.534792    1.013604
     22          1           0        1.856507    0.286555   -0.817061
     23          1           0        2.195315   -1.257705   -1.605841
     24          1           0        1.762566   -2.460399    0.540140
     25          1           0        1.333281   -0.924811    1.321100
     26          1           0       -0.677959    0.025902    0.867376
     27          1           0       -0.505995    0.190685   -0.893058
     28          1           0       -2.307674   -1.531236   -1.202024
     29          1           0       -2.706594   -1.252137    1.833451
     30          1           0       -3.734923   -2.192275    0.730892
     31          1           0       -2.047947   -2.682291    1.009056
     32          1           0       -3.691917    2.833951   -0.517421
     33          1           0       -4.872486    2.016538    0.531117
     34          1           0       -3.530022    2.954553    1.267324
 ---------------------------------------------------------------------

 SCF Done:  E(UB3LYP) =  -694.235878416     A.U. after   31 cycles

 The electronic state is 2-A.
 Alpha  occ. eigenvalues --  -19.08139 -19.04360 -19.03176 -19.02761 -10.21461
 Alpha  occ. eigenvalues --  -10.13414 -10.13207 -10.12983 -10.12861 -10.12534
 Alpha  occ. eigenvalues --  -10.10596 -10.08321 -10.06699 -10.06643  -1.02134
 Alpha  occ. eigenvalues --   -0.95823  -0.94161  -0.93496  -0.73032  -0.69508
 Alpha  occ. eigenvalues --   -0.65113  -0.63332  -0.60200  -0.59941  -0.55334
 Alpha  occ. eigenvalues --   -0.52063  -0.48204  -0.47741  -0.43131  -0.41975
 Alpha  occ. eigenvalues --   -0.40551  -0.40307  -0.39023  -0.38298  -0.37536
 Alpha  occ. eigenvalues --   -0.36495  -0.34914  -0.33874  -0.33062  -0.32598
 Alpha  occ. eigenvalues --   -0.31567  -0.30837  -0.30079  -0.29602  -0.29389
 Alpha  occ. eigenvalues --   -0.27418  -0.27200  -0.26793  -0.26570  -0.25840
 Alpha  occ. eigenvalues --   -0.23404  -0.22206  -0.21406  -0.19379  -0.19105
 Alpha  occ. eigenvalues --   -0.16186   0.04089
 Alpha virt. eigenvalues --    0.05881   0.06919   0.07445   0.07929   0.08326
 Alpha virt. eigenvalues --    0.08605   0.08961   0.09783   0.09872   0.10080
 Alpha virt. eigenvalues --    0.10804   0.11041   0.11283   0.11798   0.12391

  Beta  occ. eigenvalues --  -19.08132 -19.04357 -19.03176 -19.02754 -10.21461
  Beta  occ. eigenvalues --  -10.13398 -10.13196 -10.12935 -10.12854 -10.12520
  Beta  occ. eigenvalues --  -10.10594 -10.08310 -10.06664 -10.06606  -1.02123
  Beta  occ. eigenvalues --   -0.95816  -0.94154  -0.93484  -0.73020  -0.69478
  Beta  occ. eigenvalues --   -0.65085  -0.63281  -0.60167  -0.59875  -0.55299
  Beta  occ. eigenvalues --   -0.52024  -0.48150  -0.47697  -0.43110  -0.41953
  Beta  occ. eigenvalues --   -0.40529  -0.40284  -0.38995  -0.38270  -0.37496
  Beta  occ. eigenvalues --   -0.36476  -0.34878  -0.33847  -0.33031  -0.32566
  Beta  occ. eigenvalues --   -0.31539  -0.30796  -0.30047  -0.29580  -0.29354
  Beta  occ. eigenvalues --   -0.27391  -0.27177  -0.26764  -0.26541  -0.25811
  Beta  occ. eigenvalues --   -0.23380  -0.22187  -0.21381  -0.19367  -0.19093
  Beta  occ. eigenvalues --   -0.16177
  Beta virt. eigenvalues --    0.06270   0.06731   0.07268   0.07827   0.08350
  Beta virt. eigenvalues --    0.08593   0.08740   0.09219   0.10042   0.10438
  Beta virt. eigenvalues --    0.10627   0.11012   0.11239   0.11606   0.12095

 Mulliken charges and spin densities:
               1          2
     1  C    1.082718  -1.577881
     2  C   -1.395120   1.430309
     3  C    1.142581  -1.679587
     4  O   -0.078394  -0.007631
     5  C   -0.241161  -0.023658
     6  C    0.082152  -0.317470
     7  O   -0.089400   0.012791
     8  C   -0.086411  -0.528856
     9  C    0.048678   0.186759
    10  C    0.099252  -0.574380
    11  C   -0.687538   0.470244
    12  O   -0.242736   0.002794
    13  O   -0.119805   0.071608
    14  C    0.999009  -1.229559
    15  H   -0.502315   0.640545
    16  H   -0.021765   0.168386
    17  H   -0.296886   0.438963
    18  H   -0.266345   0.435289
    19  H   -0.024596   0.176450
    20  H   -0.346110   0.501758
    21  H   -0.366733   0.528674
    22  H    0.746541  -0.591521
    23  H    0.133225   0.022905
    24  H    0.119707   0.060927
    25  H    0.066365   0.069675
    26  H    0.365074  -0.186055
    27  H   -0.322300   0.507571
    28  H    0.173332   0.040556
    29  H   -0.103731   0.254149
    30  H    0.031640   0.129137
    31  H    0.185894  -0.025638
    32  H   -0.249930   0.428370
    33  H   -0.262530   0.430916
    34  H   -0.572360   0.733462
 Sum of Mulliken charges =  -1.00000   1.00000

 Dipole moment (field-independent basis, Debye):
    X=             -0.8808    Y=             -7.3837    Z=             -0.8608  Tot=              7.4857
 Quadrupole moment (field-independent basis, Debye-Ang):
   XX=           -188.7042   YY=           -139.2236   ZZ=           -123.0165
   XY=             -1.0495   XZ=             -1.5253   YZ=             -4.4433

 Summary of Natural Population Analysis:

                                       Natural Population
                Natural  -----------------------------------------------
    Atom  No    Charge         Core      Valence    Rydberg      Total
 -----------------------------------------------------------------------
      C    1   -0.30041      0.99964     2.29515    0.00561     3.30041
      C    2    0.06723      0.99957     1.91893    0.01427     2.93277
      C    3   -0.30263      0.99964     2.29669    0.00629     3.30263
      O    4   -0.30800      0.99988     3.29839    0.00973     4.30800
      C    5   -0.02683      0.99957     2.01520    0.01206     3.02683
      C    6   -0.01420      0.99958     2.00333    0.01129     3.01420
      O    7   -0.30284      0.99988     3.29440    0.00856     4.30284
      C    8   -0.00695      0.99955     1.99389    0.01351     3.00695
      C    9   -0.16082      0.99956     2.14993    0.01134     3.16082
      C   10   -0.28417      0.99965     2.27850    0.00602     3.28417
      C   11    0.41446      0.99965     1.55973    0.02616     2.58554
      O   12   -0.30355      0.99987     3.29800    0.00568     4.30355
      O   13   -0.28072      0.99986     3.27110    0.00976     4.28072
      C   14   -0.10399      0.99959     2.09522    0.00918     3.10399
      H   15    0.09908      0.00000     0.39957    0.00135     0.40092
      H   16    0.10120      0.00000     0.39784    0.00096     0.39880
      H   17    0.10466      0.00000     0.39399    0.00135     0.39534
      H   18    0.08784      0.00000     0.41070    0.00146     0.41216
      H   19    0.10113      0.00000     0.39772    0.00114     0.39887
      H   20    0.10602      0.00000     0.39254    0.00144     0.39398
      H   21    0.09981      0.00000     0.39845    0.00174     0.40019
      H   22    0.08527      0.00000     0.41274    0.00199     0.41473
      H   23    0.08528      0.00000     0.41344    0.00127     0.41472
      H   24    0.08935      0.00000     0.40944    0.00121     0.41065
      H   25    0.08050      0.00000     0.41784    0.00166     0.41950
      H   26    0.08798      0.00000     0.40988    0.00215     0.41202
      H   27    0.08486      0.00000     0.41336    0.00178     0.41514
      H   28    0.10918      0.00000     0.38915    0.00167     0.39082
      H   29    0.10325      0.00000     0.39573    0.00101     0.39675
      H   30    0.10035      0.00000     0.39894    0.00070     0.39965
      H   31    0.10747      0.00000     0.39154    0.00099     0.39253
      H   32    0.09314      0.00000     0.40527    0.00159     0.40686
      H   33    0.09048      0.00000     0.40810    0.00142     0.40952
      H   34    0.09657      0.00000     0.40120    0.00223     0.40343
 =======================================================================
   * Total *   -0.00000     13.99550    41.82593    0.17857    56.00000

 Normal termination of Gaussian 16 at Thu Dec 10 10:45:23 2020.
