 Gaussian 16, Revision A.03,

 -----------------------------------------------------------
 # opt freq B3LYP/6-31G(d) empiricaldispersion=gd3bj scf=xqc
 -----------------------------------------------------------

 -------------------------------
 CID_136610218_JID_2405_neutraal
 -------------------------------
 Symbolic Z-matrix:
 Charge =  0 Multiplicity = 1

 SCF Done:  E(RB3LYP) =  -554.752866422     A.U. after   14 cycles
 SCF Done:  E(RB3LYP) =  -554.755260320     A.U. after   12 cycles
 SCF Done:  E(RB3LYP) =  -554.755585101     A.U. after   12 cycles
 SCF Done:  E(RB3LYP) =  -554.755763500     A.U. after   11 cycles
 SCF Done:  E(RB3LYP) =  -554.755804061     A.U. after   11 cycles
 SCF Done:  E(RB3LYP) =  -554.755835222     A.U. after   11 cycles
 SCF Done:  E(RB3LYP) =  -554.755859101     A.U. after   10 cycles
 SCF Done:  E(RB3LYP) =  -554.755946543     A.U. after   12 cycles
 SCF Done:  E(RB3LYP) =  -554.756024207     A.U. after   12 cycles
 SCF Done:  E(RB3LYP) =  -554.755959766     A.U. after   12 cycles
 SCF Done:  E(RB3LYP) =  -554.756218283     A.U. after   10 cycles
 SCF Done:  E(RB3LYP) =  -554.756225576     A.U. after   10 cycles
 SCF Done:  E(RB3LYP) =  -554.756224456     A.U. after   10 cycles
 SCF Done:  E(RB3LYP) =  -554.756225748     A.U. after    9 cycles
 SCF Done:  E(RB3LYP) =  -554.756225798     A.U. after    7 cycles
 Optimization completed.
    -- Stationary point found.
 Normal termination of Gaussian 16 at Wed Dec  9 17:30:42 2020.

 --------------------------------------------------------------------
 #N Geom=AllCheck Guess=TCheck SCRF=Check GenChk RB3LYP/6-31G(d) Freq
 --------------------------------------------------------------------

 Structure from the checkpoint file:  "JID_2405.chk"
 -------------------------------
 CID_136610218_JID_2405_neutraal
 -------------------------------
 Charge =  0 Multiplicity = 1

 SCF Done:  E(RB3LYP) =  -554.756225798     A.U. after    1 cycles

  Exact polarizability: 182.111  -9.460 112.083  -0.002   0.010  49.956
 Approx polarizability: 265.630 -16.952 185.024  -0.007   0.023  74.503

                      1                      2                      3
                      A                      A                      A
 Frequencies --     23.7207                72.9214                89.2247
 Red. masses --      3.0592                 2.3973                 3.6180
 Frc consts  --      0.0010                 0.0075                 0.0170
 IR Inten    --      0.1910                 5.4243                 0.0840

                      4                      5                      6
                      A                      A                      A
 Frequencies --    119.9932               143.9282               165.8524
 Red. masses --      4.0890                 1.1586                 1.4154
 Frc consts  --      0.0347                 0.0141                 0.0229
 IR Inten    --      0.2733                 1.2010                 1.4303

                      7                      8                      9
                      A                      A                      A
 Frequencies --    252.6506               268.8477               330.2667
 Red. masses --      3.8344                 3.5795                 7.6916
 Frc consts  --      0.1442                 0.1524                 0.4943
 IR Inten    --      0.7831                 0.1851                 0.3062

                     10                     11                     12
                      A                      A                      A
 Frequencies --    362.0672               366.5261               377.4441
 Red. masses --      3.1224                 3.3542                 1.3338
 Frc consts  --      0.2412                 0.2655                 0.1120
 IR Inten    --     17.5174                 2.6264               104.7151

                     13                     14                     15
                      A                      A                      A
 Frequencies --    422.2188               422.5013               501.2583
 Red. masses --      3.2384                 3.6794                 3.9771
 Frc consts  --      0.3401                 0.3870                 0.5888
 IR Inten    --      0.0005                29.5781                20.1921

                     16                     17                     18
                      A                      A                      A
 Frequencies --    504.2281               569.9761               595.7899
 Red. masses --      3.2712                 2.4478                 5.7560
 Frc consts  --      0.4900                 0.4685                 1.2038
 IR Inten    --      1.3666                 8.3578                16.6117

                     19                     20                     21
                      A                      A                      A
 Frequencies --    657.3157               731.3183               773.8800
 Red. masses --      7.0375                 4.4606                 3.6952
 Frc consts  --      1.7915                 1.4056                 1.3039
 IR Inten    --      0.9525                 1.0493                14.8937

                     22                     23                     24
                      A                      A                      A
 Frequencies --    809.4940               854.9014               856.4119
 Red. masses --      1.3531                 1.5087                 5.9418
 Frc consts  --      0.5224                 0.6497                 2.5676
 IR Inten    --     18.3582                29.7408                 5.1084

                     25                     26                     27
                      A                      A                      A
 Frequencies --    929.9226               930.5737               986.1047
 Red. masses --      5.1285                 1.3072                 1.2938
 Frc consts  --      2.6130                 0.6670                 0.7413
 IR Inten    --    102.9322                 0.5656                 0.2057

                     28                     29                     30
                      A                      A                      A
 Frequencies --   1017.6077              1033.8347              1073.0991
 Red. masses --      2.1931                 2.8097                 1.5923
 Frc consts  --      1.3380                 1.7693                 1.0803
 IR Inten    --     22.4229                 0.2266                 0.1907

                     31                     32                     33
                      A                      A                      A
 Frequencies --   1104.0852              1121.4810              1145.5606
 Red. masses --      5.8639                 2.7439                 1.3421
 Frc consts  --      4.2116                 2.0333                 1.0377
 IR Inten    --    253.4668                59.8153                 0.7582

                     34                     35                     36
                      A                      A                      A
 Frequencies --   1188.1053              1210.5626              1213.9601
 Red. masses --      1.2653                 1.3348                 1.1852
 Frc consts  --      1.0523                 1.1525                 1.0291
 IR Inten    --      0.7357               208.1474                15.7510

                     37                     38                     39
                      A                      A                      A
 Frequencies --   1226.8748              1317.6520              1345.7490
 Red. masses --      1.5716                 3.1955                 1.8512
 Frc consts  --      1.3937                 3.2688                 1.9753
 IR Inten    --      4.0909                77.0238                 5.9103

                     40                     41                     42
                      A                      A                      A
 Frequencies --   1358.4986              1390.6910              1425.8865
 Red. masses --      3.9768                 2.5919                 1.3003
 Frc consts  --      4.3242                 2.9534                 1.5576
 IR Inten    --     73.0406                67.5229                27.6747

                     43                     44                     45
                      A                      A                      A
 Frequencies --   1481.1324              1488.5017              1505.8296
 Red. masses --      1.8292                 1.5141                 1.0507
 Frc consts  --      2.3643                 1.9765                 1.4037
 IR Inten    --     15.6054                 0.5039                 3.6524

                     46                     47                     48
                      A                      A                      A
 Frequencies --   1510.9425              1524.2495              1537.0760
 Red. masses --      1.0781                 1.0461                 1.0496
 Frc consts  --      1.4501                 1.4320                 1.4611
 IR Inten    --      4.7208                 9.8366                29.5666

                     49                     50                     51
                      A                      A                      A
 Frequencies --   1569.7047              1640.1255              1674.9151
 Red. masses --      2.7013                 5.7442                 6.0160
 Frc consts  --      3.9216                 9.1041                 9.9435
 IR Inten    --     69.4410                37.7399                63.1926

                     52                     53                     54
                      A                      A                      A
 Frequencies --   1692.3777              3040.2592              3057.9229
 Red. masses --      8.2345                 1.0309                 1.0418
 Frc consts  --     13.8958                 5.6143                 5.7398
 IR Inten    --     28.6060               102.1457                10.6859

                     55                     56                     57
                      A                      A                      A
 Frequencies --   3105.2519              3108.4228              3151.4431
 Red. masses --      1.1075                 1.1004                 1.1030
 Frc consts  --      6.2920                 6.2642                 6.4545
 IR Inten    --     43.2521                15.9284                25.3467

                     58                     59                     60
                      A                      A                      A
 Frequencies --   3169.5686              3195.3020              3212.7013
 Red. masses --      1.0894                 1.0961                 1.0893
 Frc consts  --      6.4484                 6.5934                 6.6242
 IR Inten    --     25.9233                 4.7109                 7.8432

                     61                     62                     63
                      A                      A                      A
 Frequencies --   3218.6694              3235.0108              3749.0614
 Red. masses --      1.0909                 1.0929                 1.0659
 Frc consts  --      6.6585                 6.7388                 8.8267
 IR Inten    --      9.0202                 3.1786                55.4859

 - Thermochemistry -
 -------------------
 Temperature   298.150 Kelvin.  Pressure   1.00000 Atm.
 Atom     1 has atomic number  6 and mass  12.00000

 Molecular mass:   165.07898 amu.
 Principal axes and moments of inertia in atomic units:
                           1         2         3
     Eigenvalues --   706.012074159.033114842.31224
           X            0.99995  -0.01032   0.00000
           Y            0.01032   0.99995   0.00000
           Z           -0.00000  -0.00000   1.00000
 This molecule is an asymmetric top.
 Rotational symmetry number  1.
 Warning -- assumption of classical behavior for rotation
           may cause significant error
 Rotational temperatures (Kelvin)      0.12268     0.02083     0.01789
 Rotational constants (GHZ):           2.55625     0.43393     0.37270
 Zero-point vibrational energy     491434.6 (Joules/Mol)
                                  117.45570 (Kcal/Mol)
 Warning -- explicit consideration of  18 degrees of freedom as
           vibrations may cause significant error
 Vibrational temperatures:     34.13   104.92   128.37   172.64   207.08
          (Kelvin)            238.62   363.51   386.81   475.18   520.93
                              527.35   543.06   607.48   607.89   721.20
                              725.47   820.07   857.21   945.73  1052.20
                             1113.44  1164.68  1230.01  1232.19  1337.95
                             1338.89  1418.78  1464.11  1487.46  1543.95
                             1588.53  1613.56  1648.21  1709.42  1741.73
                             1746.62  1765.20  1895.81  1936.23  1954.58
                             2000.89  2051.53  2131.02  2141.62  2166.55
                             2173.91  2193.06  2211.51  2258.46  2359.77
                             2409.83  2434.95  4374.25  4399.67  4467.76
                             4472.33  4534.22  4560.30  4597.33  4622.36
                             4630.95  4654.46  5394.06

 Zero-point correction=                           0.187178 (Hartree/Particle)
 Thermal correction to Energy=                    0.199089
 Thermal correction to Enthalpy=                  0.200033
 Thermal correction to Gibbs Free Energy=         0.148247
 Sum of electronic and zero-point Energies=           -554.569048
 Sum of electronic and thermal Energies=              -554.557137
 Sum of electronic and thermal Enthalpies=            -554.556193
 Sum of electronic and thermal Free Energies=         -554.607979

                     E (Thermal)             CV                S
                      KCal/Mol        Cal/Mol-Kelvin    Cal/Mol-Kelvin
 Total                  124.930             44.027            108.992
 Electronic               0.000              0.000              0.000
 Translational            0.889              2.981             41.212
 Rotational               0.889              2.981             31.031
 Vibrational            123.153             38.065             36.749
 Vibration     1          0.593              1.985              6.295
 Vibration     2          0.599              1.967              4.073
 Vibration     3          0.602              1.957              3.677
 Vibration     4          0.609              1.933              3.100
 Vibration     5          0.616              1.909              2.751
 Vibration     6          0.624              1.884              2.482
 Vibration     7          0.664              1.758              1.712
 Vibration     8          0.673              1.730              1.604
 Vibration     9          0.713              1.615              1.259
 Vibration    10          0.736              1.550              1.113
 Vibration    11          0.739              1.541              1.094
 Vibration    12          0.748              1.518              1.049
 Vibration    13          0.785              1.422              0.884
 Vibration    14          0.785              1.421              0.884
 Vibration    15          0.857              1.247              0.655
 Vibration    16          0.860              1.241              0.648
 Vibration    17          0.926              1.096              0.504
 Vibration    18          0.954              1.041              0.457

                           ! Non-Optimized Parameters !
 Normal termination of Gaussian 16 at Wed Dec  9 17:35:29 2020.

 ----------------------------------------------------------------------
 # B3LYP/6-311++G(d,p) empiricaldispersion=gd3bj scf=xqc pop=npa geom=c
 heck
 ----------------------------------------------------------------------

 ---------------------------------------
 CID_136610218_JID_2405_Energie_neutraal
 ---------------------------------------
 Structure from the checkpoint file:  "JID_2405.chk"
 Charge =  0 Multiplicity = 1

 SCF Done:  E(RB3LYP) =  -554.917529837     A.U. after   14 cycles
 Normal termination of Gaussian 16 at Wed Dec  9 17:37:56 2020.

 ----------------------------------------------------------------------
 # B3LYP/6-311++G(d,p) empiricaldispersion=gd3bj scf=xqc pop=npa geom=c
 heck
 ----------------------------------------------------------------------

 -------------------------------------
 CID_136610218_JID_2405_Energie_kation
 -------------------------------------
 Structure from the checkpoint file:  "JID_2405.chk"
 Charge =  1 Multiplicity = 2

 SCF Done:  E(UB3LYP) =  -554.636753489     A.U. after   21 cycles
 Normal termination of Gaussian 16 at Wed Dec  9 17:44:35 2020.
 Gaussian 16:  ES64L-G16RevA.03 25-Dec-2016

 ----------------------------------------------------------------------
 # B3LYP/6-311++G(d,p) empiricaldispersion=gd3bj scf=xqc pop=npa geom=c
 heck
 ----------------------------------------------------------------------

 ------------------------------------
 CID_136610218_JID_2405_Energie_anion
 ------------------------------------
 Structure from the checkpoint file:  "JID_2405.chk"
 Charge = -1 Multiplicity = 2

                         Standard orientation:
 ---------------------------------------------------------------------
 Center     Atomic      Atomic             Coordinates (Angstroms)
 Number     Number       Type             X           Y           Z
 ---------------------------------------------------------------------
      1          6           0        1.698337    2.008197   -0.000554
      2          6           0        1.243085    0.571523   -0.000190
      3          7           0        2.041556   -0.440756    0.000120
      4          8           0        3.390829   -0.075737    0.000025
      5          6           0        4.176058   -1.260286    0.000491
      6          6           0       -0.204895    0.263049   -0.000115
      7          6           0       -1.163238    1.285270    0.000363
      8          6           0       -2.527603    0.998689    0.000463
      9          6           0       -2.960534   -0.327994    0.000069
     10          6           0       -2.017876   -1.365095   -0.000414
     11          6           0       -0.665138   -1.068973   -0.000511
     12          8           0       -4.280867   -0.677537    0.000125
     13          1           0        2.785010    2.067908   -0.001327
     14          1           0        1.315609    2.532170    0.882853
     15          1           0        1.314234    2.532120   -0.883381
     16          1           0        3.980918   -1.863235    0.895135
     17          1           0        3.979621   -1.864754   -0.892828
     18          1           0        5.215003   -0.921571   -0.000533
     19          1           0       -0.854208    2.324773    0.000702
     20          1           0       -3.253389    1.809650    0.000843
     21          1           0       -2.369229   -2.391797   -0.000735
     22          1           0        0.065532   -1.869444   -0.000900
     23          1           0       -4.818864    0.129385    0.000518
 ---------------------------------------------------------------------

 SCF Done:  E(UB3LYP) =  -554.901626950     A.U. after   33 cycles
 SCF Done:  E(UB3LYP) =  -554.907038240     a.u. after   13 cycles

 The electronic state is 2-A.
 Alpha  occ. eigenvalues --  -19.04625 -19.03055 -14.21659 -10.11447 -10.10668
 Alpha  occ. eigenvalues --  -10.08285 -10.05698 -10.05388 -10.05076 -10.04961
 Alpha  occ. eigenvalues --  -10.04928 -10.04774  -0.97012  -0.94153  -0.76489
 Alpha  occ. eigenvalues --   -0.72416  -0.63840  -0.62614  -0.60437  -0.57131
 Alpha  occ. eigenvalues --   -0.50808  -0.48941  -0.44006  -0.42440  -0.39561
 Alpha  occ. eigenvalues --   -0.36669  -0.36022  -0.34423  -0.32927  -0.31696
 Alpha  occ. eigenvalues --   -0.31529  -0.30393  -0.29678  -0.29114  -0.26533
 Alpha  occ. eigenvalues --   -0.26259  -0.24956  -0.24084  -0.22086  -0.21960
 Alpha  occ. eigenvalues --   -0.15300  -0.14936  -0.13760  -0.09251   0.05028
 Alpha virt. eigenvalues --    0.06740   0.07022   0.08272   0.09533   0.10171
 Alpha virt. eigenvalues --    0.10513   0.10961   0.11266   0.12067   0.12491
 Alpha virt. eigenvalues --    0.13531   0.14629   0.15104   0.15185   0.16557

  Beta  occ. eigenvalues --  -19.04596 -19.02975 -14.21386 -10.11438 -10.10519
  Beta  occ. eigenvalues --  -10.08186 -10.05701 -10.05338 -10.05016 -10.04996
  Beta  occ. eigenvalues --  -10.04932 -10.04694  -0.96842  -0.93970  -0.76215
  Beta  occ. eigenvalues --   -0.72263  -0.63658  -0.62468  -0.60328  -0.57051
  Beta  occ. eigenvalues --   -0.50604  -0.48790  -0.43868  -0.42295  -0.39452
  Beta  occ. eigenvalues --   -0.36549  -0.35812  -0.34301  -0.32836  -0.31477
  Beta  occ. eigenvalues --   -0.31456  -0.30329  -0.29620  -0.28727  -0.26451
  Beta  occ. eigenvalues --   -0.26182  -0.24394  -0.23974  -0.21888  -0.21732
  Beta  occ. eigenvalues --   -0.15015  -0.14408  -0.13511  -0.08524
  Beta virt. eigenvalues --    0.06807   0.08174   0.08758   0.08865   0.09700
  Beta virt. eigenvalues --    0.10335   0.10622   0.11162   0.11469   0.12242
  Beta virt. eigenvalues --    0.12565   0.13581   0.14601   0.15253   0.15659

 Mulliken charges and spin densities:
               1          2
     1  C    0.115219  -0.874245
     2  C    0.666075  -0.253108
     3  N   -0.519554   0.172836
     4  O    0.177566   0.001731
     5  C   -0.026024  -0.221900
     6  C    0.511022   0.113943
     7  C   -1.760449   1.279605
     8  C   -0.126391  -0.005478
     9  C    1.299961  -1.537500
    10  C   -0.301391  -0.294335
    11  C    0.133587  -0.037676
    12  O   -0.305997   0.060821
    13  H    0.137153   0.023933
    14  H    0.122877   0.015160
    15  H   -0.106599   0.259135
    16  H    0.123192   0.008101
    17  H   -0.018918   0.156378
    18  H    0.004128   0.115798
    19  H    0.159547  -0.010438
    20  H   -1.250467   1.396168
    21  H    0.110666   0.046736
    22  H    0.175919  -0.014940
    23  H   -0.321121   0.599276
 Sum of Mulliken charges =  -1.00000   1.00000

 Dipole moment (field-independent basis, Debye):
    X=              7.9632    Y=             -2.2856    Z=              1.3196  Tot=              8.3892
 Quadrupole moment (field-independent basis, Debye-Ang):
   XX=           -153.1978   YY=            -95.2926   ZZ=            -88.2409
   XY=              9.8793   XZ=              0.0657   YZ=              1.9552

 Summary of Natural Population Analysis:

                                       Natural Population
                Natural  -----------------------------------------------
    Atom  No    Charge         Core      Valence    Rydberg      Total
 -----------------------------------------------------------------------
      C    1   -0.32044      0.99963     2.31467    0.00614     3.32044
      C    2    0.12306      0.99959     1.86192    0.01543     2.87694
      N    3   -0.05889      0.99960     2.54623    0.01306     3.55889
      O    4   -0.22865      0.99989     3.21720    0.01155     4.22865
      C    5   -0.09197      0.99963     2.08269    0.00965     3.09197
      C    6   -0.05204      0.99947     2.04241    0.01016     3.05204
      C    7   -0.07791      0.99954     2.06946    0.00892     3.07791
      C    8   -0.14940      0.99952     2.13881    0.01106     3.14940
      C    9    0.18193      0.99939     1.80493    0.01375     2.81807
      C   10   -0.13934      0.99952     2.12947    0.01035     3.13934
      C   11   -0.06050      0.99954     2.05336    0.00760     3.06050
      O   12   -0.34116      0.99988     3.33413    0.00716     4.34116
      H   13    0.11273      0.00000     0.38596    0.00131     0.38727
      H   14    0.10401      0.00000     0.39510    0.00090     0.39599
      H   15    0.10788      0.00000     0.39084    0.00128     0.39212
      H   16    0.07974      0.00000     0.41843    0.00183     0.42026
      H   17    0.08127      0.00000     0.41628    0.00245     0.41873
      H   18    0.08250      0.00000     0.41618    0.00132     0.41750
      H   19    0.09852      0.00000     0.40038    0.00110     0.40148
      H   20    0.10241      0.00000     0.39418    0.00342     0.39759
      H   21    0.10072      0.00000     0.39847    0.00082     0.39928
      H   22    0.10692      0.00000     0.39195    0.00113     0.39308
      H   23    0.23860      0.00000     0.24945    0.01195     0.26140
 =======================================================================
   * Total *   -0.00000     11.99520    31.85248    0.15232    44.00000

 Normal termination of Gaussian 16 at Wed Dec  9 18:31:04 2020.
