 Gaussian 16, Revision A.03,

 -----------------------------------------------------------
 # opt freq B3LYP/6-31G(d) empiricaldispersion=gd3bj scf=xqc
 -----------------------------------------------------------

 ------------------------------
 CID_64194375_JID_2607_neutraal
 ------------------------------
 Symbolic Z-matrix:
 Charge =  0 Multiplicity = 1

 SCF Done:  E(RB3LYP) =  -944.554589378     A.U. after   15 cycles
 SCF Done:  E(RB3LYP) =  -944.560082197     A.U. after   12 cycles
 SCF Done:  E(RB3LYP) =  -944.561047686     A.U. after   11 cycles
 SCF Done:  E(RB3LYP) =  -944.561175947     A.U. after   11 cycles
 SCF Done:  E(RB3LYP) =  -944.561203103     A.U. after   10 cycles
 SCF Done:  E(RB3LYP) =  -944.561207882     A.U. after    9 cycles
 SCF Done:  E(RB3LYP) =  -944.561209130     A.U. after    9 cycles
 Optimization completed.
    -- Stationary point found.
 Normal termination of Gaussian 16 at Wed Dec  9 17:42:10 2020.

 --------------------------------------------------------------------
 #N Geom=AllCheck Guess=TCheck SCRF=Check GenChk RB3LYP/6-31G(d) Freq
 --------------------------------------------------------------------

 Structure from the checkpoint file:  "JID_2607.chk"
 ------------------------------
 CID_64194375_JID_2607_neutraal
 ------------------------------
 Charge =  0 Multiplicity = 1

 SCF Done:  E(RB3LYP) =  -944.561209130     A.U. after    1 cycles

  Exact polarizability: 152.427   3.457 109.076  -0.017  -0.019  46.453
 Approx polarizability: 238.477  21.073 206.960  -0.045  -0.054  73.843

                      1                      2                      3
                      A                      A                      A
 Frequencies --     38.7613                80.4955                99.9003
 Red. masses --      5.0562                 1.1003                 6.6430
 Frc consts  --      0.0045                 0.0042                 0.0391
 IR Inten    --      0.9719                 0.4614                 0.6826

                      4                      5                      6
                      A                      A                      A
 Frequencies --    115.6835               174.5180               216.9026
 Red. masses --      6.7948                 6.1553                 5.1377
 Frc consts  --      0.0536                 0.1105                 0.1424
 IR Inten    --      0.1212                 7.6567                 2.1139

                      7                      8                      9
                      A                      A                      A
 Frequencies --    296.9329               299.1626               325.9977
 Red. masses --     13.2514                 3.8355                 4.3475
 Frc consts  --      0.6884                 0.2022                 0.2722
 IR Inten    --      0.6027                 1.2778                25.5894

                     10                     11                     12
                      A                      A                      A
 Frequencies --    434.3532               444.7252               525.9519
 Red. masses --      1.4960                 6.1303                 5.3047
 Frc consts  --      0.1663                 0.7144                 0.8646
 IR Inten    --     87.8490                 3.6827                16.4426

                     13                     14                     15
                      A                      A                      A
 Frequencies --    546.5353               589.6093               658.8463
 Red. masses --      9.1112                 5.5154                 5.6520
 Frc consts  --      1.6035                 1.1297                 1.4455
 IR Inten    --      3.1060                 4.9332                 0.0016

                     16                     17                     18
                      A                      A                      A
 Frequencies --    696.1842               705.0102               744.2849
 Red. masses --     10.0729                 7.3857                 9.5754
 Frc consts  --      2.8764                 2.1629                 3.1252
 IR Inten    --      1.4334                 2.9518                10.9058

                     19                     20                     21
                      A                      A                      A
 Frequencies --    761.5039               803.9699               846.0389
 Red. masses --     11.6064                 1.2426                 5.2369
 Frc consts  --      3.9654                 0.4732                 2.2085
 IR Inten    --      3.9162                20.4493                 9.7391

                     22                     23                     24
                      A                      A                      A
 Frequencies --    900.4029               954.0133               966.3218
 Red. masses --      9.8912                12.9844                 2.7810
 Frc consts  --      4.7247                 6.9628                 1.5300
 IR Inten    --     79.2383                30.7531                25.4966

                     25                     26                     27
                      A                      A                      A
 Frequencies --   1034.6946              1072.3123              1080.4799
 Red. masses --      4.0779                 1.4904                 3.0232
 Frc consts  --      2.5722                 1.0097                 2.0795
 IR Inten    --     40.6872                 2.6784                28.7232

                     28                     29                     30
                      A                      A                      A
 Frequencies --   1106.3220              1231.9700              1268.1019
 Red. masses --      3.1515                 6.7569                 1.7476
 Frc consts  --      2.2726                 6.0422                 1.6557
 IR Inten    --     38.9305                35.2340                 3.2937

                     31                     32                     33
                      A                      A                      A
 Frequencies --   1342.2689              1396.3197              1433.0350
 Red. masses --      2.9456                 2.0778                 1.5872
 Frc consts  --      3.1268                 2.3869                 1.9205
 IR Inten    --      0.3022                83.4014                 1.1115

                     34                     35                     36
                      A                      A                      A
 Frequencies --   1447.6218              1479.6363              1508.3274
 Red. masses --      2.6794                 6.3158                 1.1506
 Frc consts  --      3.3082                 8.1469                 1.5423
 IR Inten    --     44.4520                48.8272                11.4895

                     37                     38                     39
                      A                      A                      A
 Frequencies --   1512.8030              1554.1108              1660.0399
 Red. masses --      1.0430                 5.8830                11.0358
 Frc consts  --      1.4064                 8.3717                17.9181
 IR Inten    --      8.4363                 9.6367               103.4291

                     40                     41                     42
                      A                      A                      A
 Frequencies --   1927.6875              3069.9912              3126.7361
 Red. masses --     11.8062                 1.0367                 1.1008
 Frc consts  --     25.8484                 5.7565                 6.3405
 IR Inten    --    774.5358                 8.9890                 7.3229

                     43                     44                     45
                      A                      A                      A
 Frequencies --   3165.8890              3247.4099              3693.3355
 Red. masses --      1.1027                 1.0940                 1.0817
 Frc consts  --      6.5118                 6.7972                 8.6939
 IR Inten    --      8.1996                 0.0270               123.6296

 - Thermochemistry -
 -------------------
 Temperature   298.150 Kelvin.  Pressure   1.00000 Atm.
 Atom     1 has atomic number  6 and mass  12.00000

 Molecular mass:   183.01025 amu.
 Principal axes and moments of inertia in atomic units:
                           1         2         3
     Eigenvalues --   964.830273239.242134192.94352
           X            0.99988   0.01558  -0.00002
           Y           -0.01558   0.99988   0.00004
           Z            0.00002  -0.00004   1.00000
 This molecule is an asymmetric top.
 Rotational symmetry number  1.
 Warning -- assumption of classical behavior for rotation
           may cause significant error
 Rotational temperatures (Kelvin)      0.08977     0.02674     0.02066
 Rotational constants (GHZ):           1.87053     0.55715     0.43042
 Zero-point vibrational energy     302566.7 (Joules/Mol)
                                   72.31517 (Kcal/Mol)
 Warning -- explicit consideration of  14 degrees of freedom as
           vibrations may cause significant error
 Vibrational temperatures:     55.77   115.82   143.73   166.44   251.09
          (Kelvin)            312.07   427.22   430.43   469.04   624.94
                              639.86   756.73   786.34   848.32   947.93
                             1001.65  1014.35  1070.86  1095.63  1156.73
                             1217.26  1295.48  1372.61  1390.32  1488.69
                             1542.82  1554.57  1591.75  1772.53  1824.52
                             1931.23  2008.99  2061.82  2082.80  2128.87
                             2170.15  2176.59  2236.02  2388.43  2773.51
                             4417.03  4498.68  4555.01  4672.30  5313.89

 Zero-point correction=                           0.115242 (Hartree/Particle)
 Thermal correction to Energy=                    0.125640
 Thermal correction to Enthalpy=                  0.126584
 Thermal correction to Gibbs Free Energy=         0.077763
 Sum of electronic and zero-point Energies=           -944.445968
 Sum of electronic and thermal Energies=              -944.435570
 Sum of electronic and thermal Enthalpies=            -944.434625
 Sum of electronic and thermal Free Energies=         -944.483446

                     E (Thermal)             CV                S
                      KCal/Mol        Cal/Mol-Kelvin    Cal/Mol-Kelvin
 Total                   78.840             37.548            102.751
 Electronic               0.000              0.000              0.000
 Translational            0.889              2.981             41.520
 Rotational               0.889              2.981             30.950
 Vibrational             77.063             31.587             30.282
 Vibration     1          0.594              1.981              5.321
 Vibration     2          0.600              1.962              3.879
 Vibration     3          0.604              1.949              3.456
 Vibration     4          0.608              1.936              3.171
 Vibration     5          0.627              1.874              2.386
 Vibration     6          0.646              1.815              1.985
 Vibration     7          0.691              1.679              1.434
 Vibration     8          0.692              1.675              1.422
 Vibration     9          0.710              1.624              1.280
 Vibration    10          0.795              1.395              0.845
 Vibration    11          0.804              1.373              0.812
 Vibration    12          0.881              1.193              0.596
 Vibration    13          0.902              1.147              0.551
 Vibration    14          0.947              1.054              0.468

                           ! Non-Optimized Parameters !
 Normal termination of Gaussian 16 at Wed Dec  9 17:46:09 2020.

 ----------------------------------------------------------------------
 # B3LYP/6-311++G(d,p) empiricaldispersion=gd3bj scf=xqc pop=npa geom=c
 heck
 ----------------------------------------------------------------------

 --------------------------------------
 CID_64194375_JID_2607_Energie_neutraal
 --------------------------------------
 Structure from the checkpoint file:  "JID_2607.chk"
 Charge =  0 Multiplicity = 1

 SCF Done:  E(RB3LYP) =  -944.740443812     A.U. after   16 cycles
 Normal termination of Gaussian 16 at Wed Dec  9 17:49:29 2020.

 ----------------------------------------------------------------------
 # B3LYP/6-311++G(d,p) empiricaldispersion=gd3bj scf=xqc pop=npa geom=c
 heck
 ----------------------------------------------------------------------

 ------------------------------------
 CID_64194375_JID_2607_Energie_kation
 ------------------------------------
 Structure from the checkpoint file:  "JID_2607.chk"
 Charge =  1 Multiplicity = 2

 SCF Done:  E(UB3LYP) =  -944.427264537     A.U. after   22 cycles
 Normal termination of Gaussian 16 at Wed Dec  9 17:53:28 2020.
 Gaussian 16:  ES64L-G16RevA.03 25-Dec-2016

 ----------------------------------------------------------------------
 # B3LYP/6-311++G(d,p) empiricaldispersion=gd3bj scf=xqc pop=npa geom=c
 heck
 ----------------------------------------------------------------------

 -----------------------------------
 CID_64194375_JID_2607_Energie_anion
 -----------------------------------
 Structure from the checkpoint file:  "JID_2607.chk"
 Charge = -1 Multiplicity = 2

                         Standard orientation:
 ---------------------------------------------------------------------
 Center     Atomic      Atomic             Coordinates (Angstroms)
 Number     Number       Type             X           Y           Z
 ---------------------------------------------------------------------
      1          6           0        0.849407    2.457201    0.001811
      2          6           0        1.447896    1.081155    0.000863
      3          6           0        0.765494   -0.122419    0.000238
      4         16           0        1.884633   -1.462903   -0.000703
      5          6           0        3.180371   -0.299590   -0.001402
      6          7           0        2.820191    0.951121   -0.000043
      7          6           0       -0.652780   -0.359255    0.000477
      8          7           0       -1.247184   -1.512886    0.002371
      9          7           0       -2.585164   -1.180652    0.001517
     10          6           0       -2.814864    0.168075   -0.001134
     11          8           0       -3.827809    0.814400   -0.001916
     12          8           0       -1.514175    0.704315   -0.001489
     13          1           0        1.656986    3.191483    0.008901
     14          1           0        0.223431    2.622636   -0.880834
     15          1           0        0.212359    2.616986    0.877401
     16          1           0        4.212718   -0.629531   -0.002118
     17          1           0       -3.291791   -1.898941    0.003101
 ---------------------------------------------------------------------

 SCF Done:  E(UB3LYP) =  -944.758796851     A.U. after   19 cycles

 The electronic state is 2-A.
 Alpha  occ. eigenvalues --  -88.71484 -19.05367 -18.98569 -14.25655 -14.18399
 Alpha  occ. eigenvalues --  -14.15449 -10.20094 -10.11460 -10.05472 -10.04562
 Alpha  occ. eigenvalues --  -10.04125 -10.03015  -7.80171  -5.76465  -5.76112
 Alpha  occ. eigenvalues --   -5.75781  -1.01895  -0.92366  -0.86507  -0.80300
 Alpha  occ. eigenvalues --   -0.71176  -0.63950  -0.62754  -0.55527  -0.52936
 Alpha  occ. eigenvalues --   -0.50724  -0.44349  -0.42751  -0.37761  -0.37373
 Alpha  occ. eigenvalues --   -0.34174  -0.33558  -0.30313  -0.29319  -0.27847
 Alpha  occ. eigenvalues --   -0.26574  -0.25687  -0.24319  -0.23688  -0.23443
 Alpha  occ. eigenvalues --   -0.20818  -0.19891  -0.16224  -0.14950  -0.12188
 Alpha  occ. eigenvalues --   -0.11811  -0.08155   0.04574
 Alpha virt. eigenvalues --    0.08965   0.10111   0.10567   0.13267   0.13790
 Alpha virt. eigenvalues --    0.14074   0.14816   0.15278   0.15565   0.15807
 Alpha virt. eigenvalues --    0.16699   0.16760   0.17461   0.17956   0.18775

  Beta  occ. eigenvalues --  -88.71412 -19.05252 -18.98578 -14.25616 -14.17976
  Beta  occ. eigenvalues --  -14.15579 -10.20104 -10.11289 -10.04942 -10.04263
  Beta  occ. eigenvalues --  -10.03973 -10.03041  -7.80106  -5.76435  -5.76084
  Beta  occ. eigenvalues --   -5.75538  -1.01710  -0.92328  -0.86160  -0.79980
  Beta  occ. eigenvalues --   -0.70742  -0.63661  -0.62265  -0.55204  -0.52721
  Beta  occ. eigenvalues --   -0.50313  -0.44052  -0.42340  -0.37394  -0.36861
  Beta  occ. eigenvalues --   -0.33886  -0.33514  -0.30157  -0.28731  -0.27617
  Beta  occ. eigenvalues --   -0.26277  -0.25069  -0.24155  -0.22800  -0.22524
  Beta  occ. eigenvalues --   -0.20510  -0.19626  -0.15935  -0.13874  -0.12192
  Beta  occ. eigenvalues --   -0.10577  -0.06083
  Beta virt. eigenvalues --    0.08956   0.10091   0.10567   0.11034   0.13252
  Beta virt. eigenvalues --    0.13862   0.14084   0.14852   0.15559   0.15825
  Beta virt. eigenvalues --    0.15979   0.16845   0.17247   0.17960   0.18121

 Mulliken charges and spin densities:
               1          2
     1  C   -0.928389  -0.024151
     2  C   -1.144967   0.173292
     3  C    1.210902   0.117812
     4  S   -0.555730   0.104050
     5  C    0.022799   0.379504
     6  N   -0.028195  -0.079183
     7  C    0.148011   0.101505
     8  N   -0.167832   0.197888
     9  N   -0.248128   0.009627
    10  C    0.406676   0.000090
    11  O   -0.448859  -0.002697
    12  O   -0.190085   0.018218
    13  H    0.132605   0.000058
    14  H    0.142118   0.014806
    15  H    0.142589   0.014552
    16  H    0.191732  -0.024516
    17  H    0.314752  -0.000857
 Sum of Mulliken charges =  -1.00000   1.00000

 Dipole moment (field-independent basis, Debye):
    X=             -1.5644    Y=             -1.5199    Z=              0.0041  Tot=              2.1812
 Quadrupole moment (field-independent basis, Debye-Ang):
   XX=           -115.0847   YY=            -91.1801   ZZ=            -81.8631
   XY=              5.9101   XZ=             -0.0218   YZ=              0.0129

 Summary of Natural Population Analysis:

                                       Natural Population
                Natural  -----------------------------------------------
    Atom  No    Charge         Core      Valence    Rydberg      Total
 -----------------------------------------------------------------------
      C    1   -0.29945      0.99964     2.29500    0.00481     3.29945
      C    2    0.13123      0.99948     1.85560    0.01369     2.86877
      C    3   -0.13492      0.99938     2.12539    0.01015     3.13492
      S    4    0.19901      4.99948     2.77868    0.02284     7.80099
      C    5    0.04144      0.99968     1.94093    0.01795     2.95856
      N    6   -0.28385      0.99967     2.77085    0.01332     3.78385
      C    7    0.26904      0.99953     1.71343    0.01800     2.73096
      N    8   -0.12315      0.99967     2.61012    0.01337     3.62315
      N    9   -0.22915      0.99968     2.71792    0.01155     3.72915
      C   10    0.43049      0.99972     1.54485    0.02494     2.56951
      O   11   -0.33108      0.99986     3.32443    0.00679     4.33108
      O   12   -0.25528      0.99986     3.24669    0.00873     4.25528
      H   13    0.10046      0.00000     0.39826    0.00128     0.39954
      H   14    0.10422      0.00000     0.39479    0.00099     0.39578
      H   15    0.10430      0.00000     0.39472    0.00098     0.39570
      H   16    0.08005      0.00000     0.41848    0.00146     0.41995
      H   17    0.19663      0.00000     0.30201    0.00137     0.30337
 =======================================================================
   * Total *   -0.00000     15.99565    30.83213    0.17222    47.00000

 Normal termination of Gaussian 16 at Wed Dec  9 17:56:41 2020.
