 Gaussian 16, Revision A.03,

 -----------------------------------------------------------
 # opt freq B3LYP/6-31G(d) empiricaldispersion=gd3bj scf=xqc
 -----------------------------------------------------------

 -------------------------------
 CID_101724554_JID_4178_neutraal
 -------------------------------
 Symbolic Z-matrix:
 Charge =  0 Multiplicity = 1

 SCF Done:  E(RB3LYP) =  -577.656948481     A.U. after   15 cycles
 SCF Done:  E(RB3LYP) =  -577.658443692     A.U. after   13 cycles
 SCF Done:  E(RB3LYP) =  -577.658755452     A.U. after   13 cycles
 SCF Done:  E(RB3LYP) =  -577.659509298     A.U. after   12 cycles
 SCF Done:  E(RB3LYP) =  -577.660259350     A.U. after   12 cycles
 SCF Done:  E(RB3LYP) =  -577.660332323     A.U. after   12 cycles
 SCF Done:  E(RB3LYP) =  -577.660367698     A.U. after   12 cycles
 SCF Done:  E(RB3LYP) =  -577.660411313     A.U. after   11 cycles
 SCF Done:  E(RB3LYP) =  -577.660414753     A.U. after   10 cycles
 SCF Done:  E(RB3LYP) =  -577.660415629     A.U. after    9 cycles
 SCF Done:  E(RB3LYP) =  -577.660415975     A.U. after    8 cycles
 SCF Done:  E(RB3LYP) =  -577.660416121     A.U. after    8 cycles
 SCF Done:  E(RB3LYP) =  -577.660416179     A.U. after    8 cycles
 SCF Done:  E(RB3LYP) =  -577.660416183     A.U. after    6 cycles
 Optimization completed.
    -- Stationary point found.
 Normal termination of Gaussian 16 at Thu Dec 10 09:21:17 2020.

 --------------------------------------------------------------------
 #N Geom=AllCheck Guess=TCheck SCRF=Check GenChk RB3LYP/6-31G(d) Freq
 --------------------------------------------------------------------

 Structure from the checkpoint file:  "JID_4178.chk"
 -------------------------------
 CID_101724554_JID_4178_neutraal
 -------------------------------
 Charge =  0 Multiplicity = 1

 SCF Done:  E(RB3LYP) =  -577.660416183     A.U. after    1 cycles

  Exact polarizability: 141.603  26.991 139.367  -8.438   7.184 118.486
 Approx polarizability: 200.324  48.926 209.933 -23.207  15.161 200.557

                      1                      2                      3
                      A                      A                      A
 Frequencies --     18.9643                37.5412                55.4944
 Red. masses --      4.4372                 2.7253                 3.2278
 Frc consts  --      0.0009                 0.0023                 0.0059
 IR Inten    --      0.1146                 0.2547                 1.4107

                      4                      5                      6
                      A                      A                      A
 Frequencies --     61.0256               105.1940               131.3457
 Red. masses --      3.6200                 4.3866                 1.9216
 Frc consts  --      0.0079                 0.0286                 0.0195
 IR Inten    --      0.1102                 0.9557                 0.1006

                      7                      8                      9
                      A                      A                      A
 Frequencies --    160.5935               193.2882               232.3914
 Red. masses --      3.1249                 2.6527                 1.6972
 Frc consts  --      0.0475                 0.0584                 0.0540
 IR Inten    --      0.6555                 0.6316                 1.2388

                     10                     11                     12
                      A                      A                      A
 Frequencies --    243.3665               286.6087               304.2680
 Red. masses --      2.7096                 2.6833                 1.7191
 Frc consts  --      0.0946                 0.1299                 0.0938
 IR Inten    --      0.8353                 1.9530                 0.2207

                     13                     14                     15
                      A                      A                      A
 Frequencies --    353.5991               390.1649               412.8838
 Red. masses --      2.2188                 2.6806                 3.0508
 Frc consts  --      0.1635                 0.2404                 0.3064
 IR Inten    --      0.3166                 0.2250                 1.2621

                     16                     17                     18
                      A                      A                      A
 Frequencies --    436.0981               488.7568               507.6876
 Red. masses --      3.3631                 3.0872                 2.9287
 Frc consts  --      0.3768                 0.4345                 0.4448
 IR Inten    --      5.7031                 0.7974                 1.1272

                     19                     20                     21
                      A                      A                      A
 Frequencies --    590.9308               634.1957               708.7833
 Red. masses --      2.8070                 7.4164                 4.5083
 Frc consts  --      0.5775                 1.7575                 1.3344
 IR Inten    --      7.4868                 3.6302                 7.2400

                     22                     23                     24
                      A                      A                      A
 Frequencies --    730.9090               744.4924               787.8241
 Red. masses --      1.9400                 1.3812                 1.3611
 Frc consts  --      0.6106                 0.4511                 0.4978
 IR Inten    --     26.7052                 3.9904                 3.0287

                     25                     26                     27
                      A                      A                      A
 Frequencies --    804.9168               820.4125               860.0144
 Red. masses --      1.8095                 1.7113                 2.9187
 Frc consts  --      0.6908                 0.6786                 1.2719
 IR Inten    --     10.4168                 3.7784                11.9928

                     28                     29                     30
                      A                      A                      A
 Frequencies --    872.4365               901.1324               930.5862
 Red. masses --      2.4995                 2.1097                 1.6802
 Frc consts  --      1.1209                 1.0094                 0.8573
 IR Inten    --      9.0421                 3.9259                 4.0052

                     31                     32                     33
                      A                      A                      A
 Frequencies --    944.0933               955.9462               981.1517
 Red. masses --      1.4773                 1.3304                 1.9992
 Frc consts  --      0.7758                 0.7163                 1.1339
 IR Inten    --      1.5102                 0.4074                 5.8555

                     34                     35                     36
                      A                      A                      A
 Frequencies --    984.3642               998.4012              1017.9629
 Red. masses --      1.5060                 1.3752                 1.6113
 Frc consts  --      0.8598                 0.8077                 0.9837
 IR Inten    --      6.7270                 0.2054                 3.9516

                     37                     38                     39
                      A                      A                      A
 Frequencies --   1045.5912              1063.0452              1072.7352
 Red. masses --      4.0246                 1.4024                 2.7302
 Frc consts  --      2.5924                 0.9338                 1.8511
 IR Inten    --      9.2550                 1.8580                 0.9319

                     40                     41                     42
                      A                      A                      A
 Frequencies --   1075.0930              1101.8873              1148.6024
 Red. masses --      2.6048                 2.1268                 1.9102
 Frc consts  --      1.7739                 1.5214                 1.4848
 IR Inten    --      1.3861                 0.3234                 1.6343

                     43                     44                     45
                      A                      A                      A
 Frequencies --   1153.2993              1160.4039              1228.3665
 Red. masses --      1.5043                 1.8199                 2.2370
 Frc consts  --      1.1789                 1.4438                 1.9887
 IR Inten    --      4.2846                 2.6923                 3.5693

                     46                     47                     48
                      A                      A                      A
 Frequencies --   1231.4330              1241.0028              1254.7324
 Red. masses --      1.4108                 1.5970                 1.3663
 Frc consts  --      1.2605                 1.4491                 1.2674
 IR Inten    --      1.6067                 4.6606                 2.5715

                     49                     50                     51
                      A                      A                      A
 Frequencies --   1296.4380              1305.0461              1326.6187
 Red. masses --      1.2671                 6.2858                 1.2189
 Frc consts  --      1.2548                 6.3075                 1.2638
 IR Inten    --      0.3718                 2.2896                 0.5781

                     52                     53                     54
                      A                      A                      A
 Frequencies --   1343.4153              1360.7071              1377.4239
 Red. masses --      1.1655                 1.2353                 1.3184
 Frc consts  --      1.2393                 1.3476                 1.4738
 IR Inten    --      0.8685                 2.8292                 3.5046

                     55                     56                     57
                      A                      A                      A
 Frequencies --   1395.6519              1397.3384              1413.6309
 Red. masses --      1.3401                 1.3652                 1.3381
 Frc consts  --      1.5379                 1.5705                 1.5755
 IR Inten    --      9.4839                 8.7901                 2.9072

                     58                     59                     60
                      A                      A                      A
 Frequencies --   1426.1217              1432.4898              1442.7798
 Red. masses --      1.4843                 1.3615                 1.2670
 Frc consts  --      1.7787                 1.6461                 1.5539
 IR Inten    --      0.0347                 3.2286                 3.7596

                     61                     62                     63
                      A                      A                      A
 Frequencies --   1473.3032              1504.9172              1515.9153
 Red. masses --      1.9337                 1.0872                 1.0829
 Frc consts  --      2.4730                 1.4507                 1.4662
 IR Inten    --     18.6451                 5.2481                 2.0670

                     64                     65                     66
                      A                      A                      A
 Frequencies --   1519.7039              1523.0835              1527.7616
 Red. masses --      1.0695                 2.0802                 1.1062
 Frc consts  --      1.4552                 2.8432                 1.5212
 IR Inten    --      0.7521                 6.9276                10.7853

                     67                     68                     69
                      A                      A                      A
 Frequencies --   1529.3720              1534.8448              1540.5311
 Red. masses --      1.0783                 1.0668                 1.0638
 Frc consts  --      1.4859                 1.4807                 1.4874
 IR Inten    --      2.1533                 2.3573                 7.8719

                     70                     71                     72
                      A                      A                      A
 Frequencies --   1622.5138              1646.5263              1732.6637
 Red. masses --      4.8825                 5.5578                10.4857
 Frc consts  --      7.5730                 8.8775                18.5470
 IR Inten    --     13.6433                19.6486                59.0064

                     73                     74                     75
                      A                      A                      A
 Frequencies --   3023.3861              3030.7518              3034.2161
 Red. masses --      1.0618                 1.0624                 1.0671
 Frc consts  --      5.7185                 5.7496                 5.7882
 IR Inten    --     12.2818                23.7515                23.8797

                     76                     77                     78
                      A                      A                      A
 Frequencies --   3037.9753              3046.6242              3048.1005
 Red. masses --      1.0620                 1.0539                 1.0421
 Frc consts  --      5.7750                 5.7634                 5.7047
 IR Inten    --     30.1623                63.5169                 1.0947

                     79                     80                     81
                      A                      A                      A
 Frequencies --   3059.4660              3067.5106              3076.7165
 Red. masses --      1.0973                 1.0955                 1.0991
 Frc consts  --      6.0516                 6.0737                 6.1303
 IR Inten    --     21.6974                21.6074                12.0869

                     82                     83                     84
                      A                      A                      A
 Frequencies --   3077.0093              3089.5765              3095.4737
 Red. masses --      1.0898                 1.1009                 1.1016
 Frc consts  --      6.0794                 6.1913                 6.2189
 IR Inten    --     39.8723                87.2350                50.1853

                     85                     86                     87
                      A                      A                      A
 Frequencies --   3112.7779              3117.9503              3178.3756
 Red. masses --      1.1019                 1.1016                 1.0883
 Frc consts  --      6.2905                 6.3098                 6.4778
 IR Inten    --     54.5367                44.3802                19.0955

                     88                     89                     90
                      A                      A                      A
 Frequencies --   3188.3465              3190.5666              3215.1587
 Red. masses --      1.0908                 1.0900                 1.0964
 Frc consts  --      6.5331                 6.5376                 6.6776
 IR Inten    --     11.7958                10.3180                16.5834

 - Thermochemistry -
 -------------------
 Temperature   298.150 Kelvin.  Pressure   1.00000 Atm.
 Atom     1 has atomic number  6 and mass  12.00000

 Molecular mass:   190.14700 amu.
 Principal axes and moments of inertia in atomic units:
                           1         2         3
     Eigenvalues --  2218.307243440.061684595.62789
           X            0.99994  -0.00583   0.00911
           Y            0.00559   0.99965   0.02580
           Z           -0.00926  -0.02574   0.99963
 This molecule is an asymmetric top.
 Rotational symmetry number  1.
 Warning -- assumption of classical behavior for rotation
           may cause significant error
 Rotational temperatures (Kelvin)      0.03905     0.02518     0.01885
 Rotational constants (GHZ):           0.81357     0.52462     0.39271
 Zero-point vibrational energy     743735.1 (Joules/Mol)
                                  177.75695 (Kcal/Mol)
 Warning -- explicit consideration of  19 degrees of freedom as
           vibrations may cause significant error
 Vibrational temperatures:     27.29    54.01    79.84    87.80   151.35
          (Kelvin)            188.98   231.06   278.10   334.36   350.15
                              412.37   437.77   508.75   561.36   594.05
                              627.45   703.21   730.45   850.22   912.47
                             1019.78  1051.62  1071.16  1133.50  1158.10
                             1180.39  1237.37  1255.24  1296.53  1338.91
                             1358.34  1375.39  1411.66  1416.28  1436.48
                             1464.62  1504.37  1529.48  1543.43  1546.82
                             1585.37  1652.58  1659.34  1669.56  1767.35
                             1771.76  1785.53  1805.28  1865.29  1877.67
                             1908.71  1932.88  1957.75  1981.81  2008.03
                             2010.46  2033.90  2051.87  2061.03  2075.84
                             2119.75  2165.24  2181.06  2186.52  2191.38
                             2198.11  2200.43  2208.30  2216.48  2334.44
                             2368.98  2492.92  4349.98  4360.58  4365.56
                             4370.97  4383.41  4385.54  4401.89  4413.46
                             4426.71  4427.13  4445.21  4453.70  4478.59
                             4486.04  4572.97  4587.32  4590.51  4625.90

 Zero-point correction=                           0.283274 (Hartree/Particle)
 Thermal correction to Energy=                    0.297377
 Thermal correction to Enthalpy=                  0.298321
 Thermal correction to Gibbs Free Energy=         0.240360
 Sum of electronic and zero-point Energies=           -577.377142
 Sum of electronic and thermal Energies=              -577.363039
 Sum of electronic and thermal Enthalpies=            -577.362095
 Sum of electronic and thermal Free Energies=         -577.420056

                     E (Thermal)             CV                S
                      KCal/Mol        Cal/Mol-Kelvin    Cal/Mol-Kelvin
 Total                  186.607             52.656            121.989
 Electronic               0.000              0.000              0.000
 Translational            0.889              2.981             41.634
 Rotational               0.889              2.981             31.928
 Vibrational            184.829             46.694             48.427
 Vibration     1          0.593              1.986              6.740
 Vibration     2          0.594              1.982              5.385
 Vibration     3          0.596              1.975              4.611
 Vibration     4          0.597              1.973              4.424
 Vibration     5          0.605              1.945              3.356
 Vibration     6          0.612              1.922              2.926
 Vibration     7          0.622              1.891              2.543
 Vibration     8          0.635              1.849              2.196
 Vibration     9          0.653              1.791              1.860
 Vibration    10          0.659              1.774              1.778
 Vibration    11          0.684              1.699              1.494
 Vibration    12          0.695              1.666              1.393
 Vibration    13          0.730              1.568              1.150
 Vibration    14          0.758              1.491              1.000
 Vibration    15          0.777              1.442              0.916
 Vibration    16          0.797              1.392              0.839
 Vibration    17          0.845              1.275              0.687
 Vibration    18          0.863              1.233              0.639
 Vibration    19          0.948              1.051              0.466

 Optimization completed.
    -- Stationary point found.
 Normal termination of Gaussian 16 at Thu Dec 10 09:30:43 2020.

 ----------------------------------------------------------------------
 # B3LYP/6-311++G(d,p) empiricaldispersion=gd3bj scf=xqc pop=npa geom=c
 heck
 ----------------------------------------------------------------------

 ---------------------------------------
 CID_101724554_JID_4178_Energie_neutraal
 ---------------------------------------
 Structure from the checkpoint file:  "JID_4178.chk"
 Charge =  0 Multiplicity = 1

 SCF Done:  E(RB3LYP) =  -577.812817161     A.U. after   15 cycles
 Normal termination of Gaussian 16 at Thu Dec 10 09:34:36 2020.

 ----------------------------------------------------------------------
 # B3LYP/6-311++G(d,p) empiricaldispersion=gd3bj scf=xqc pop=npa geom=c
 heck
 ----------------------------------------------------------------------

 -------------------------------------
 CID_101724554_JID_4178_Energie_kation
 -------------------------------------
 Structure from the checkpoint file:  "JID_4178.chk"
 Charge =  1 Multiplicity = 2

 SCF Done:  E(UB3LYP) =  -577.488961850     A.U. after   28 cycles
 Normal termination of Gaussian 16 at Thu Dec 10 09:44:16 2020.
 Gaussian 16:  ES64L-G16RevA.03 25-Dec-2016

 ----------------------------------------------------------------------
 # B3LYP/6-311++G(d,p) empiricaldispersion=gd3bj scf=xqc pop=npa geom=c
 heck
 ----------------------------------------------------------------------

 ------------------------------------
 CID_101724554_JID_4178_Energie_anion
 ------------------------------------
 Structure from the checkpoint file:  "JID_4178.chk"
 Charge = -1 Multiplicity = 2

                         Standard orientation:
 ---------------------------------------------------------------------
 Center     Atomic      Atomic             Coordinates (Angstroms)
 Number     Number       Type             X           Y           Z
 ---------------------------------------------------------------------
      1          6           0       -1.402824    2.707238    0.810820
      2          6           0       -2.075690    2.347994   -0.517911
      3          6           0       -1.893294    0.879455   -0.928069
      4          6           0       -2.619141   -0.115856   -0.013530
      5          6           0       -2.506720   -1.578363   -0.464458
      6          6           0       -1.070542   -2.124080   -0.423244
      7          7           0       -0.614641   -2.156461    0.958685
      8          6           0        0.411009   -1.512766    1.354306
      9          6           0        1.380634   -0.681451    0.592798
     10          6           0        1.965112   -1.081814   -0.619125
     11          7           0        2.834688   -0.341341   -1.312926
     12          6           0        3.166913    0.853833   -0.810194
     13          6           0        2.678021    1.341100    0.403130
     14          6           0        1.781350    0.553826    1.117964
     15          1           0       -1.817736    2.131247    1.645341
     16          1           0       -1.532044    3.769622    1.046487
     17          1           0       -0.326714    2.501070    0.766758
     18          1           0       -3.148944    2.578469   -0.461275
     19          1           0       -1.665938    2.990363   -1.308449
     20          1           0       -2.259688    0.745474   -1.955800
     21          1           0       -0.818961    0.654020   -0.954790
     22          1           0       -2.237331   -0.036012    1.011300
     23          1           0       -3.682157    0.158439    0.032568
     24          1           0       -3.133975   -2.208509    0.176804
     25          1           0       -2.882576   -1.680813   -1.491559
     26          1           0       -1.071519   -3.158381   -0.789700
     27          1           0       -0.433121   -1.537805   -1.096097
     28          1           0        0.603715   -1.543017    2.433375
     29          1           0        1.736426   -2.060163   -1.034785
     30          1           0        3.865636    1.443477   -1.400488
     31          1           0        2.996837    2.309447    0.776006
     32          1           0        1.378789    0.892983    2.069063
 ---------------------------------------------------------------------

 SCF Done:  E(UB3LYP) =  -577.814230617     A.U. after   33 cycles
 SCF Done:  E(UB3LYP) =  -577.814230617     a.u. after    1 cycles

 The electronic state is 2-A.
 Alpha  occ. eigenvalues --  -14.15277 -14.13455 -10.06244 -10.05405 -10.05273
 Alpha  occ. eigenvalues --  -10.05263 -10.04881 -10.04571 -10.04475 -10.04235
 Alpha  occ. eigenvalues --  -10.03759 -10.03362 -10.02613 -10.01944  -0.78890
 Alpha  occ. eigenvalues --   -0.76289  -0.69305  -0.65768  -0.64427  -0.61338
 Alpha  occ. eigenvalues --   -0.58642  -0.54030  -0.49804  -0.47868  -0.47740
 Alpha  occ. eigenvalues --   -0.44974  -0.40944  -0.36777  -0.35849  -0.35003
 Alpha  occ. eigenvalues --   -0.33907  -0.33102  -0.32867  -0.30980  -0.29257
 Alpha  occ. eigenvalues --   -0.28459  -0.28007  -0.26315  -0.25334  -0.25026
 Alpha  occ. eigenvalues --   -0.24699  -0.23598  -0.22771  -0.22464  -0.21246
 Alpha  occ. eigenvalues --   -0.20431  -0.19777  -0.16744  -0.13906  -0.11514
 Alpha  occ. eigenvalues --   -0.10789  -0.09177   0.05527
 Alpha virt. eigenvalues --    0.07624   0.08561   0.09233   0.09552   0.10406
 Alpha virt. eigenvalues --    0.10989   0.11232   0.11468   0.11904   0.12091
 Alpha virt. eigenvalues --    0.12916   0.13483   0.14112   0.14438   0.15267

  Beta  occ. eigenvalues --  -14.15194 -14.13030 -10.06244 -10.05394 -10.05295
  Beta  occ. eigenvalues --  -10.05258 -10.04879 -10.04571 -10.04342 -10.04207
  Beta  occ. eigenvalues --  -10.03471 -10.03365 -10.02336 -10.01727  -0.78533
  Beta  occ. eigenvalues --   -0.75634  -0.69275  -0.65416  -0.64224  -0.60914
  Beta  occ. eigenvalues --   -0.58549  -0.53948  -0.49428  -0.47673  -0.47325
  Beta  occ. eigenvalues --   -0.44880  -0.40652  -0.36556  -0.35766  -0.34909
  Beta  occ. eigenvalues --   -0.33791  -0.32952  -0.32582  -0.30824  -0.29146
  Beta  occ. eigenvalues --   -0.28324  -0.27878  -0.26146  -0.25121  -0.24796
  Beta  occ. eigenvalues --   -0.24110  -0.23345  -0.22677  -0.22246  -0.21102
  Beta  occ. eigenvalues --   -0.20376  -0.19738  -0.15266  -0.12869  -0.11073
  Beta  occ. eigenvalues --   -0.09368  -0.08699
  Beta virt. eigenvalues --    0.07562   0.08514   0.09236   0.09445   0.10324
  Beta virt. eigenvalues --    0.10760   0.11172   0.11584   0.11852   0.12027
  Beta virt. eigenvalues --    0.12125   0.12883   0.13430   0.14122   0.14372

 Mulliken charges and spin densities:
               1          2
     1  C   -0.572842  -0.000861
     2  C   -0.327983  -0.016824
     3  C    0.044211  -0.083125
     4  C   -0.182116   0.071972
     5  C   -0.257546  -0.295924
     6  C   -0.209168   0.060465
     7  N   -0.045618   0.175702
     8  C   -0.689523   0.018328
     9  C    0.454722   0.304880
    10  C   -0.631159  -0.003447
    11  N   -0.057390   0.022230
    12  C   -0.395988   0.277168
    13  C   -0.243997  -0.033331
    14  C    0.271866   0.018080
    15  H    0.140416   0.002737
    16  H    0.114551  -0.001827
    17  H    0.170311  -0.000518
    18  H    0.072570   0.010328
    19  H    0.137759  -0.004713
    20  H    0.107050   0.038767
    21  H    0.136221   0.007448
    22  H    0.100736   0.001454
    23  H    0.121213   0.019104
    24  H    0.148762  -0.009865
    25  H   -0.111320   0.207048
    26  H    0.078491   0.095355
    27  H    0.136413  -0.039610
    28  H    0.056132   0.075784
    29  H    0.150087   0.015281
    30  H    0.112717  -0.024960
    31  H    0.110927   0.015776
    32  H    0.059498   0.077098
 Sum of Mulliken charges =  -1.00000   1.00000

 Dipole moment (field-independent basis, Debye):
    X=             -3.7527    Y=              3.9484    Z=              0.1937  Tot=              5.4507
 Quadrupole moment (field-independent basis, Debye-Ang):
   XX=           -125.6344   YY=           -109.5271   ZZ=           -107.9826
   XY=             -2.6921   XZ=              4.4726   YZ=              2.9751

 Summary of Natural Population Analysis:

                                       Natural Population
                Natural  -----------------------------------------------
    Atom  No    Charge         Core      Valence    Rydberg      Total
 -----------------------------------------------------------------------
      C    1   -0.28880      0.99967     2.28480    0.00433     3.28880
      C    2   -0.18390      0.99965     2.17866    0.00560     3.18390
      C    3   -0.19724      0.99963     2.18714    0.01047     3.19724
      C    4   -0.19508      0.99963     2.18537    0.01008     3.19508
      C    5   -0.18632      0.99963     2.17620    0.01049     3.18632
      C    6   -0.11044      0.99961     2.09754    0.01330     3.11044
      N    7   -0.18872      0.99968     2.67649    0.01255     3.68872
      C    8    0.07466      0.99960     1.90857    0.01717     2.92534
      C    9   -0.04999      0.99948     2.03941    0.01111     3.04999
      C   10    0.03125      0.99955     1.95621    0.01299     2.96875
      N   11   -0.23744      0.99971     2.72593    0.01180     3.73744
      C   12    0.08437      0.99960     1.90155    0.01448     2.91563
      C   13   -0.15148      0.99956     2.14408    0.00784     3.15148
      C   14   -0.03470      0.99953     2.02316    0.01201     3.03470
      H   15    0.09570      0.00000     0.40342    0.00087     0.40430
      H   16    0.08976      0.00000     0.40934    0.00089     0.41024
      H   17    0.10776      0.00000     0.39132    0.00092     0.39224
      H   18    0.08530      0.00000     0.41351    0.00119     0.41470
      H   19    0.09173      0.00000     0.40732    0.00095     0.40827
      H   20    0.09025      0.00000     0.40864    0.00110     0.40975
      H   21    0.10630      0.00000     0.39228    0.00142     0.39370
      H   22    0.10327      0.00000     0.39570    0.00103     0.39673
      H   23    0.08743      0.00000     0.41160    0.00097     0.41257
      H   24    0.09566      0.00000     0.40308    0.00126     0.40434
      H   25    0.08899      0.00000     0.40955    0.00146     0.41101
      H   26    0.09261      0.00000     0.40600    0.00139     0.40739
      H   27    0.08499      0.00000     0.41238    0.00263     0.41501
      H   28    0.07320      0.00000     0.42503    0.00177     0.42680
      H   29    0.08391      0.00000     0.41460    0.00149     0.41609
      H   30    0.07374      0.00000     0.42501    0.00125     0.42626
      H   31    0.09252      0.00000     0.40649    0.00099     0.40748
      H   32    0.09070      0.00000     0.40789    0.00141     0.40930
 =======================================================================
   * Total *   -0.00000     13.99452    37.82827    0.17722    52.00000

 Normal termination of Gaussian 16 at Thu Dec 10 09:55:38 2020.
