 Gaussian 16, Revision A.03,

 -----------------------------------------------------------
 # opt freq B3LYP/6-31G(d) empiricaldispersion=gd3bj scf=xqc
 -----------------------------------------------------------

 ------------------------------
 CID_145387734_JID_837_neutraal
 ------------------------------
 Symbolic Z-matrix:
 Charge =  0 Multiplicity = 1

 SCF Done:  E(RB3LYP) =  -407.969036410     A.U. after   13 cycles
 SCF Done:  E(RB3LYP) =  -407.972975970     A.U. after   11 cycles
 SCF Done:  E(RB3LYP) =  -407.973522101     A.U. after   11 cycles
 SCF Done:  E(RB3LYP) =  -407.973913882     A.U. after   10 cycles
 SCF Done:  E(RB3LYP) =  -407.974139906     A.U. after   10 cycles
 SCF Done:  E(RB3LYP) =  -407.974239967     A.U. after   10 cycles
 SCF Done:  E(RB3LYP) =  -407.974412676     A.U. after   10 cycles
 SCF Done:  E(RB3LYP) =  -407.974541434     A.U. after   11 cycles
 SCF Done:  E(RB3LYP) =  -407.974583047     A.U. after    9 cycles
 SCF Done:  E(RB3LYP) =  -407.974639031     A.U. after   10 cycles
 SCF Done:  E(RB3LYP) =  -407.974819469     A.U. after    9 cycles
 SCF Done:  E(RB3LYP) =  -407.974821420     A.U. after    8 cycles
 SCF Done:  E(RB3LYP) =  -407.974821633     A.U. after    7 cycles
 SCF Done:  E(RB3LYP) =  -407.974821646     A.U. after    7 cycles
 SCF Done:  E(RB3LYP) =  -407.974821696     A.U. after    7 cycles
 Optimization completed.
    -- Stationary point found.

 1\1\GINC-NODE105\FOpt\RB3LYP\6-31G(d)\C9H17N1\VSC10255\08-Dec-2020\0\\
 # opt freq B3LYP/6-31G(d) empiricaldispersion=gd3bj scf=xqc\\CID_14538
 7734_JID_837_neutraal\\0,1\C,1.1470527188,0.0200145799,-0.0359138941\C
 ,0.6644545918,-1.3222975209,0.473626458\C,0.3325191854,-2.282886865,-0
 .4063232693\N,0.4660076727,-2.2063538909,-1.8003248643\C,0.619862362,-
 1.5227019517,1.9889438956\C,0.0693857068,-2.9033708386,2.4187041037\C,
 -1.4735659236,-2.8111372384,2.3214677225\C,-1.7925204083,-1.2903372009
 ,2.2840672125\C,-0.4603227194,-0.5977512344,2.6148501525\C,2.015176147

 Normal termination of Gaussian 16 at Tue Dec  8 13:10:02 2020.

 --------------------------------------------------------------------
 #N Geom=AllCheck Guess=TCheck SCRF=Check GenChk RB3LYP/6-31G(d) Freq
 --------------------------------------------------------------------

 Structure from the checkpoint file:  "JID_837.chk"
 ------------------------------
 CID_145387734_JID_837_neutraal
 ------------------------------
 Charge =  0 Multiplicity = 1

 SCF Done:  E(RB3LYP) =  -407.974821696     A.U. after    1 cycles

  Exact polarizability: 109.852   7.703 101.825  -1.023   5.262  84.217
 Approx polarizability: 149.617  19.100 147.760   1.380  13.978 122.637

                      1                      2                      3
                      A                      A                      A
 Frequencies --     51.7279                97.6578               127.3767
 Red. masses --      2.1997                 1.6375                 2.2308
 Frc consts  --      0.0035                 0.0092                 0.0213
 IR Inten    --      1.0260                 0.9927                 0.3021

                      4                      5                      6
                      A                      A                      A
 Frequencies --    150.1284               227.6449               243.4012
 Red. masses --      1.7758                 1.5011                 1.5550
 Frc consts  --      0.0236                 0.0458                 0.0543
 IR Inten    --      0.0316                 2.4702                 2.9490

                      7                      8                      9
                      A                      A                      A
 Frequencies --    258.6461               284.4384               295.2349
 Red. masses --      2.5307                 1.6336                 1.4922
 Frc consts  --      0.0997                 0.0779                 0.0766
 IR Inten    --      1.9872                 8.5618                12.5676

                     10                     11                     12
                      A                      A                      A
 Frequencies --    342.1256               381.6752               387.2007
 Red. masses --      2.2267                 2.3789                 2.2657
 Frc consts  --      0.1536                 0.2042                 0.2001
 IR Inten    --      2.5924                 1.6799                18.0740

                     13                     14                     15
                      A                      A                      A
 Frequencies --    440.6699               515.4037               550.6721
 Red. masses --      2.6245                 2.5624                 2.4792
 Frc consts  --      0.3003                 0.4010                 0.4429
 IR Inten    --     10.4852                 8.3464                 2.4189

                     16                     17                     18
                      A                      A                      A
 Frequencies --    596.7764               639.8310               699.2775
 Red. masses --      2.7004                 2.6295                 1.3993
 Frc consts  --      0.5666                 0.6342                 0.4032
 IR Inten    --      4.2928                 0.2141               338.2975

                     19                     20                     21
                      A                      A                      A
 Frequencies --    724.3149               795.0817               820.2630
 Red. masses --      2.1945                 1.3633                 1.7994
 Frc consts  --      0.6783                 0.5078                 0.7133
 IR Inten    --     23.4813                 0.2314                 0.2338

                     22                     23                     24
                      A                      A                      A
 Frequencies --    875.7031               900.0325               903.6052
 Red. masses --      2.8692                 1.4921                 2.1892
 Frc consts  --      1.2963                 0.7122                 1.0532
 IR Inten    --      1.2021                 7.9839                 4.0940

                     25                     26                     27
                      A                      A                      A
 Frequencies --    925.6973               965.4027               999.7946
 Red. masses --      1.8616                 1.6049                 1.7323
 Frc consts  --      0.9399                 0.8813                 1.0202
 IR Inten    --      0.7492                 0.2033                 1.6977

                     28                     29                     30
                      A                      A                      A
 Frequencies --   1004.3765              1049.0603              1061.4346
 Red. masses --      1.6300                 1.9658                 1.5450
 Frc consts  --      0.9688                 1.2747                 1.0256
 IR Inten    --      0.3885                 0.0975                 1.4451

                     31                     32                     33
                      A                      A                      A
 Frequencies --   1069.3101              1078.0151              1117.1798
 Red. masses --      1.5635                 1.4444                 1.7964
 Frc consts  --      1.0533                 0.9890                 1.3210
 IR Inten    --      2.5567                 3.7045                 4.8783

                     34                     35                     36
                      A                      A                      A
 Frequencies --   1143.1841              1173.3097              1197.9412
 Red. masses --      1.7263                 2.3116                 2.1400
 Frc consts  --      1.3292                 1.8749                 1.8094
 IR Inten    --      0.8539                35.4961                16.9343

                     37                     38                     39
                      A                      A                      A
 Frequencies --   1234.9832              1247.4550              1268.4340
 Red. masses --      1.5031                 1.6051                 1.7031
 Frc consts  --      1.3507                 1.4716                 1.6144
 IR Inten    --      0.3247                 2.4102                10.2016

                     40                     41                     42
                      A                      A                      A
 Frequencies --   1283.4987              1317.7487              1327.7427
 Red. masses --      1.4246                 1.8264                 1.3244
 Frc consts  --      1.3828                 1.8686                 1.3756
 IR Inten    --      7.3671                 8.1236                 0.0915

                     43                     44                     45
                      A                      A                      A
 Frequencies --   1357.3934              1367.2181              1374.6643
 Red. masses --      1.5343                 1.4467                 1.5068
 Frc consts  --      1.6657                 1.5933                 1.6777
 IR Inten    --      1.8967                 2.6370                 0.1613

                     46                     47                     48
                      A                      A                      A
 Frequencies --   1408.2478              1435.2577              1444.6631
 Red. masses --      1.2851                 1.2502                 1.2719
 Frc consts  --      1.5015                 1.5174                 1.5640
 IR Inten    --      2.1961                 3.9085                 2.0297

                     49                     50                     51
                      A                      A                      A
 Frequencies --   1511.9547              1517.4330              1519.1076
 Red. masses --      1.0724                 1.0755                 1.0509
 Frc consts  --      1.4444                 1.4590                 1.4288
 IR Inten    --      0.0884                 1.2820                 0.4248

                     52                     53                     54
                      A                      A                      A
 Frequencies --   1528.1998              1529.9335              1534.3213
 Red. masses --      1.0702                 1.0768                 1.0551
 Frc consts  --      1.4726                 1.4850                 1.4634
 IR Inten    --      6.5309                 3.3627                 3.3428

                     55                     56                     57
                      A                      A                      A
 Frequencies --   1536.7777              1552.6449              1684.3183
 Red. masses --      1.0653                 1.1001                 1.1764
 Frc consts  --      1.4823                 1.5626                 1.9663
 IR Inten    --      3.8053                 5.9301                25.6494

                     58                     59                     60
                      A                      A                      A
 Frequencies --   1751.1822              3015.9522              3035.7731
 Red. masses --      4.5394                 1.0429                 1.0641
 Frc consts  --      8.2018                 5.5894                 5.7781
 IR Inten    --     91.8889                38.7851                17.9453

                     61                     62                     63
                      A                      A                      A
 Frequencies --   3041.4142              3053.5402              3056.2425
 Red. masses --      1.0423                 1.0673                 1.0980
 Frc consts  --      5.6808                 5.8631                 6.0426
 IR Inten    --     28.2577                33.6231                50.2240

                     64                     65                     66
                      A                      A                      A
 Frequencies --   3062.0809              3072.2197              3089.1811
 Red. masses --      1.0606                 1.0634                 1.1000
 Frc consts  --      5.8593                 5.9137                 6.1848
 IR Inten    --     34.3149                44.2608                21.0658

                     67                     68                     69
                      A                      A                      A
 Frequencies --   3099.1162              3103.4987              3107.0172
 Red. masses --      1.0946                 1.1011                 1.1015
 Frc consts  --      6.1939                 6.2485                 6.2650
 IR Inten    --     10.4080                19.3581                20.6583

                     70                     71                     72
                      A                      A                      A
 Frequencies --   3115.4002              3117.6024              3126.4025
 Red. masses --      1.1011                 1.1053                 1.0934
 Frc consts  --      6.2968                 6.3293                 6.2968
 IR Inten    --     17.2470               126.3504                28.8890

                     73                     74                     75
                      A                      A                      A
 Frequencies --   3218.8408              3529.2716              3628.4556
 Red. masses --      1.0888                 1.0475                 1.0971
 Frc consts  --      6.6463                 7.6875                 8.5101
 IR Inten    --     13.0662                 2.6236                 3.5920

 - Thermochemistry -
 -------------------
 Temperature   298.150 Kelvin.  Pressure   1.00000 Atm.
 Atom     1 has atomic number  6 and mass  12.00000

 Molecular mass:   139.13610 amu.
 Principal axes and moments of inertia in atomic units:
                           1         2         3
     Eigenvalues --  1050.681671677.535722004.47855
           X            0.99978  -0.01086  -0.01772
           Y            0.01093   0.99993   0.00392
           Z            0.01767  -0.00411   0.99984
 This molecule is an asymmetric top.
 Rotational symmetry number  1.
 Warning -- assumption of classical behavior for rotation
           may cause significant error
 Rotational temperatures (Kelvin)      0.08244     0.05163     0.04321
 Rotational constants (GHZ):           1.71769     1.07583     0.90035
 Zero-point vibrational energy     653751.9 (Joules/Mol)
                                  156.25046 (Kcal/Mol)
 Warning -- explicit consideration of  16 degrees of freedom as
           vibrations may cause significant error
 Vibrational temperatures:     74.42   140.51   183.27   216.00   327.53
          (Kelvin)            350.20   372.13   409.24   424.78   492.24
                              549.15   557.10   634.03   741.55   792.29
                              858.63   920.57  1006.10  1042.13  1143.95
                             1180.18  1259.94  1294.95  1300.09  1331.87
                             1389.00  1438.48  1445.07  1509.36  1527.17
                             1538.50  1551.02  1607.37  1644.79  1688.13
                             1723.57  1776.87  1794.81  1824.99  1846.67
                             1895.95  1910.33  1952.99  1967.12  1977.84
                             2026.15  2065.02  2078.55  2175.37  2183.25
                             2185.66  2198.74  2201.23  2207.55  2211.08
                             2233.91  2423.36  2519.56  4339.28  4367.80
                             4375.92  4393.36  4397.25  4405.65  4420.24
                             4444.64  4458.94  4465.24  4470.30  4482.37
                             4485.53  4498.20  4631.19  5077.83  5220.54

 Zero-point correction=                           0.249001 (Hartree/Particle)
 Thermal correction to Energy=                    0.260132
 Thermal correction to Enthalpy=                  0.261076
 Thermal correction to Gibbs Free Energy=         0.212928
 Sum of electronic and zero-point Energies=           -407.725821
 Sum of electronic and thermal Energies=              -407.714689
 Sum of electronic and thermal Enthalpies=            -407.713745
 Sum of electronic and thermal Free Energies=         -407.761893

                     E (Thermal)             CV                S
                      KCal/Mol        Cal/Mol-Kelvin    Cal/Mol-Kelvin
 Total                  163.235             43.195            101.336
 Electronic               0.000              0.000              0.000
 Translational            0.889              2.981             40.703
 Rotational               0.889              2.981             29.648
 Vibrational            161.458             37.234             30.986
 Vibration     1          0.596              1.977              4.750
 Vibration     2          0.603              1.951              3.501
 Vibration     3          0.611              1.926              2.985
 Vibration     4          0.618              1.903              2.671
 Vibration     5          0.651              1.799              1.897
 Vibration     6          0.659              1.774              1.778
 Vibration     7          0.667              1.748              1.671
 Vibration     8          0.683              1.703              1.507
 Vibration     9          0.689              1.683              1.444
 Vibration    10          0.721              1.591              1.202
 Vibration    11          0.751              1.509              1.033
 Vibration    12          0.756              1.498              1.011
 Vibration    13          0.801              1.381              0.825
 Vibration    14          0.870              1.216              0.621
 Vibration    15          0.906              1.138              0.543
 Vibration    16          0.955              1.039              0.455

 Optimization completed.
    -- Stationary point found.

 1\1\GINC-NODE105\Freq\RB3LYP\6-31G(d)\C9H17N1\VSC10255\08-Dec-2020\0\\
 #N Geom=AllCheck Guess=TCheck SCRF=Check GenChk RB3LYP/6-31G(d) Freq\\
 CID_145387734_JID_837_neutraal\\0,1\C,1.1470527188,0.0200145799,-0.035
 9138941\C,0.6644545918,-1.3222975209,0.473626458\C,0.3325191854,-2.282
 886865,-0.4063232693\N,0.4660076727,-2.2063538909,-1.8003248643\C,0.61
 9862362,-1.5227019517,1.9889438956\C,0.0693857068,-2.9033708386,2.4187
 041037\C,-1.4735659236,-2.8111372384,2.3214677225\C,-1.7925204083,-1.2
 903372009,2.2840672125\C,-0.4603227194,-0.5977512344,2.6148501525\C,2.

 Normal termination of Gaussian 16 at Tue Dec  8 13:23:42 2020.

 ----------------------------------------------------------------------
 # B3LYP/6-311++G(d,p) empiricaldispersion=gd3bj scf=xqc pop=npa geom=c
 heck
 ----------------------------------------------------------------------

 --------------------------------------
 CID_145387734_JID_837_Energie_neutraal
 --------------------------------------
 Structure from the checkpoint file:  "JID_837.chk"
 Charge =  0 Multiplicity = 1

 SCF Done:  E(RB3LYP) =  -408.095052891     A.U. after   14 cycles
 Normal termination of Gaussian 16 at Tue Dec  8 13:27:23 2020.

 ----------------------------------------------------------------------
 # B3LYP/6-311++G(d,p) empiricaldispersion=gd3bj scf=xqc pop=npa geom=c
 heck
 ----------------------------------------------------------------------

 ------------------------------------
 CID_145387734_JID_837_Energie_kation
 ------------------------------------
 Structure from the checkpoint file:  "JID_837.chk"
 Charge =  1 Multiplicity = 2

 SCF Done:  E(UB3LYP) =  -407.820322311     A.U. after   19 cycles
 Normal termination of Gaussian 16 at Tue Dec  8 13:34:25 2020.
 Gaussian 16:  ES64L-G16RevA.03 25-Dec-2016

 -----------------------------------
 CID_145387734_JID_837_Energie_anion
 -----------------------------------
 Structure from the checkpoint file:  "JID_837.chk"
 Charge = -1 Multiplicity = 2

                         Standard orientation:
 ---------------------------------------------------------------------
 Center     Atomic      Atomic             Coordinates (Angstroms)
 Number     Number       Type             X           Y           Z
 ---------------------------------------------------------------------
      1          6           0       -1.665422    1.248579    0.927960
      2          6           0       -0.905916    0.282547    0.042373
      3          6           0       -1.530345   -0.808843   -0.433211
      4          7           0       -2.885991   -1.124246   -0.260986
      5          6           0        0.543284    0.633130   -0.297107
      6          6           0        1.254951   -0.432068   -1.164776
      7          6           0        1.687699   -1.565595   -0.202223
      8          6           0        1.630154   -0.941020    1.219944
      9          6           0        1.419951    0.563603    0.983796
     10          6           0        0.601634    2.015456   -0.969299
     11          1           0       -2.270360    0.725499    1.682718
     12          1           0       -2.352804    1.886012    0.354093
     13          1           0       -0.993638    1.914991    1.475694
     14          1           0       -1.017090   -1.516235   -1.075220
     15          1           0       -3.070045   -2.119507   -0.206429
     16          1           0       -3.337620   -0.637881    0.505389
     17          1           0        0.648013   -0.775892   -2.007931
     18          1           0        2.145794    0.037088   -1.599448
     19          1           0        2.693947   -1.921110   -0.447722
     20          1           0        1.023235   -2.432699   -0.272790
     21          1           0        2.528302   -1.149924    1.810142
     22          1           0        0.776233   -1.346315    1.772258
     23          1           0        2.381001    1.055322    0.779646
     24          1           0        0.975338    1.072050    1.845378
     25          1           0        1.640177    2.299409   -1.179080
     26          1           0        0.050296    2.007424   -1.916594
     27          1           0        0.165224    2.796763   -0.337949
 ---------------------------------------------------------------------

 SCF Done:  E(UB3LYP) =  -408.079225475     A.U. after   33 cycles
 SCF Done:  E(UB3LYP) =  -408.079225475     a.u. after    1 cycles

 The electronic state is 2-A.
 Alpha  occ. eigenvalues --  -14.19469 -10.07377 -10.07294 -10.05477 -10.05409
 Alpha  occ. eigenvalues --  -10.05202 -10.05175 -10.05118 -10.04865 -10.04295
 Alpha  occ. eigenvalues --   -0.78817  -0.73906  -0.66157  -0.62088  -0.60170
 Alpha  occ. eigenvalues --   -0.56359  -0.54227  -0.46968  -0.45699  -0.42341
 Alpha  occ. eigenvalues --   -0.39087  -0.36357  -0.35819  -0.34371  -0.32439
 Alpha  occ. eigenvalues --   -0.31058  -0.30074  -0.28806  -0.27450  -0.26457
 Alpha  occ. eigenvalues --   -0.25724  -0.23083  -0.22876  -0.22394  -0.21670
 Alpha  occ. eigenvalues --   -0.20934  -0.20365  -0.19895  -0.08543   0.04822
 Alpha virt. eigenvalues --    0.06924   0.07695   0.08449   0.09537   0.09710
 Alpha virt. eigenvalues --    0.10515   0.10685   0.10911   0.12254   0.12794
 Alpha virt. eigenvalues --    0.13326   0.13623   0.13772   0.14664   0.14910

  Beta  occ. eigenvalues --  -14.19404 -10.07362 -10.07294 -10.05463 -10.05400
  Beta  occ. eigenvalues --  -10.05185 -10.05159 -10.05103 -10.04820 -10.04296
  Beta  occ. eigenvalues --   -0.78719  -0.73885  -0.66119  -0.62045  -0.60136
  Beta  occ. eigenvalues --   -0.56283  -0.54177  -0.46911  -0.45650  -0.42289
  Beta  occ. eigenvalues --   -0.39036  -0.36321  -0.35749  -0.34316  -0.32408
  Beta  occ. eigenvalues --   -0.31017  -0.30046  -0.28775  -0.27411  -0.26431
  Beta  occ. eigenvalues --   -0.25685  -0.23057  -0.22846  -0.22367  -0.21631
  Beta  occ. eigenvalues --   -0.20906  -0.20332  -0.19873  -0.08507
  Beta virt. eigenvalues --    0.07018   0.08059   0.08365   0.08941   0.10206
  Beta virt. eigenvalues --    0.10432   0.10746   0.10903   0.11270   0.12879
  Beta virt. eigenvalues --    0.13205   0.13664   0.13966   0.14112   0.14949

 Mulliken charges and spin densities:
               1          2
     1  C    2.582266  -3.159972
     2  C    0.443043  -0.112720
     3  C   -0.781222  -0.020318
     4  N   -0.307672   0.047553
     5  C   -0.907800   1.702954
     6  C    0.303308  -0.735973
     7  C   -0.092696  -0.341637
     8  C   -0.080209  -0.338761
     9  C   -0.068198  -0.367465
    10  C   -0.200807  -0.269162
    11  H   -0.428324   0.571011
    12  H   -0.157507   0.340730
    13  H   -0.007186   0.130936
    14  H   -0.043502   0.246783
    15  H   -0.625572   0.879772
    16  H   -0.101327   0.333291
    17  H    0.032528   0.107771
    18  H    0.043167   0.106379
    19  H   -0.110389   0.236841
    20  H   -0.102850   0.246115
    21  H   -0.191169   0.345490
    22  H    0.093447   0.060894
    23  H   -0.031390   0.168038
    24  H   -0.180473   0.321891
    25  H   -0.093568   0.227308
    26  H    0.064649   0.080838
    27  H   -0.050545   0.191413
 Sum of Mulliken charges =  -1.00000   1.00000

 Dipole moment (field-independent basis, Debye):
    X=              4.8400    Y=              2.3743    Z=             -1.8603  Tot=              5.7029
 Quadrupole moment (field-independent basis, Debye-Ang):
   XX=           -124.1935   YY=           -107.0735   ZZ=            -96.3710
   XY=             -8.7687   XZ=              2.1195   YZ=             -1.4619

 Summary of Natural Population Analysis:

                                       Natural Population
                Natural  -----------------------------------------------
    Atom  No    Charge         Core      Valence    Rydberg      Total
 -----------------------------------------------------------------------
      C    1   -0.30312      0.99963     2.29541    0.00809     3.30312
      C    2   -0.06035      0.99945     2.04561    0.01529     3.06035
      C    3    0.00877      0.99942     1.97928    0.01253     2.99123
      N    4   -0.40271      0.99974     2.89148    0.01148     3.90271
      C    5   -0.04474      0.99953     2.03141    0.01379     3.04474
      C    6   -0.18844      0.99960     2.18071    0.00812     3.18844
      C    7   -0.19327      0.99965     2.18597    0.00765     3.19327
      C    8   -0.19322      0.99964     2.18602    0.00757     3.19322
      C    9   -0.18624      0.99959     2.17718    0.00947     3.18624
      C   10   -0.27952      0.99962     2.27406    0.00585     3.27952
      H   11    0.10084      0.00000     0.39749    0.00167     0.39916
      H   12    0.10122      0.00000     0.39764    0.00115     0.39878
      H   13    0.10179      0.00000     0.39695    0.00126     0.39821
      H   14    0.09128      0.00000     0.40709    0.00163     0.40872
      H   15    0.18780      0.00000     0.30432    0.00789     0.31220
      H   16    0.18457      0.00000     0.31185    0.00357     0.31543
      H   17    0.10147      0.00000     0.39731    0.00122     0.39853
      H   18    0.09575      0.00000     0.40297    0.00128     0.40425
      H   19    0.09408      0.00000     0.40485    0.00107     0.40592
      H   20    0.09871      0.00000     0.39989    0.00140     0.40129
      H   21    0.09561      0.00000     0.40337    0.00102     0.40439
      H   22    0.10063      0.00000     0.39772    0.00166     0.39937
      H   23    0.09257      0.00000     0.40616    0.00127     0.40743
      H   24    0.10176      0.00000     0.39718    0.00107     0.39824
      H   25    0.09516      0.00000     0.40379    0.00105     0.40484
      H   26    0.09954      0.00000     0.39947    0.00099     0.40046
      H   27    0.10008      0.00000     0.39899    0.00094     0.39992
 =======================================================================
   * Total *   -0.00000      9.99587    28.87415    0.12997    39.00000

 Normal termination of Gaussian 16 at Tue Dec  8 13:45:42 2020.
