 Gaussian 16, Revision A.03,

 -----------------------------------------------------------
 # opt freq B3LYP/6-31G(d) empiricaldispersion=gd3bj scf=xqc
 -----------------------------------------------------------

 ------------------------------
 CID_63273709_JID_5511_neutraal
 ------------------------------
 Symbolic Z-matrix:
 Charge =  0 Multiplicity = 1

 SCF Done:  E(RB3LYP) =  -672.542799508     A.U. after   14 cycles
 SCF Done:  E(RB3LYP) =  -672.548361841     A.U. after   12 cycles
 SCF Done:  E(RB3LYP) =  -672.548731110     A.U. after   12 cycles
 SCF Done:  E(RB3LYP) =  -672.549850858     A.U. after   12 cycles
 SCF Done:  E(RB3LYP) =  -672.550220808     A.U. after   11 cycles
 SCF Done:  E(RB3LYP) =  -672.550298311     A.U. after   11 cycles
 SCF Done:  E(RB3LYP) =  -672.550526393     A.U. after   11 cycles
 SCF Done:  E(RB3LYP) =  -672.550676121     A.U. after   11 cycles
 SCF Done:  E(RB3LYP) =  -672.550749145     A.U. after   10 cycles
 SCF Done:  E(RB3LYP) =  -672.550794867     A.U. after   10 cycles
 SCF Done:  E(RB3LYP) =  -672.550894290     A.U. after    8 cycles
 SCF Done:  E(RB3LYP) =  -672.550894404     A.U. after    7 cycles
 SCF Done:  E(RB3LYP) =  -672.550894532     A.U. after    8 cycles
 SCF Done:  E(RB3LYP) =  -672.550894654     A.U. after    7 cycles
 SCF Done:  E(RB3LYP) =  -672.550894687     A.U. after    7 cycles
 SCF Done:  E(RB3LYP) =  -672.550894683     A.U. after    6 cycles
 Optimization completed.
    -- Stationary point found.
 Normal termination of Gaussian 16 at Thu Dec 10 17:00:25 2020.

 --------------------------------------------------------------------
 #N Geom=AllCheck Guess=TCheck SCRF=Check GenChk RB3LYP/6-31G(d) Freq
 --------------------------------------------------------------------

 Structure from the checkpoint file:  "JID_5511.chk"
 ------------------------------
 CID_63273709_JID_5511_neutraal
 ------------------------------
 Charge =  0 Multiplicity = 1

 SCF Done:  E(RB3LYP) =  -672.550894683     A.U. after    1 cycles

  Exact polarizability: 145.253   2.338 132.801  -3.634   2.521 128.127
 Approx polarizability: 190.783   6.712 182.149  -7.885   9.281 199.689

                      1                      2                      3
                      A                      A                      A
 Frequencies --     18.0934                36.1458                42.9581
 Red. masses --      3.1296                 3.3020                 4.3169
 Frc consts  --      0.0006                 0.0025                 0.0047
 IR Inten    --      1.8124                 0.8540                 1.4336

                      4                      5                      6
                      A                      A                      A
 Frequencies --     80.7353               105.0681               109.6981
 Red. masses --      2.5788                 1.9240                 3.6019
 Frc consts  --      0.0099                 0.0125                 0.0255
 IR Inten    --      0.1180                 0.3483                 3.5088

                      7                      8                      9
                      A                      A                      A
 Frequencies --    122.3805               161.6217               164.1171
 Red. masses --      1.5078                 2.6430                 2.2919
 Frc consts  --      0.0133                 0.0407                 0.0364
 IR Inten    --      0.1003                 2.1781                 1.3108

                     10                     11                     12
                      A                      A                      A
 Frequencies --    177.3000               192.4023               221.0881
 Red. masses --      2.4416                 2.0972                 1.8329
 Frc consts  --      0.0452                 0.0457                 0.0528
 IR Inten    --      6.1186                 1.2864                 1.0713

                     13                     14                     15
                      A                      A                      A
 Frequencies --    231.4926               268.9627               287.0708
 Red. masses --      2.2375                 1.1122                 3.1823
 Frc consts  --      0.0706                 0.0474                 0.1545
 IR Inten    --      0.6048                 1.5309                 4.9017

                     16                     17                     18
                      A                      A                      A
 Frequencies --    330.9744               367.7527               374.7478
 Red. masses --      2.6861                 2.3196                 2.3357
 Frc consts  --      0.1734                 0.1848                 0.1933
 IR Inten    --      6.8505                 0.6683                 6.1495

                     19                     20                     21
                      A                      A                      A
 Frequencies --    387.8998               433.3893               463.1994
 Red. masses --      1.9824                 2.6861                 2.0468
 Frc consts  --      0.1757                 0.2973                 0.2587
 IR Inten    --      3.9489                 4.9504                 1.0259

                     22                     23                     24
                      A                      A                      A
 Frequencies --    467.2586               538.6269               579.7843
 Red. masses --      2.3343                 3.0589                 4.2504
 Frc consts  --      0.3003                 0.5229                 0.8418
 IR Inten    --      5.1211                 6.1305                 7.3218

                     25                     26                     27
                      A                      A                      A
 Frequencies --    606.9343               619.6168               721.6077
 Red. masses --      3.3701                 3.6487                 2.5424
 Frc consts  --      0.7314                 0.8254                 0.7800
 IR Inten    --      1.1358                 1.8208                77.4555

                     28                     29                     30
                      A                      A                      A
 Frequencies --    739.8722               770.4505               802.4235
 Red. masses --      1.8053                 2.7960                 1.6235
 Frc consts  --      0.5822                 0.9779                 0.6159
 IR Inten    --     30.3802                20.9823                 1.6999

                     31                     32                     33
                      A                      A                      A
 Frequencies --    859.9686               866.6134               884.8493
 Red. masses --      2.3397                 2.6647                 2.2463
 Frc consts  --      1.0195                 1.1791                 1.0362
 IR Inten    --      3.6480                 4.4324                12.2337

                     34                     35                     36
                      A                      A                      A
 Frequencies --    909.0961               933.8727               979.4913
 Red. masses --      2.5877                 2.3458                 2.0706
 Frc consts  --      1.2600                 1.2054                 1.1705
 IR Inten    --     14.3101                 7.6277                 4.5764

                     37                     38                     39
                      A                      A                      A
 Frequencies --    992.7024              1009.6161              1020.3318
 Red. masses --      2.1596                 1.8007                 1.6921
 Frc consts  --      1.2539                 1.0814                 1.0379
 IR Inten    --      2.4642                 0.8188                 4.2377

                     40                     41                     42
                      A                      A                      A
 Frequencies --   1048.1667              1056.5983              1084.8957
 Red. masses --      1.9268                 2.1991                 2.1808
 Frc consts  --      1.2472                 1.4465                 1.5123
 IR Inten    --     11.9595                10.0806                 4.3333

                     43                     44                     45
                      A                      A                      A
 Frequencies --   1105.6898              1118.7428              1124.8951
 Red. masses --      1.7361                 1.7508                 1.8251
 Frc consts  --      1.2505                 1.2910                 1.3607
 IR Inten    --     15.9121                 9.9394                25.6879

                     46                     47                     48
                      A                      A                      A
 Frequencies --   1149.3604              1156.5824              1160.6047
 Red. masses --      1.2813                 1.3398                 1.3567
 Frc consts  --      0.9972                 1.0560                 1.0767
 IR Inten    --      1.3273                 7.5066                 1.1493

                     49                     50                     51
                      A                      A                      A
 Frequencies --   1172.6082              1192.0578              1200.0966
 Red. masses --      1.9674                 1.8749                 2.2370
 Frc consts  --      1.5938                 1.5697                 1.8983
 IR Inten    --     50.3501                42.0309                 8.7328

                     52                     53                     54
                      A                      A                      A
 Frequencies --   1224.2511              1230.2117              1240.6724
 Red. masses --      1.4145                 1.7660                 1.3688
 Frc consts  --      1.2491                 1.5747                 1.2413
 IR Inten    --      1.2642                37.8315                 0.2377

                     55                     56                     57
                      A                      A                      A
 Frequencies --   1260.7932              1282.6488              1303.0002
 Red. masses --      1.7089                 1.8893                 1.6302
 Frc consts  --      1.6005                 1.8313                 1.6308
 IR Inten    --      2.2448                13.3039                33.5121

                     58                     59                     60
                      A                      A                      A
 Frequencies --   1309.2634              1323.2168              1337.5502
 Red. masses --      1.6225                 1.5639                 1.3546
 Frc consts  --      1.6387                 1.6134                 1.4278
 IR Inten    --     11.0033                35.9436                30.0019

                     61                     62                     63
                      A                      A                      A
 Frequencies --   1340.8938              1357.1935              1375.1478
 Red. masses --      1.4999                 1.3346                 1.3551
 Frc consts  --      1.5889                 1.4484                 1.5098
 IR Inten    --      5.6032                 6.0780                 7.1914

                     64                     65                     66
                      A                      A                      A
 Frequencies --   1394.7730              1397.3691              1406.8866
 Red. masses --      1.4776                 1.2473                 1.4264
 Frc consts  --      1.6936                 1.4350                 1.6634
 IR Inten    --     13.7705                17.7989                20.9442

                     67                     68                     69
                      A                      A                      A
 Frequencies --   1431.6448              1436.8342              1480.2327
 Red. masses --      1.4375                 1.9411                 1.1722
 Frc consts  --      1.7360                 2.3611                 1.5132
 IR Inten    --     18.8247                75.4868                 2.8429

                     70                     71                     72
                      A                      A                      A
 Frequencies --   1481.7956              1494.2142              1507.0514
 Red. masses --      1.1723                 1.1671                 1.1158
 Frc consts  --      1.5166                 1.5353                 1.4931
 IR Inten    --      1.2991                11.7219                 5.2783

                     73                     74                     75
                      A                      A                      A
 Frequencies --   1513.8138              1514.7953              1517.0741
 Red. masses --      1.1333                 1.0946                 1.0479
 Frc consts  --      1.5302                 1.4799                 1.4210
 IR Inten    --      5.2760                19.8754                13.5291

                     76                     77                     78
                      A                      A                      A
 Frequencies --   1519.8853              1525.1391              1528.1383
 Red. masses --      1.1387                 1.1656                 1.0665
 Frc consts  --      1.5499                 1.5974                 1.4673
 IR Inten    --      4.1922                19.7924                 3.9813

                     79                     80                     81
                      A                      A                      A
 Frequencies --   1529.5755              1539.1828              1539.6976
 Red. masses --      1.0784                 1.0786                 1.0811
 Frc consts  --      1.4866                 1.5056                 1.5100
 IR Inten    --      7.4005                 4.8219                 3.6123

                     82                     83                     84
                      A                      A                      A
 Frequencies --   1551.9080              1552.1284              1561.1853
 Red. masses --      1.0624                 1.0912                 1.1039
 Frc consts  --      1.5076                 1.5488                 1.5852
 IR Inten    --      4.6134                47.3892                 4.1378

                     85                     86                     87
                      A                      A                      A
 Frequencies --   1742.3454              2908.3809              2911.2143
 Red. masses --      9.2748                 1.0685                 1.0693
 Frc consts  --     16.5890                 5.3250                 5.3395
 IR Inten    --    213.5839                32.7283                25.1731

                     88                     89                     90
                      A                      A                      A
 Frequencies --   2926.7398              2948.5172              3047.1882
 Red. masses --      1.0704                 1.0616                 1.0748
 Frc consts  --      5.4019                 5.4377                 5.8798
 IR Inten    --    202.8982                84.4908                 2.0181

                     91                     92                     93
                      A                      A                      A
 Frequencies --   3050.0916              3059.4322              3062.4135
 Red. masses --      1.0494                 1.0608                 1.0728
 Frc consts  --      5.7521                 5.8502                 5.9277
 IR Inten    --     46.7408                33.7262                30.5345

                     94                     95                     96
                      A                      A                      A
 Frequencies --   3068.0862              3072.7760              3076.0883
 Red. masses --      1.0708                 1.0825                 1.0739
 Frc consts  --      5.9388                 6.0217                 5.9869
 IR Inten    --     57.7539                38.0153                79.2780

                     97                     98                     99
                      A                      A                      A
 Frequencies --   3079.1205              3087.5599              3095.5787
 Red. masses --      1.0821                 1.0620                 1.0721
 Frc consts  --      6.0444                 5.9651                 6.0528
 IR Inten    --     41.7545                16.6200                51.8259

                    100                    101                    102
                      A                      A                      A
 Frequencies --   3107.3695              3117.4867              3119.7235
 Red. masses --      1.1053                 1.1022                 1.1032
 Frc consts  --      6.2879                 6.3112                 6.3259
 IR Inten    --     14.6053                27.6327                31.6486

                    103                    104                    105
                      A                      A                      A
 Frequencies --   3120.1061              3139.6445              3140.7486
 Red. masses --      1.0976                 1.0980                 1.1005
 Frc consts  --      6.2957                 6.3770                 6.3958
 IR Inten    --     15.9823                 4.0502                31.9722

                    106                    107                    108
                      A                      A                      A
 Frequencies --   3155.1087              3161.0234              3518.0512
 Red. masses --      1.0985                 1.1004                 1.0737
 Frc consts  --      6.4428                 6.4783                 7.8294
 IR Inten    --      5.9951                14.2352                 2.9409

 - Thermochemistry -
 -------------------
 Temperature   298.150 Kelvin.  Pressure   1.00000 Atm.
 Atom     1 has atomic number  6 and mass  12.00000

 Molecular mass:   213.18411 amu.
 Principal axes and moments of inertia in atomic units:
                           1         2         3
     Eigenvalues --  2427.646793924.939624791.17615
           X            0.99985   0.01457   0.00905
           Y           -0.01458   0.99989   0.00159
           Z           -0.00902  -0.00172   0.99996
 This molecule is an asymmetric top.
 Rotational symmetry number  1.
 Warning -- assumption of classical behavior for rotation
           may cause significant error
 Rotational temperatures (Kelvin)      0.03568     0.02207     0.01808
 Rotational constants (GHZ):           0.74341     0.45981     0.37668
 Zero-point vibrational energy     910199.5 (Joules/Mol)
                                  217.54291 (Kcal/Mol)
 Warning -- explicit consideration of  26 degrees of freedom as
           vibrations may cause significant error
 Vibrational temperatures:     26.03    52.01    61.81   116.16   151.17
          (Kelvin)            157.83   176.08   232.54   236.13   255.10
                              276.82   318.10   333.07   386.98   413.03
                              476.20   529.11   539.18   558.10   623.55
                              666.44   672.28   774.96   834.18   873.24
                              891.49  1038.23  1064.51  1108.51  1154.51
                             1237.30  1246.86  1273.10  1307.99  1343.63
                             1409.27  1428.28  1452.61  1468.03  1508.08
                             1520.21  1560.92  1590.84  1609.62  1618.47
                             1653.67  1664.06  1669.85  1687.12  1715.11
                             1726.67  1761.42  1770.00  1785.05  1814.00
                             1845.45  1874.73  1883.74  1903.81  1924.44
                             1929.25  1952.70  1978.53  2006.77  2010.50
                             2024.20  2059.82  2067.28  2129.72  2131.97
                             2149.84  2168.31  2178.04  2179.45  2182.73
                             2186.78  2194.34  2198.65  2200.72  2214.54
                             2215.28  2232.85  2233.17  2246.20  2506.85
                             4184.51  4188.59  4210.93  4242.26  4384.22
                             4388.40  4401.84  4406.13  4414.29  4421.04
                             4425.80  4430.17  4442.31  4453.85  4470.81
                             4485.37  4488.59  4489.14  4517.25  4518.84
                             4539.50  4548.01  5061.69

 Zero-point correction=                           0.346677 (Hartree/Particle)
 Thermal correction to Energy=                    0.363531
 Thermal correction to Enthalpy=                  0.364475
 Thermal correction to Gibbs Free Energy=         0.300962
 Sum of electronic and zero-point Energies=           -672.204218
 Sum of electronic and thermal Energies=              -672.187364
 Sum of electronic and thermal Enthalpies=            -672.186420
 Sum of electronic and thermal Free Energies=         -672.249933

                     E (Thermal)             CV                S
                      KCal/Mol        Cal/Mol-Kelvin    Cal/Mol-Kelvin
 Total                  228.119             62.196            133.674
 Electronic               0.000              0.000              0.000
 Translational            0.889              2.981             41.974
 Rotational               0.889              2.981             32.190
 Vibrational            226.341             56.235             59.509
 Vibration     1          0.593              1.986              6.833
 Vibration     2          0.594              1.982              5.460
 Vibration     3          0.595              1.980              5.118
 Vibration     4          0.600              1.962              3.873
 Vibration     5          0.605              1.945              3.358
 Vibration     6          0.606              1.941              3.274
 Vibration     7          0.610              1.930              3.062
 Vibration     8          0.622              1.889              2.531
 Vibration     9          0.623              1.887              2.502
 Vibration    10          0.628              1.870              2.357
 Vibration    11          0.634              1.850              2.205
 Vibration    12          0.648              1.809              1.950
 Vibration    13          0.653              1.793              1.867
 Vibration    14          0.673              1.730              1.603
 Vibration    15          0.684              1.698              1.491
 Vibration    16          0.713              1.614              1.255
 Vibration    17          0.740              1.539              1.089
 Vibration    18          0.746              1.524              1.060
 Vibration    19          0.756              1.496              1.008
 Vibration    20          0.794              1.397              0.848
 Vibration    21          0.821              1.332              0.757
 Vibration    22          0.825              1.323              0.745
 Vibration    23          0.894              1.165              0.568
 Vibration    24          0.936              1.075              0.486
 Vibration    25          0.966              1.017              0.438
 Vibration    26          0.980              0.990              0.417

 Optimization completed.
    -- Stationary point found.
 Normal termination of Gaussian 16 at Thu Dec 10 17:17:08 2020.

 ----------------------------------------------------------------------
 # B3LYP/6-311++G(d,p) empiricaldispersion=gd3bj scf=xqc pop=npa geom=c
 heck
 ----------------------------------------------------------------------

 --------------------------------------
 CID_63273709_JID_5511_Energie_neutraal
 --------------------------------------
 Structure from the checkpoint file:  "JID_5511.chk"
 Charge =  0 Multiplicity = 1

 SCF Done:  E(RB3LYP) =  -672.743394807     A.U. after   14 cycles
 Normal termination of Gaussian 16 at Thu Dec 10 17:25:09 2020.

 ----------------------------------------------------------------------
 # B3LYP/6-311++G(d,p) empiricaldispersion=gd3bj scf=xqc pop=npa geom=c
 heck
 ----------------------------------------------------------------------

 ------------------------------------
 CID_63273709_JID_5511_Energie_kation
 ------------------------------------
 Structure from the checkpoint file:  "JID_5511.chk"
 Charge =  1 Multiplicity = 2

 SCF Done:  E(UB3LYP) =  -672.457849731     A.U. after   24 cycles
 Normal termination of Gaussian 16 at Thu Dec 10 17:44:12 2020.
 Gaussian 16:  ES64L-G16RevA.03 25-Dec-2016

 ----------------------------------------------------------------------
 # B3LYP/6-311++G(d,p) empiricaldispersion=gd3bj scf=xqc pop=npa geom=c
 heck
 ----------------------------------------------------------------------

 -----------------------------------
 CID_63273709_JID_5511_Energie_anion
 -----------------------------------
 Structure from the checkpoint file:  "JID_5511.chk"
 Charge = -1 Multiplicity = 2

                         Standard orientation:
 ---------------------------------------------------------------------
 Center     Atomic      Atomic             Coordinates (Angstroms)
 Number     Number       Type             X           Y           Z
 ---------------------------------------------------------------------
      1          6           0        1.569422    2.773712    0.635299
      2          7           0        1.387612    1.941122   -0.543577
      3          6           0        2.551318    1.160064   -0.939713
      4          6           0        2.885411   -0.068771   -0.049914
      5          6           0        1.784440   -1.102775   -0.236178
      6          8           0        1.698137   -1.705928   -1.305882
      7          7           0        0.845354   -1.245723    0.756019
      8          6           0        1.026539   -0.701571    2.100620
      9          6           0       -0.280894   -2.159570    0.523857
     10          6           0       -1.562677   -1.477829    0.023829
     11          6           0       -1.481871   -0.892939   -1.418161
     12          6           0       -2.159195    0.488197   -1.320602
     13          7           0       -2.919219    0.437476   -0.070110
     14          6           0       -2.056002   -0.283585    0.855772
     15          6           0       -3.340925    1.736749    0.408347
     16          1           0        2.302273    3.558848    0.414095
     17          1           0        1.918626    2.247839    1.543704
     18          1           0        0.620216    3.262712    0.877979
     19          1           0        0.579086    1.334947   -0.429144
     20          1           0        2.394707    0.790451   -1.958577
     21          1           0        3.415938    1.833800   -0.962421
     22          1           0        3.812007   -0.523499   -0.413922
     23          1           0        3.042239    0.236862    0.986744
     24          1           0        0.189107   -1.025837    2.719625
     25          1           0        1.950200   -1.066032    2.566131
     26          1           0        1.036782    0.391504    2.108731
     27          1           0        0.045836   -2.896232   -0.212598
     28          1           0       -0.482546   -2.687338    1.463037
     29          1           0       -2.348315   -2.242927    0.044889
     30          1           0       -2.007261   -1.547108   -2.119664
     31          1           0       -0.450197   -0.817134   -1.764344
     32          1           0       -2.824213    0.712149   -2.161866
     33          1           0       -1.394503    1.290996   -1.290185
     34          1           0       -1.200935    0.348299    1.173251
     35          1           0       -2.606247   -0.575278    1.758451
     36          1           0       -3.914684    1.627096    1.335196
     37          1           0       -2.487289    2.417473    0.609164
     38          1           0       -3.985559    2.215608   -0.336492
 ---------------------------------------------------------------------

 SCF Done:  E(UB3LYP) =  -672.732473807     A.U. after   29 cycles

 The electronic state is 2-A.
 Alpha  occ. eigenvalues --  -18.98946 -14.24922 -14.20953 -14.20517 -10.17388
 Alpha  occ. eigenvalues --  -10.10665 -10.10542 -10.10419 -10.09740 -10.09344
 Alpha  occ. eigenvalues --  -10.09292 -10.09085 -10.08266 -10.08095 -10.06893
 Alpha  occ. eigenvalues --   -0.94239  -0.84549  -0.83689  -0.81280  -0.70423
 Alpha  occ. eigenvalues --   -0.67163  -0.64235  -0.62126  -0.60194  -0.58391
 Alpha  occ. eigenvalues --   -0.56327  -0.52216  -0.48695  -0.47950  -0.43924
 Alpha  occ. eigenvalues --   -0.41603  -0.41181  -0.39604  -0.38901  -0.37917
 Alpha  occ. eigenvalues --   -0.37348  -0.34975  -0.34579  -0.34086  -0.33245
 Alpha  occ. eigenvalues --   -0.32468  -0.31846  -0.31287  -0.30437  -0.29912
 Alpha  occ. eigenvalues --   -0.29093  -0.28691  -0.27087  -0.26716  -0.26601
 Alpha  occ. eigenvalues --   -0.26101  -0.25361  -0.24894  -0.23163  -0.22732
 Alpha  occ. eigenvalues --   -0.16162  -0.15106  -0.13280  -0.12678   0.04181
 Alpha virt. eigenvalues --    0.06421   0.06720   0.07526   0.08237   0.08548
 Alpha virt. eigenvalues --    0.09449   0.09464   0.09996   0.10240   0.11091
 Alpha virt. eigenvalues --    0.11471   0.11851   0.11933   0.12302   0.12664

  Beta  occ. eigenvalues --  -18.98943 -14.24918 -14.20947 -14.20513 -10.17387
  Beta  occ. eigenvalues --  -10.10649 -10.10536 -10.10365 -10.09735 -10.09321
  Beta  occ. eigenvalues --  -10.09268 -10.09045 -10.08260 -10.08080 -10.06891
  Beta  occ. eigenvalues --   -0.94232  -0.84534  -0.83674  -0.81268  -0.70404
  Beta  occ. eigenvalues --   -0.67140  -0.64212  -0.62070  -0.60145  -0.58339
  Beta  occ. eigenvalues --   -0.56286  -0.52182  -0.48650  -0.47931  -0.43870
  Beta  occ. eigenvalues --   -0.41570  -0.41148  -0.39570  -0.38877  -0.37884
  Beta  occ. eigenvalues --   -0.37319  -0.34951  -0.34541  -0.34064  -0.33221
  Beta  occ. eigenvalues --   -0.32434  -0.31807  -0.31260  -0.30403  -0.29884
  Beta  occ. eigenvalues --   -0.29065  -0.28659  -0.27065  -0.26692  -0.26573
  Beta  occ. eigenvalues --   -0.26078  -0.25344  -0.24875  -0.23142  -0.22710
  Beta  occ. eigenvalues --   -0.16151  -0.15084  -0.13266  -0.12650
  Beta virt. eigenvalues --    0.06445   0.06974   0.07473   0.07918   0.08805
  Beta virt. eigenvalues --    0.08948   0.09896   0.09930   0.10243   0.10411
  Beta virt. eigenvalues --    0.11328   0.11846   0.12190   0.12308   0.12501

 Mulliken charges and spin densities:
               1          2
     1  C    0.621809  -1.001719
     2  N   -0.234568   0.106784
     3  C   -0.333185  -0.159222
     4  C    0.262977  -0.345836
     5  C   -0.599363   0.336073
     6  O   -0.293213   0.005149
     7  N   -0.097795   0.161949
     8  C    1.197259  -1.637487
     9  C    0.104828  -0.685421
    10  C   -0.287480   0.626772
    11  C   -0.194860  -0.189670
    12  C   -0.367020  -0.031256
    13  N    0.031577   0.020675
    14  C    0.064060  -0.575518
    15  C    0.375193  -0.656528
    16  H   -0.182297   0.325182
    17  H   -0.372821   0.476135
    18  H   -0.217336   0.364049
    19  H    0.358035  -0.221203
    20  H    0.218598  -0.018127
    21  H   -0.006678   0.167894
    22  H   -0.067059   0.263732
    23  H    0.171819  -0.027688
    24  H   -0.324038   0.478572
    25  H   -0.855783   1.045123
    26  H   -0.094379   0.287966
    27  H    0.152719   0.043296
    28  H   -0.353245   0.529062
    29  H    0.089281   0.124371
    30  H    0.125357   0.025834
    31  H    0.150095   0.037546
    32  H    0.092615   0.065920
    33  H    0.125522   0.082139
    34  H    0.542858  -0.411696
    35  H   -0.560430   0.763991
    36  H   -0.210703   0.349860
    37  H    0.065198   0.047381
    38  H   -0.097549   0.225917
 Sum of Mulliken charges =  -1.00000   1.00000

 Dipole moment (field-independent basis, Debye):
    X=             -0.6686    Y=             -0.3541    Z=             -6.2851  Tot=              6.3305
 Quadrupole moment (field-independent basis, Debye-Ang):
   XX=           -152.0888   YY=           -144.5013   ZZ=           -151.7423
   XY=              1.3219   XZ=              0.5068   YZ=              0.5537

 Summary of Natural Population Analysis:

                                       Natural Population
                Natural  -----------------------------------------------
    Atom  No    Charge         Core      Valence    Rydberg      Total
 -----------------------------------------------------------------------
      C    1   -0.17969      0.99966     2.17127    0.00877     3.17969
      N    2   -0.34306      0.99975     2.83241    0.01090     3.84306
      C    3   -0.08136      0.99962     2.07034    0.01140     3.08136
      C    4   -0.24168      0.99959     2.23389    0.00820     3.24168
      C    5    0.34645      0.99962     1.63047    0.02346     2.65355
      O    6   -0.33670      0.99988     3.33180    0.00502     4.33670
      N    7   -0.26319      0.99964     2.74914    0.01441     3.76319
      C    8   -0.18070      0.99962     2.17153    0.00956     3.18070
      C    9   -0.08140      0.99957     2.07001    0.01182     3.08140
      C   10   -0.11561      0.99959     2.10443    0.01159     3.11561
      C   11   -0.19878      0.99961     2.19195    0.00722     3.19878
      C   12   -0.08394      0.99963     2.07551    0.00879     3.08394
      N   13   -0.27696      0.99972     2.76560    0.01164     3.77696
      C   14   -0.08699      0.99960     2.07426    0.01314     3.08699
      C   15   -0.17562      0.99965     2.16754    0.00843     3.17562
      H   16    0.09047      0.00000     0.40836    0.00117     0.40953
      H   17    0.07944      0.00000     0.41863    0.00193     0.42056
      H   18    0.09711      0.00000     0.40160    0.00129     0.40289
      H   19    0.17272      0.00000     0.32217    0.00511     0.32728
      H   20    0.09821      0.00000     0.40065    0.00114     0.40179
      H   21    0.09223      0.00000     0.40686    0.00091     0.40777
      H   22    0.11061      0.00000     0.38837    0.00102     0.38939
      H   23    0.10601      0.00000     0.39254    0.00145     0.39399
      H   24    0.10657      0.00000     0.39107    0.00236     0.39343
      H   25    0.10015      0.00000     0.39771    0.00215     0.39985
      H   26    0.09970      0.00000     0.39801    0.00228     0.40030
      H   27    0.11234      0.00000     0.38652    0.00114     0.38766
      H   28    0.09840      0.00000     0.40035    0.00125     0.40160
      H   29    0.10050      0.00000     0.39813    0.00138     0.39950
      H   30    0.09822      0.00000     0.40090    0.00088     0.40178
      H   31    0.11222      0.00000     0.38658    0.00120     0.38778
      H   32    0.09372      0.00000     0.40531    0.00098     0.40628
      H   33    0.07977      0.00000     0.41862    0.00161     0.42023
      H   34    0.07872      0.00000     0.41822    0.00306     0.42128
      H   35    0.10085      0.00000     0.39717    0.00197     0.39915
      H   36    0.09705      0.00000     0.40182    0.00112     0.40295
      H   37    0.08123      0.00000     0.41729    0.00148     0.41877
      H   38    0.09299      0.00000     0.40602    0.00099     0.40701
 =======================================================================
   * Total *    0.00000     14.99474    43.80303    0.20223    59.00000

 Normal termination of Gaussian 16 at Thu Dec 10 18:06:43 2020.
