 Gaussian 16, Revision A.03,

 -----------------------------------------------------------
 # opt freq B3LYP/6-31G(d) empiricaldispersion=gd3bj scf=xqc
 -----------------------------------------------------------

 -------------------------------
 CID_18870571_JID_10570_neutraal
 -------------------------------
 Symbolic Z-matrix:
 Charge =  0 Multiplicity = 1

 SCF Done:  E(RB3LYP) =  -858.262922545     A.U. after   15 cycles
 SCF Done:  E(RB3LYP) =  -858.267557245     A.U. after   13 cycles
 SCF Done:  E(RB3LYP) =  -858.268323848     A.U. after   12 cycles
 SCF Done:  E(RB3LYP) =  -858.268491550     A.U. after   11 cycles
 SCF Done:  E(RB3LYP) =  -858.268539058     A.U. after   10 cycles
 SCF Done:  E(RB3LYP) =  -858.268563241     A.U. after   10 cycles
 SCF Done:  E(RB3LYP) =  -858.268575995     A.U. after   10 cycles
 SCF Done:  E(RB3LYP) =  -858.268579226     A.U. after    9 cycles
 SCF Done:  E(RB3LYP) =  -858.268580276     A.U. after    8 cycles
 SCF Done:  E(RB3LYP) =  -858.268581006     A.U. after    8 cycles
 SCF Done:  E(RB3LYP) =  -858.268612159     A.U. after   10 cycles
 SCF Done:  E(RB3LYP) =  -858.268615869     A.U. after    9 cycles
 SCF Done:  E(RB3LYP) =  -858.268616565     A.U. after    9 cycles
 SCF Done:  E(RB3LYP) =  -858.268616666     A.U. after    8 cycles
 SCF Done:  E(RB3LYP) =  -858.268616696     A.U. after    8 cycles
 SCF Done:  E(RB3LYP) =  -858.268616698     A.U. after    7 cycles
 Optimization completed.
    -- Stationary point found.
 Normal termination of Gaussian 16 at Sat Dec 12 16:10:10 2020.

 --------------------------------------------------------------------
 #N Geom=AllCheck Guess=TCheck SCRF=Check GenChk RB3LYP/6-31G(d) Freq
 --------------------------------------------------------------------

 Structure from the checkpoint file:  "JID_10570.chk"
 -------------------------------
 CID_18870571_JID_10570_neutraal
 -------------------------------
 Charge =  0 Multiplicity = 1

 SCF Done:  E(RB3LYP) =  -858.268616698     A.U. after    1 cycles

  Exact polarizability: 198.935 -21.702 165.065   2.998 -13.233 183.303
 Approx polarizability: 262.625 -39.074 273.577   6.070 -34.404 331.834

                      1                      2                      3
                      A                      A                      A
 Frequencies --     11.9789                26.3325                34.8319
 Red. masses --      5.5768                 4.1650                 3.3157
 Frc consts  --      0.0005                 0.0017                 0.0024
 IR Inten    --      0.4333                 0.1824                 0.1152

                      4                      5                      6
                      A                      A                      A
 Frequencies --     43.3363                56.0973                91.8489
 Red. masses --      1.0617                 6.2822                 5.8590
 Frc consts  --      0.0012                 0.0116                 0.0291
 IR Inten    --      0.2137                 2.2755                 1.4615

                      7                      8                      9
                      A                      A                      A
 Frequencies --     97.4024               145.7200               175.5869
 Red. masses --      6.4504                 5.3182                 4.2345
 Frc consts  --      0.0361                 0.0665                 0.0769
 IR Inten    --      1.1377                 1.3885                 1.3982

                     10                     11                     12
                      A                      A                      A
 Frequencies --    212.0140               232.5010               258.1831
 Red. masses --      3.0891                 4.5938                 3.4005
 Frc consts  --      0.0818                 0.1463                 0.1336
 IR Inten    --      2.4168                 0.1918                 1.0640

                     13                     14                     15
                      A                      A                      A
 Frequencies --    320.7052               330.1095               356.3859
 Red. masses --      5.5712                 2.9511                 3.5727
 Frc consts  --      0.3376                 0.1895                 0.2674
 IR Inten    --      0.5652                 7.2020                 3.8943

                     16                     17                     18
                      A                      A                      A
 Frequencies --    394.7533               412.3432               445.3969
 Red. masses --      3.1379                 2.9926                 2.9094
 Frc consts  --      0.2881                 0.2998                 0.3401
 IR Inten    --      2.5494                 0.0107                12.8645

                     19                     20                     21
                      A                      A                      A
 Frequencies --    474.2406               497.2871               503.7404
 Red. masses --      5.2714                 2.8989                 3.6317
 Frc consts  --      0.6985                 0.4224                 0.5430
 IR Inten    --      2.3669                44.7401                30.5082

                     22                     23                     24
                      A                      A                      A
 Frequencies --    519.5219               533.7792               590.3090
 Red. masses --      4.8417                 4.8918                 3.9051
 Frc consts  --      0.7699                 0.8212                 0.8017
 IR Inten    --     11.6483                 3.7311                 8.5923

                     25                     26                     27
                      A                      A                      A
 Frequencies --    625.8352               634.0852               662.7414
 Red. masses --      1.9716                 6.2982                 6.8388
 Frc consts  --      0.4550                 1.4920                 1.7698
 IR Inten    --     71.5655                 0.7362                 2.2005

                     28                     29                     30
                      A                      A                      A
 Frequencies --    704.3544               704.9108               708.5542
 Red. masses --      3.3889                 2.0941                 3.2459
 Frc consts  --      0.9906                 0.6131                 0.9601
 IR Inten    --      1.9174                20.0796                21.5251

                     31                     32                     33
                      A                      A                      A
 Frequencies --    719.4342               745.2323               780.4707
 Red. masses --      4.0279                 4.5734                 2.7432
 Frc consts  --      1.2283                 1.4965                 0.9845
 IR Inten    --     28.7029                 0.9291                 6.3520

                     34                     35                     36
                      A                      A                      A
 Frequencies --    786.0755               796.4505               860.1490
 Red. masses --      1.5952                 3.0806                 1.3040
 Frc consts  --      0.5807                 1.1513                 0.5684
 IR Inten    --     48.8246                25.3482                10.1190

                     37                     38                     39
                      A                      A                      A
 Frequencies --    863.4529               875.0532               927.8025
 Red. masses --      1.2500                 1.4693                 2.6152
 Frc consts  --      0.5491                 0.6629                 1.3264
 IR Inten    --      0.0659                14.7892                 7.8557

                     40                     41                     42
                      A                      A                      A
 Frequencies --    942.4947               958.5078               978.4499
 Red. masses --      1.3969                 1.2548                 1.7573
 Frc consts  --      0.7311                 0.6792                 0.9912
 IR Inten    --      1.9416                 0.2989                 1.9989

                     43                     44                     45
                      A                      A                      A
 Frequencies --    978.6580               994.0807              1004.5942
 Red. masses --      3.5643                 5.9192                 1.2652
 Frc consts  --      2.0113                 3.4463                 0.7523
 IR Inten    --      4.4495                 5.7598                 0.1610

                     46                     47                     48
                      A                      A                      A
 Frequencies --   1010.2111              1020.6894              1022.6890
 Red. masses --      2.9937                 3.6951                 5.9148
 Frc consts  --      1.8001                 2.2681                 3.6448
 IR Inten    --      0.7744                 2.2655                 1.4819

                     49                     50                     51
                      A                      A                      A
 Frequencies --   1037.5805              1056.6354              1062.4470
 Red. masses --      5.8863                 2.1845                 2.1246
 Frc consts  --      3.7337                 1.4370                 1.4130
 IR Inten    --     24.1068                 1.4966                 5.0895

                     52                     53                     54
                      A                      A                      A
 Frequencies --   1075.4190              1100.4987              1113.1938
 Red. masses --      1.5155                 3.0343                 2.0780
 Frc consts  --      1.0326                 2.1652                 1.5171
 IR Inten    --      9.2060                28.5104                 7.4215

                     55                     56                     57
                      A                      A                      A
 Frequencies --   1125.0785              1143.4786              1196.6447
 Red. masses --      2.2518                 1.9408                 1.1003
 Frc consts  --      1.6794                 1.4952                 0.9283
 IR Inten    --      3.4286                 7.6416                 0.0299

                     58                     59                     60
                      A                      A                      A
 Frequencies --   1205.7837              1214.1075              1222.5245
 Red. masses --      1.1469                 1.1421                 1.8984
 Frc consts  --      0.9824                 0.9919                 1.6717
 IR Inten    --      3.6599                 5.9208                28.1070

                     61                     62                     63
                      A                      A                      A
 Frequencies --   1249.7843              1284.6408              1313.4395
 Red. masses --      2.1729                 2.0009                 2.9955
 Frc consts  --      1.9997                 1.9456                 3.0447
 IR Inten    --     11.9418                 5.0689                58.9768

                     64                     65                     66
                      A                      A                      A
 Frequencies --   1345.9020              1352.8354              1373.3358
 Red. masses --      2.3759                 1.6938                 2.2629
 Frc consts  --      2.5357                 1.8264                 2.5146
 IR Inten    --      8.9962                21.2832                 2.7765

                     67                     68                     69
                      A                      A                      A
 Frequencies --   1377.3481              1395.4901              1405.5978
 Red. masses --      2.3776                 1.4667                 4.1113
 Frc consts  --      2.6575                 1.6828                 4.7858
 IR Inten    --     20.7865                11.7855                21.0456

                     70                     71                     72
                      A                      A                      A
 Frequencies --   1441.7262              1478.0538              1498.6714
 Red. masses --      1.2427                 2.0779                 2.2992
 Frc consts  --      1.5218                 2.6746                 3.0425
 IR Inten    --      0.3360                16.0178                19.5152

                     73                     74                     75
                      A                      A                      A
 Frequencies --   1505.4519              1514.9299              1519.0088
 Red. masses --      1.1564                 1.1921                 1.1092
 Frc consts  --      1.5442                 1.6119                 1.5079
 IR Inten    --     19.5533                 8.1323                 4.6706

                     76                     77                     78
                      A                      A                      A
 Frequencies --   1537.9419              1538.7571              1567.0900
 Red. masses --      2.1998                 1.6168                 2.0014
 Frc consts  --      3.0656                 2.2555                 2.8959
 IR Inten    --     29.8348                26.4182                72.3362

                     79                     80                     81
                      A                      A                      A
 Frequencies --   1604.1120              1612.3662              1647.1624
 Red. masses --      7.4680                 9.1677                 6.1242
 Frc consts  --     11.3220                14.0422                 9.7898
 IR Inten    --     44.1807                16.8494                 2.2580

                     82                     83                     84
                      A                      A                      A
 Frequencies --   1655.6326              1670.0987              1671.6403
 Red. masses --      5.1107                 5.5886                 5.4516
 Frc consts  --      8.2540                 9.1841                 8.9756
 IR Inten    --     40.6520                 3.1663                97.5310

                     85                     86                     87
                      A                      A                      A
 Frequencies --   3043.3750              3074.7423              3099.6308
 Red. masses --      1.0395                 1.0622                 1.0972
 Frc consts  --      5.6727                 5.9165                 6.2109
 IR Inten    --     29.7033                26.0976                18.5031

                     88                     89                     90
                      A                      A                      A
 Frequencies --   3121.6906              3127.9316              3170.6424
 Red. masses --      1.1030                 1.1023                 1.0868
 Frc consts  --      6.3332                 6.3544                 6.4373
 IR Inten    --      4.0243                17.9948                 8.8781

                     91                     92                     93
                      A                      A                      A
 Frequencies --   3185.8320              3190.8038              3201.5341
 Red. masses --      1.0893                 1.0857                 1.0895
 Frc consts  --      6.5141                 6.5127                 6.5792
 IR Inten    --     20.3302                 0.0505                11.9865

                     94                     95                     96
                      A                      A                      A
 Frequencies --   3202.2381              3212.0667              3213.2426
 Red. masses --      1.0960                 1.0938                 1.0896
 Frc consts  --      6.6216                 6.6490                 6.6284
 IR Inten    --     30.1342                25.5780                 4.2766

                     97                     98                     99
                      A                      A                      A
 Frequencies --   3223.8135              3228.7391              3584.1754
 Red. masses --      1.0941                 1.0946                 1.0757
 Frc consts  --      6.6995                 6.7229                 8.1416
 IR Inten    --      7.8300                 3.2648                 7.7459

 - Thermochemistry -
 -------------------
 Temperature   298.150 Kelvin.  Pressure   1.00000 Atm.
 Atom     1 has atomic number  6 and mass  12.00000

 Molecular mass:   265.12151 amu.
 Principal axes and moments of inertia in atomic units:
                           1         2         3
     Eigenvalues --  3208.806249805.33960**********
           X            0.99996  -0.00339   0.00865
           Y            0.00305   0.99921   0.03971
           Z           -0.00877  -0.03968   0.99917
 This molecule is an asymmetric top.
 Rotational symmetry number  1.
 Warning -- assumption of classical behavior for rotation
           may cause significant error
 Rotational temperatures (Kelvin)      0.02699     0.00883     0.00845
 Rotational constants (GHZ):           0.56243     0.18406     0.17617
 Zero-point vibrational energy     742069.0 (Joules/Mol)
                                  177.35875 (Kcal/Mol)
 Warning -- explicit consideration of  24 degrees of freedom as
           vibrations may cause significant error
 Vibrational temperatures:     17.23    37.89    50.12    62.35    80.71
          (Kelvin)            132.15   140.14   209.66   252.63   305.04
                              334.52   371.47   461.42   474.95   512.76
                              567.96   593.27   640.83   682.33   715.49
                              724.77   747.48   767.99   849.32   900.44
                              912.31   953.54  1013.41  1014.21  1019.45
                             1035.11  1072.22  1122.92  1130.99  1145.91
                             1237.56  1242.32  1259.01  1334.90  1356.04
                             1379.08  1407.77  1408.07  1430.26  1445.39
                             1453.47  1468.54  1471.42  1492.85  1520.26
                             1528.62  1547.29  1583.37  1601.64  1618.74
                             1645.21  1721.70  1734.85  1746.83  1758.94
                             1798.16  1848.31  1889.75  1936.45  1946.43
                             1975.92  1981.70  2007.80  2022.34  2074.32
                             2126.59  2156.25  2166.01  2179.65  2185.51
                             2212.76  2213.93  2254.69  2307.96  2319.84
                             2369.90  2382.09  2402.90  2405.12  4378.74
                             4423.87  4459.68  4491.42  4500.40  4561.85
                             4583.70  4590.85  4606.29  4607.31  4621.45
                             4623.14  4638.35  4645.44  5156.83

 Zero-point correction=                           0.282639 (Hartree/Particle)
 Thermal correction to Energy=                    0.299555
 Thermal correction to Enthalpy=                  0.300499
 Thermal correction to Gibbs Free Energy=         0.234273
 Sum of electronic and zero-point Energies=           -857.985978
 Sum of electronic and thermal Energies=              -857.969062
 Sum of electronic and thermal Enthalpies=            -857.968118
 Sum of electronic and thermal Free Energies=         -858.034344

                     E (Thermal)             CV                S
                      KCal/Mol        Cal/Mol-Kelvin    Cal/Mol-Kelvin
 Total                  187.973             64.929            139.385
 Electronic               0.000              0.000              0.000
 Translational            0.889              2.981             42.624
 Rotational               0.889              2.981             34.132
 Vibrational            186.196             58.968             62.628
 Vibration     1          0.593              1.987              7.652
 Vibration     2          0.593              1.985              6.088
 Vibration     3          0.594              1.983              5.533
 Vibration     4          0.595              1.980              5.100
 Vibration     5          0.596              1.975              4.590
 Vibration     6          0.602              1.955              3.620
 Vibration     7          0.603              1.951              3.506
 Vibration     8          0.617              1.907              2.727
 Vibration     9          0.628              1.872              2.375
 Vibration    10          0.643              1.823              2.026
 Vibration    11          0.653              1.791              1.860
 Vibration    12          0.667              1.749              1.674
 Vibration    13          0.706              1.634              1.307
 Vibration    14          0.713              1.615              1.260
 Vibration    15          0.732              1.562              1.138
 Vibration    16          0.762              1.481              0.982
 Vibration    17          0.776              1.443              0.918
 Vibration    18          0.805              1.371              0.810
 Vibration    19          0.831              1.307              0.726
 Vibration    20          0.853              1.256              0.665
 Vibration    21          0.859              1.242              0.649
 Vibration    22          0.875              1.207              0.611
 Vibration    23          0.889              1.175              0.579
 Vibration    24          0.948              1.052              0.467

 Optimization completed.
    -- Stationary point found.
 Normal termination of Gaussian 16 at Sat Dec 12 16:28:06 2020.

 ----------------------------------------------------------------------
 # B3LYP/6-311++G(d,p) empiricaldispersion=gd3bj scf=xqc pop=npa geom=c
 heck
 ----------------------------------------------------------------------

 ---------------------------------------
 CID_18870571_JID_10570_Energie_neutraal
 ---------------------------------------
 Structure from the checkpoint file:  "JID_10570.chk"
 Charge =  0 Multiplicity = 1

 SCF Done:  E(RB3LYP) =  -858.492440395     A.U. after   15 cycles
 Normal termination of Gaussian 16 at Sat Dec 12 16:35:48 2020.

 ----------------------------------------------------------------------
 # B3LYP/6-311++G(d,p) empiricaldispersion=gd3bj scf=xqc pop=npa geom=c
 heck
 ----------------------------------------------------------------------

 -------------------------------------
 CID_18870571_JID_10570_Energie_kation
 -------------------------------------
 Structure from the checkpoint file:  "JID_10570.chk"
 Charge =  1 Multiplicity = 2

 SCF Done:  E(UB3LYP) =  -858.215438483     A.U. after   25 cycles
 Normal termination of Gaussian 16 at Sat Dec 12 16:54:12 2020.
 Gaussian 16:  ES64L-G16RevA.03 25-Dec-2016

 ----------------------------------------------------------------------
 # B3LYP/6-311++G(d,p) empiricaldispersion=gd3bj scf=xqc pop=npa geom=c
 heck
 ----------------------------------------------------------------------

 ------------------------------------
 CID_18870571_JID_10570_Energie_anion
 ------------------------------------
 Structure from the checkpoint file:  "JID_10570.chk"
 Charge = -1 Multiplicity = 2

                         Standard orientation:
 ---------------------------------------------------------------------
 Center     Atomic      Atomic             Coordinates (Angstroms)
 Number     Number       Type             X           Y           Z
 ---------------------------------------------------------------------
      1          6           0        3.642413    0.760719    2.572292
      2          6           0        3.366247    0.886228    1.093349
      3          6           0        2.820175   -0.199649    0.397519
      4          6           0        2.563242   -0.119398   -0.977497
      5          6           0        2.857569    1.075594   -1.656632
      6          6           0        3.397321    2.153072   -0.966581
      7          6           0        3.652865    2.066703    0.403937
      8          7           0        2.054217   -1.204147   -1.709396
      9          6           0        1.379954   -2.300169   -1.039690
     10          6           0        0.215701   -1.892542   -0.187407
     11          7           0       -0.025077   -2.178332    1.052404
     12          7           0       -1.217558   -1.530771    1.385856
     13          6           0       -1.603854   -0.891509    0.320383
     14          8           0       -0.739999   -1.080411   -0.727295
     15          6           0       -2.777687   -0.050547    0.138064
     16          6           0       -3.670275    0.116086    1.208589
     17          6           0       -4.795608    0.917898    1.052488
     18          6           0       -5.040611    1.557951   -0.165578
     19          6           0       -4.153204    1.393428   -1.230317
     20          6           0       -3.023501    0.592391   -1.083269
     21          1           0        2.811628    0.270499    3.091820
     22          1           0        4.540734    0.157587    2.757684
     23          1           0        3.802047    1.740636    3.032654
     24          1           0        2.580835   -1.101752    0.949842
     25          1           0        2.661799    1.147579   -2.724217
     26          1           0        3.616102    3.073389   -1.501534
     27          1           0        4.068452    2.917119    0.937195
     28          1           0        1.590448   -0.917099   -2.561965
     29          1           0        1.046365   -3.001901   -1.811836
     30          1           0        2.075055   -2.843742   -0.393176
     31          1           0       -3.464893   -0.387160    2.147192
     32          1           0       -5.484259    1.044992    1.882484
     33          1           0       -5.920571    2.183626   -0.283437
     34          1           0       -4.339940    1.890781   -2.177490
     35          1           0       -2.329361    0.463945   -1.906796
 ---------------------------------------------------------------------

 SCF Done:  E(UB3LYP) =  -858.501655116     A.U. after   32 cycles

 The electronic state is 2-A.
 Alpha  occ. eigenvalues --  -19.05809 -14.22839 -14.20184 -14.17924 -10.12191
 Alpha  occ. eigenvalues --  -10.11901 -10.11618 -10.10768 -10.08954 -10.08254
 Alpha  occ. eigenvalues --  -10.08074 -10.07498 -10.07137 -10.06783 -10.04367
 Alpha  occ. eigenvalues --  -10.04228 -10.04121 -10.03683 -10.03527 -10.03211
 Alpha  occ. eigenvalues --   -1.01225  -0.84312  -0.83460  -0.75669  -0.73168
 Alpha  occ. eigenvalues --   -0.70221  -0.67925  -0.64967  -0.62303  -0.61583
 Alpha  occ. eigenvalues --   -0.60297  -0.58471  -0.52194  -0.50851  -0.50233
 Alpha  occ. eigenvalues --   -0.48504  -0.46352  -0.44710  -0.42608  -0.40880
 Alpha  occ. eigenvalues --   -0.40099  -0.38468  -0.36926  -0.36165  -0.34496
 Alpha  occ. eigenvalues --   -0.34022  -0.33381  -0.33017  -0.32319  -0.31813
 Alpha  occ. eigenvalues --   -0.30631  -0.30156  -0.29408  -0.29333  -0.28052
 Alpha  occ. eigenvalues --   -0.27519  -0.26381  -0.24938  -0.24326  -0.22587
 Alpha  occ. eigenvalues --   -0.21565  -0.20957  -0.20591  -0.18408  -0.16948
 Alpha  occ. eigenvalues --   -0.15369  -0.14235  -0.12905  -0.11295  -0.10494
 Alpha  occ. eigenvalues --    0.04188
 Alpha virt. eigenvalues --    0.06502   0.07163   0.07631   0.08076   0.08510
 Alpha virt. eigenvalues --    0.09117   0.09311   0.09711   0.10094   0.10956
 Alpha virt. eigenvalues --    0.11311   0.11408   0.11710   0.12629   0.12811

  Beta  occ. eigenvalues --  -19.05585 -14.22808 -14.20272 -14.17726 -10.11997
  Beta  occ. eigenvalues --  -10.11900 -10.11626 -10.10549 -10.08942 -10.08239
  Beta  occ. eigenvalues --  -10.08075 -10.07493 -10.07141 -10.06775 -10.04429
  Beta  occ. eigenvalues --  -10.04274 -10.03962 -10.03532 -10.03393 -10.02900
  Beta  occ. eigenvalues --   -1.00879  -0.84259  -0.83224  -0.75637  -0.72792
  Beta  occ. eigenvalues --   -0.69940  -0.67872  -0.64899  -0.61927  -0.61331
  Beta  occ. eigenvalues --   -0.60207  -0.58414  -0.51846  -0.50700  -0.50185
  Beta  occ. eigenvalues --   -0.48236  -0.46163  -0.44447  -0.42557  -0.40778
  Beta  occ. eigenvalues --   -0.39972  -0.38397  -0.36568  -0.35959  -0.34090
  Beta  occ. eigenvalues --   -0.33814  -0.33307  -0.32811  -0.32168  -0.31795
  Beta  occ. eigenvalues --   -0.30499  -0.29978  -0.29367  -0.29279  -0.27852
  Beta  occ. eigenvalues --   -0.27460  -0.26346  -0.24910  -0.23429  -0.22400
  Beta  occ. eigenvalues --   -0.21462  -0.20709  -0.19927  -0.18356  -0.15703
  Beta  occ. eigenvalues --   -0.15181  -0.14023  -0.12176  -0.11232  -0.09147
  Beta virt. eigenvalues --    0.06584   0.07312   0.07699   0.08053   0.08454
  Beta virt. eigenvalues --    0.09115   0.09324   0.09684   0.09782   0.10027
  Beta virt. eigenvalues --    0.10958   0.11371   0.11584   0.11792   0.12753

 Mulliken charges and spin densities:
               1          2
     1  C   -0.648953   0.000753
     2  C    0.713266  -0.076336
     3  C    0.956072  -0.289418
     4  C   -0.576080   0.043881
     5  C   -0.316740   0.137719
     6  C   -0.135511  -0.026970
     7  C   -1.026827   0.029081
     8  N    0.111738  -0.030996
     9  C   -0.978272  -0.132064
    10  C    0.656311   0.110474
    11  N    0.054077  -0.047183
    12  N   -0.148364   0.100498
    13  C   -0.295343  -0.018325
    14  O    0.097529   0.056260
    15  C    0.754808   0.078071
    16  C    0.130872   0.195588
    17  C   -0.652802  -0.031017
    18  C   -0.243600   0.227445
    19  C   -0.265525  -0.040887
    20  C   -0.764684   0.079155
    21  H    0.156191   0.001238
    22  H    0.156329   0.001316
    23  H    0.134457  -0.000071
    24  H    0.168380  -0.001462
    25  H    0.033053   0.085856
    26  H    0.150878  -0.004412
    27  H    0.093267   0.002509
    28  H    0.090494   0.156982
    29  H   -0.214610   0.417371
    30  H    0.227330  -0.029232
    31  H    0.172899  -0.006319
    32  H    0.111816   0.002893
    33  H    0.100489  -0.020715
    34  H    0.111713   0.012575
    35  H    0.085339   0.015743
 Sum of Mulliken charges =  -1.00000   1.00000

 Dipole moment (field-independent basis, Debye):
    X=              5.9892    Y=              2.3641    Z=             -1.1036  Tot=              6.5328
 Quadrupole moment (field-independent basis, Debye-Ang):
   XX=           -173.5790   YY=           -139.3965   ZZ=           -135.0977
   XY=              2.8849   XZ=              6.0479   YZ=              1.8468

 Summary of Natural Population Analysis:

                                       Natural Population
                Natural  -----------------------------------------------
    Atom  No    Charge         Core      Valence    Rydberg      Total
 -----------------------------------------------------------------------
      C    1   -0.29257      0.99964     2.28826    0.00466     3.29257
      C    2   -0.00452      0.99953     1.99720    0.00780     3.00452
      C    3   -0.12899      0.99947     2.12264    0.00688     3.12899
      C    4    0.09586      0.99949     1.89364    0.01101     2.90414
      C    5   -0.12633      0.99953     2.11682    0.00999     3.12633
      C    6   -0.08995      0.99958     2.08198    0.00839     3.08995
      C    7   -0.12951      0.99952     2.12108    0.00891     3.12951
      N    8   -0.30859      0.99969     2.79796    0.01094     3.80859
      C    9   -0.11696      0.99958     2.10457    0.01281     3.11696
      C   10    0.26411      0.99960     1.71444    0.02185     2.73589
      N   11   -0.18820      0.99966     2.67726    0.01128     3.68820
      N   12   -0.14872      0.99967     2.63772    0.01134     3.64872
      C   13    0.28296      0.99955     1.69602    0.02147     2.71704
      O   14   -0.22936      0.99985     3.22209    0.00741     4.22936
      C   15   -0.03805      0.99948     2.03032    0.00826     3.03805
      C   16   -0.05540      0.99955     2.04789    0.00796     3.05540
      C   17   -0.12297      0.99958     2.11406    0.00933     3.12297
      C   18   -0.05109      0.99958     2.04174    0.00978     3.05109
      C   19   -0.12545      0.99958     2.11650    0.00938     3.12545
      C   20   -0.06062      0.99955     2.05305    0.00803     3.06062
      H   21    0.10829      0.00000     0.39086    0.00085     0.39171
      H   22    0.10041      0.00000     0.39867    0.00093     0.39959
      H   23    0.09774      0.00000     0.40143    0.00083     0.40226
      H   24    0.10917      0.00000     0.38941    0.00141     0.39083
      H   25    0.09705      0.00000     0.40163    0.00132     0.40295
      H   26    0.09601      0.00000     0.40319    0.00080     0.40399
      H   27    0.09474      0.00000     0.40427    0.00099     0.40526
      H   28    0.18561      0.00000     0.31167    0.00272     0.31439
      H   29    0.10892      0.00000     0.38950    0.00158     0.39108
      H   30    0.10428      0.00000     0.39454    0.00118     0.39572
      H   31    0.10408      0.00000     0.39490    0.00102     0.39592
      H   32    0.09120      0.00000     0.40776    0.00104     0.40880
      H   33    0.08649      0.00000     0.41248    0.00104     0.41351
      H   34    0.09139      0.00000     0.40760    0.00101     0.40861
      H   35    0.09898      0.00000     0.39981    0.00122     0.40102
 =======================================================================
   * Total *   -0.00000     19.99165    49.78295    0.22540    70.00000

 Normal termination of Gaussian 16 at Sat Dec 12 17:17:43 2020.
