 Gaussian 16, Revision A.03,

 -----------------------------------------------------------
 # opt freq B3LYP/6-31G(d) empiricaldispersion=gd3bj scf=xqc
 -----------------------------------------------------------

 ------------------------------
 CID_91181175_JID_2669_neutraal
 ------------------------------
 Symbolic Z-matrix:
 Charge =  0 Multiplicity = 1

 SCF Done:  E(RB3LYP) =  -487.815191571     A.U. after   12 cycles
 SCF Done:  E(RB3LYP) =  -487.818845049     A.U. after   11 cycles
 SCF Done:  E(RB3LYP) =  -487.818634454     A.U. after   10 cycles
 SCF Done:  E(RB3LYP) =  -487.819292719     A.U. after   10 cycles
 SCF Done:  E(RB3LYP) =  -487.819321264     A.U. after    9 cycles
 SCF Done:  E(RB3LYP) =  -487.819330127     A.U. after    8 cycles
 SCF Done:  E(RB3LYP) =  -487.819332789     A.U. after    7 cycles
 SCF Done:  E(RB3LYP) =  -487.819332919     A.U. after    6 cycles
 SCF Done:  E(RB3LYP) =  -487.819332980     A.U. after    6 cycles
 Optimization completed.
    -- Stationary point found.
 Normal termination of Gaussian 16 at Wed Dec  9 17:37:15 2020.

 --------------------------------------------------------------------
 #N Geom=AllCheck Guess=TCheck SCRF=Check GenChk RB3LYP/6-31G(d) Freq
 --------------------------------------------------------------------

 Structure from the checkpoint file:  "JID_2669.chk"
 ------------------------------
 CID_91181175_JID_2669_neutraal
 ------------------------------
 Charge =  0 Multiplicity = 1

 SCF Done:  E(RB3LYP) =  -487.819332980     A.U. after    1 cycles

  Exact polarizability: 133.900  -0.173 119.478   0.546   1.116 105.029
 Approx polarizability: 167.587   1.488 163.185  -1.249   2.155 162.155

                      1                      2                      3
                      A                      A                      A
 Frequencies --     85.1284                99.9109               116.2955
 Red. masses --      2.9600                 2.8879                 2.7796
 Frc consts  --      0.0126                 0.0170                 0.0221
 IR Inten    --      0.4661                 0.0357                 0.4238

                      4                      5                      6
                      A                      A                      A
 Frequencies --    158.4975               171.0243               198.2065
 Red. masses --      1.8747                 2.5857                 1.5930
 Frc consts  --      0.0277                 0.0446                 0.0369
 IR Inten    --      0.1864                 0.1929                 0.1420

                      7                      8                      9
                      A                      A                      A
 Frequencies --    236.2011               256.6676               281.7757
 Red. masses --      2.1060                 2.4095                 2.1123
 Frc consts  --      0.0692                 0.0935                 0.0988
 IR Inten    --      0.1387                 2.1850                 1.6249

                     10                     11                     12
                      A                      A                      A
 Frequencies --    285.8291               293.9368               329.1070
 Red. masses --      1.8303                 1.2811                 1.9533
 Frc consts  --      0.0881                 0.0652                 0.1246
 IR Inten    --      4.5912                27.0698                 3.5249

                     13                     14                     15
                      A                      A                      A
 Frequencies --    347.1136               363.5419               378.5078
 Red. masses --      1.9145                 2.2870                 2.2636
 Frc consts  --      0.1359                 0.1781                 0.1911
 IR Inten    --      2.5848                 1.8015                 1.6614

                     16                     17                     18
                      A                      A                      A
 Frequencies --    435.2653               466.5644               504.6027
 Red. masses --      2.2050                 2.4527                 2.3508
 Frc consts  --      0.2461                 0.3146                 0.3527
 IR Inten    --      9.9636                 0.9711                 0.6675

                     19                     20                     21
                      A                      A                      A
 Frequencies --    530.4385               594.9886               706.8519
 Red. masses --      2.6647                 1.9467                 2.7289
 Frc consts  --      0.4417                 0.4060                 0.8033
 IR Inten    --      0.4723                 4.5976                 0.6373

                     22                     23                     24
                      A                      A                      A
 Frequencies --    723.6593               770.7697               796.7186
 Red. masses --      1.4718                 1.4994                 1.9517
 Frc consts  --      0.4541                 0.5248                 0.7299
 IR Inten    --      1.4189                 2.7157                 4.9548

                     25                     26                     27
                      A                      A                      A
 Frequencies --    808.3178               829.7488               879.4415
 Red. masses --      1.5006                 1.9846                 2.0464
 Frc consts  --      0.5777                 0.8050                 0.9325
 IR Inten    --      1.3398                 7.0906                 0.7040

                     28                     29                     30
                      A                      A                      A
 Frequencies --    910.5881               938.4126               944.9368
 Red. masses --      1.6782                 2.1534                 1.6423
 Frc consts  --      0.8199                 1.1173                 0.8640
 IR Inten    --    118.2273                 2.3743                 8.6095

                     31                     32                     33
                      A                      A                      A
 Frequencies --    961.0433               979.8126              1022.3201
 Red. masses --      1.7455                 2.2364                 1.9714
 Frc consts  --      0.9499                 1.2650                 1.2139
 IR Inten    --     33.9004                13.9730                 1.3028

                     34                     35                     36
                      A                      A                      A
 Frequencies --   1034.4159              1056.7720              1059.6452
 Red. masses --      1.9853                 2.0926                 1.8989
 Frc consts  --      1.2516                 1.3769                 1.2562
 IR Inten    --      2.7435                 0.1159                 1.3443

                     37                     38                     39
                      A                      A                      A
 Frequencies --   1080.3067              1088.1385              1103.4081
 Red. masses --      2.2590                 2.0932                 2.0608
 Frc consts  --      1.5534                 1.4602                 1.4783
 IR Inten    --      5.5409                 0.0981                12.3023

                     40                     41                     42
                      A                      A                      A
 Frequencies --   1125.0417              1134.0573              1143.6977
 Red. masses --      1.7039                 1.8089                 2.1075
 Frc consts  --      1.2707                 1.3707                 1.6242
 IR Inten    --      2.7102                 1.1483                 2.8507

                     43                     44                     45
                      A                      A                      A
 Frequencies --   1177.8303              1200.3175              1214.6428
 Red. masses --      2.0489                 1.4510                 1.2255
 Frc consts  --      1.6747                 1.2317                 1.0653
 IR Inten    --      4.3436                 1.4373                 1.3936

                     46                     47                     48
                      A                      A                      A
 Frequencies --   1248.1464              1257.5388              1274.3284
 Red. masses --      1.3452                 1.2734                 1.2417
 Frc consts  --      1.2348                 1.1864                 1.1880
 IR Inten    --      0.7508                 4.7714                 2.0897

                     49                     50                     51
                      A                      A                      A
 Frequencies --   1296.5532              1310.8801              1323.0491
 Red. masses --      1.2514                 1.2393                 1.2036
 Frc consts  --      1.2394                 1.2547                 1.2413
 IR Inten    --      0.8949                 1.3576                 1.2091

                     52                     53                     54
                      A                      A                      A
 Frequencies --   1348.0608              1356.3261              1358.4660
 Red. masses --      1.2102                 1.1699                 1.2707
 Frc consts  --      1.2958                 1.2681                 1.3816
 IR Inten    --      0.5957                 1.5278                 1.1460

                     55                     56                     57
                      A                      A                      A
 Frequencies --   1373.8689              1379.0386              1388.9684
 Red. masses --      1.2663                 1.3427                 1.2874
 Frc consts  --      1.4082                 1.5045                 1.4633
 IR Inten    --      1.5171                 1.1121                 5.4217

                     58                     59                     60
                      A                      A                      A
 Frequencies --   1401.0928              1403.2069              1416.7013
 Red. masses --      1.3302                 1.3298                 1.3633
 Frc consts  --      1.5385                 1.5427                 1.6121
 IR Inten    --      5.4102                 6.0151                 0.4361

                     61                     62                     63
                      A                      A                      A
 Frequencies --   1428.1550              1431.4968              1433.5020
 Red. masses --      1.3877                 1.3370                 1.3687
 Frc consts  --      1.6676                 1.6143                 1.6571
 IR Inten    --      2.0452                 5.1280                 0.9321

                     64                     65                     66
                      A                      A                      A
 Frequencies --   1441.2948              1452.4327              1509.9067
 Red. masses --      1.2405                 1.3712                 1.0730
 Frc consts  --      1.5183                 1.7042                 1.4413
 IR Inten    --      4.8391                 0.2310                 0.5034

                     67                     68                     69
                      A                      A                      A
 Frequencies --   1512.9539              1515.6353              1516.2614
 Red. masses --      1.0856                 1.0918                 1.0826
 Frc consts  --      1.4641                 1.4777                 1.4665
 IR Inten    --      2.8120                 1.1307                 0.7576

                     70                     71                     72
                      A                      A                      A
 Frequencies --   1523.7626              1527.4802              1530.3008
 Red. masses --      1.0881                 1.0685                 1.0513
 Frc consts  --      1.4885                 1.4688                 1.4506
 IR Inten    --      6.1456                 0.8441                 9.0844

                     73                     74                     75
                      A                      A                      A
 Frequencies --   1538.1445              1544.8813              1549.1244
 Red. masses --      1.0703                 1.0790                 1.0852
 Frc consts  --      1.4919                 1.5173                 1.5343
 IR Inten    --      2.3815                 0.3065                12.7376

                     76                     77                     78
                      A                      A                      A
 Frequencies --   1697.2233              2993.3204              3008.0061
 Red. masses --      1.0892                 1.0816                 1.0595
 Frc consts  --      1.8485                 5.7101                 5.6481
 IR Inten    --     23.6320                10.3951                48.7601

                     79                     80                     81
                      A                      A                      A
 Frequencies --   3022.4234              3032.3058              3039.4418
 Red. masses --      1.0641                 1.0654                 1.0928
 Frc consts  --      5.7270                 5.7717                 5.9479
 IR Inten    --     32.7940                13.4088                20.2140

                     82                     83                     84
                      A                      A                      A
 Frequencies --   3040.5738              3043.6703              3044.8136
 Red. masses --      1.0780                 1.0671                 1.0448
 Frc consts  --      5.8720                 5.8241                 5.7071
 IR Inten    --     27.2817                20.0334                28.6562

                     85                     86                     87
                      A                      A                      A
 Frequencies --   3049.3950              3053.0240              3056.7936
 Red. masses --      1.0613                 1.0907                 1.0742
 Frc consts  --      5.8143                 5.9900                 5.9137
 IR Inten    --     40.5377                70.1783                23.0463

                     88                     89                     90
                      A                      A                      A
 Frequencies --   3060.9728              3065.6225              3067.2202
 Red. masses --      1.0748                 1.0972                 1.0875
 Frc consts  --      5.9335                 6.0756                 6.0282
 IR Inten    --      5.4342                28.0274                36.8969

                     91                     92                     93
                      A                      A                      A
 Frequencies --   3080.0674              3094.6957              3096.8595
 Red. masses --      1.0980                 1.0912                 1.0937
 Frc consts  --      6.1372                 6.1571                 6.1799
 IR Inten    --     68.1326                32.2880                62.1937

                     94                     95                     96
                      A                      A                      A
 Frequencies --   3101.6319              3110.6110              3120.0363
 Red. masses --      1.0967                 1.0968                 1.0977
 Frc consts  --      6.2161                 6.2526                 6.2960
 IR Inten    --     49.4334                46.6240                64.2523

                     97                     98                     99
                      A                      A                      A
 Frequencies --   3127.4910              3434.0148              3520.1318
 Red. masses --      1.0933                 1.0495                 1.0914
 Frc consts  --      6.3006                 7.2918                 7.9682
 IR Inten    --     40.3324                 5.4517                 2.0945

 - Thermochemistry -
 -------------------
 Temperature   298.150 Kelvin.  Pressure   1.00000 Atm.
 Atom     1 has atomic number  6 and mass  12.00000

 Molecular mass:   169.18305 amu.
 Principal axes and moments of inertia in atomic units:
                           1         2         3
     Eigenvalues --  1464.753032761.115133473.72895
           X            0.99981  -0.01933  -0.00060
           Y            0.01934   0.99978   0.00856
           Z            0.00044  -0.00857   0.99996
 This molecule is an asymmetric top.
 Rotational symmetry number  1.
 Warning -- assumption of classical behavior for rotation
           may cause significant error
 Rotational temperatures (Kelvin)      0.05913     0.03137     0.02493
 Rotational constants (GHZ):           1.23211     0.65363     0.51954
 Zero-point vibrational energy     875525.3 (Joules/Mol)
                                  209.25557 (Kcal/Mol)
 Warning -- explicit consideration of  20 degrees of freedom as
           vibrations may cause significant error
 Vibrational temperatures:    122.48   143.75   167.32   228.04   246.07
          (Kelvin)            285.17   339.84   369.29   405.41   411.24
                              422.91   473.51   499.42   523.06   544.59
                              626.25   671.28   726.01   763.18   856.06
                             1017.00  1041.18  1108.97  1146.30  1162.99
                             1193.82  1265.32  1310.13  1350.17  1359.55
                             1382.73  1409.73  1470.89  1488.29  1520.46
                             1524.59  1554.32  1565.59  1587.56  1618.68
                             1631.66  1645.53  1694.64  1726.99  1747.60
                             1795.80  1809.32  1833.47  1865.45  1886.06
                             1903.57  1939.56  1951.45  1954.53  1976.69
                             1984.13  1998.42  2015.86  2018.90  2038.32
                             2054.80  2059.60  2062.49  2073.70  2089.73
                             2172.42  2176.80  2180.66  2181.56  2192.35
                             2197.70  2201.76  2213.05  2222.74  2228.84
                             2441.93  4306.72  4327.85  4348.59  4362.81
                             4373.08  4374.71  4379.16  4380.81  4387.40
                             4392.62  4398.04  4404.06  4410.75  4413.05
                             4431.53  4452.58  4455.69  4462.56  4475.48
                             4489.04  4499.76  4940.78  5064.68

 Zero-point correction=                           0.333470 (Hartree/Particle)
 Thermal correction to Energy=                    0.346489
 Thermal correction to Enthalpy=                  0.347434
 Thermal correction to Gibbs Free Energy=         0.295563
 Sum of electronic and zero-point Energies=           -487.485863
 Sum of electronic and thermal Energies=              -487.472843
 Sum of electronic and thermal Enthalpies=            -487.471899
 Sum of electronic and thermal Free Energies=         -487.523770

                     E (Thermal)             CV                S
                      KCal/Mol        Cal/Mol-Kelvin    Cal/Mol-Kelvin
 Total                  217.425             52.133            109.170
 Electronic               0.000              0.000              0.000
 Translational            0.889              2.981             41.285
 Rotational               0.889              2.981             31.019
 Vibrational            215.648             46.171             36.866
 Vibration     1          0.601              1.959              3.769
 Vibration     2          0.604              1.949              3.456
 Vibration     3          0.608              1.936              3.161
 Vibration     4          0.621              1.893              2.568
 Vibration     5          0.626              1.878              2.424
 Vibration     6          0.637              1.842              2.150
 Vibration     7          0.655              1.785              1.831
 Vibration     8          0.666              1.752              1.684
 Vibration     9          0.681              1.707              1.523
 Vibration    10          0.684              1.700              1.499
 Vibration    11          0.689              1.685              1.451
 Vibration    12          0.712              1.617              1.264
 Vibration    13          0.725              1.581              1.179
 Vibration    14          0.737              1.547              1.107
 Vibration    15          0.749              1.516              1.045
 Vibration    16          0.796              1.393              0.842
 Vibration    17          0.824              1.324              0.747
 Vibration    18          0.860              1.240              0.647
 Vibration    19          0.885              1.183              0.586
 Vibration    20          0.953              1.042              0.458

 Optimization completed.
    -- Stationary point found.
 Normal termination of Gaussian 16 at Wed Dec  9 17:47:17 2020.

 ----------------------------------------------------------------------
 # B3LYP/6-311++G(d,p) empiricaldispersion=gd3bj scf=xqc pop=npa geom=c
 heck
 ----------------------------------------------------------------------

 --------------------------------------
 CID_91181175_JID_2669_Energie_neutraal
 --------------------------------------
 Structure from the checkpoint file:  "JID_2669.chk"
 Charge =  0 Multiplicity = 1

 SCF Done:  E(RB3LYP) =  -487.961476257     A.U. after   13 cycles
 Normal termination of Gaussian 16 at Wed Dec  9 17:51:14 2020.

 ----------------------------------------------------------------------
 # B3LYP/6-311++G(d,p) empiricaldispersion=gd3bj scf=xqc pop=npa geom=c
 heck
 ----------------------------------------------------------------------

 ------------------------------------
 CID_91181175_JID_2669_Energie_kation
 ------------------------------------
 Structure from the checkpoint file:  "JID_2669.chk"
 Charge =  1 Multiplicity = 2

 SCF Done:  E(UB3LYP) =  -487.638540602     A.U. after   29 cycles
 Normal termination of Gaussian 16 at Wed Dec  9 18:02:30 2020.
 Gaussian 16:  ES64L-G16RevA.03 25-Dec-2016

 ----------------------------------------------------------------------
 # B3LYP/6-311++G(d,p) empiricaldispersion=gd3bj scf=xqc pop=npa geom=c
 heck
 ----------------------------------------------------------------------

 -----------------------------------
 CID_91181175_JID_2669_Energie_anion
 -----------------------------------
 Structure from the checkpoint file:  "JID_2669.chk"
 Charge = -1 Multiplicity = 2

                         Standard orientation:
 ---------------------------------------------------------------------
 Center     Atomic      Atomic             Coordinates (Angstroms)
 Number     Number       Type             X           Y           Z
 ---------------------------------------------------------------------
      1          6           0        3.331250   -1.137382   -0.811737
      2          6           0        2.261105   -0.040235   -0.849435
      3          6           0        1.794855    0.396708    0.555828
      4          6           0        1.219591    1.846245    0.617031
      5          6           0       -0.291558    2.084318    0.485525
      6          6           0       -0.930562    1.669616   -0.857624
      7          6           0       -2.216773    0.842444   -0.704155
      8          6           0       -2.065652   -0.460174    0.110914
      9          6           0       -0.948394   -1.367396   -0.448448
     10          6           0        0.154832   -1.755886    0.550993
     11          6           0        0.941521   -0.666787    1.318096
     12          7           0       -3.316413   -1.234094    0.212634
     13          1           0        4.220165   -0.793066   -0.268752
     14          1           0        3.646059   -1.420281   -1.822649
     15          1           0        2.972497   -2.042934   -0.311295
     16          1           0        2.680770    0.835298   -1.362366
     17          1           0        1.420870   -0.374757   -1.464604
     18          1           0        2.729574    0.480057    1.129004
     19          1           0        1.514451    2.267690    1.587826
     20          1           0        1.743329    2.450302   -0.136996
     21          1           0       -0.470907    3.152787    0.659989
     22          1           0       -0.799549    1.577541    1.312641
     23          1           0       -0.207113    1.102217   -1.450443
     24          1           0       -1.155065    2.562061   -1.454568
     25          1           0       -2.596243    0.579197   -1.703253
     26          1           0       -2.994547    1.460152   -0.230794
     27          1           0       -1.813365   -0.192120    1.142589
     28          1           0       -0.506114   -0.911959   -1.338485
     29          1           0       -1.412606   -2.300700   -0.789376
     30          1           0        0.865490   -2.404449    0.024460
     31          1           0       -0.309725   -2.389885    1.318500
     32          1           0        1.615754   -1.221770    1.982116
     33          1           0        0.256371   -0.144659    1.996465
     34          1           0       -4.044008   -0.644939    0.619259
     35          1           0       -3.642485   -1.455950   -0.729635
 ---------------------------------------------------------------------

 SCF Done:  E(UB3LYP) =  -487.944435600     A.U. after   29 cycles

 The electronic state is 2-A.
 Alpha  occ. eigenvalues --  -14.19008 -10.09166 -10.06919 -10.06470 -10.06293
 Alpha  occ. eigenvalues --  -10.06195 -10.05980 -10.05903 -10.05878 -10.05852
 Alpha  occ. eigenvalues --  -10.05802 -10.05799  -0.78632  -0.72016  -0.68380
 Alpha  occ. eigenvalues --   -0.67253  -0.64120  -0.59413  -0.58245  -0.53275
 Alpha  occ. eigenvalues --   -0.50308  -0.49152  -0.45253  -0.43531  -0.39344
 Alpha  occ. eigenvalues --   -0.37740  -0.36797  -0.35284  -0.33728  -0.33312
 Alpha  occ. eigenvalues --   -0.32656  -0.31436  -0.30464  -0.29174  -0.28376
 Alpha  occ. eigenvalues --   -0.27078  -0.26532  -0.25989  -0.25489  -0.24723
 Alpha  occ. eigenvalues --   -0.23937  -0.22807  -0.21870  -0.20772  -0.20219
 Alpha  occ. eigenvalues --   -0.19827  -0.19202  -0.14038   0.04595
 Alpha virt. eigenvalues --    0.06283   0.07016   0.07428   0.08625   0.08792
 Alpha virt. eigenvalues --    0.09208   0.09707   0.09954   0.11145   0.11443
 Alpha virt. eigenvalues --    0.11966   0.12223   0.12235   0.12915   0.13442

  Beta  occ. eigenvalues --  -14.18978 -10.09161 -10.06911 -10.06460 -10.06283
  Beta  occ. eigenvalues --  -10.06184 -10.05966 -10.05893 -10.05857 -10.05836
  Beta  occ. eigenvalues --  -10.05785 -10.05772  -0.78587  -0.71986  -0.68346
  Beta  occ. eigenvalues --   -0.67223  -0.64082  -0.59377  -0.58202  -0.53224
  Beta  occ. eigenvalues --   -0.50258  -0.49101  -0.45199  -0.43499  -0.39304
  Beta  occ. eigenvalues --   -0.37712  -0.36757  -0.35249  -0.33690  -0.33273
  Beta  occ. eigenvalues --   -0.32625  -0.31407  -0.30437  -0.29140  -0.28350
  Beta  occ. eigenvalues --   -0.27032  -0.26499  -0.25958  -0.25444  -0.24690
  Beta  occ. eigenvalues --   -0.23911  -0.22776  -0.21838  -0.20742  -0.20199
  Beta  occ. eigenvalues --   -0.19792  -0.19169  -0.14005
  Beta virt. eigenvalues --    0.06684   0.07306   0.07655   0.07964   0.09127
  Beta virt. eigenvalues --    0.09363   0.09694   0.09992   0.10308   0.11640
  Beta virt. eigenvalues --    0.11847   0.12341   0.12603   0.12670   0.13172

 Mulliken charges and spin densities:
               1          2
     1  C    1.219833  -1.894417
     2  C   -1.401336   1.234225
     3  C    0.841677  -0.301802
     4  C    0.170155  -0.838808
     5  C    0.250353  -0.555914
     6  C    0.042114  -0.104335
     7  C    0.022727  -0.565848
     8  C    0.051478  -0.390133
     9  C    0.796037  -0.870522
    10  C   -0.679336   0.314137
    11  C    0.026980  -0.551586
    12  N   -0.463539   0.187293
    13  H   -0.183927   0.313356
    14  H   -0.344145   0.485335
    15  H   -0.037907   0.162296
    16  H   -0.156757   0.312070
    17  H    0.166911  -0.086249
    18  H   -0.038804   0.241226
    19  H   -0.236853   0.380099
    20  H    0.041169   0.078538
    21  H   -0.320024   0.504996
    22  H    0.100887   0.006816
    23  H   -0.155775   0.265786
    24  H   -0.297831   0.496809
    25  H   -0.248420   0.394375
    26  H   -0.300074   0.428828
    27  H    0.016957   0.172598
    28  H    0.098611   0.019767
    29  H    0.096149   0.055443
    30  H   -0.055116   0.182400
    31  H    0.088322   0.059218
    32  H   -0.079672   0.258935
    33  H    0.029044   0.097442
    34  H   -0.086189   0.313398
    35  H    0.026301   0.194223
 Sum of Mulliken charges =  -1.00000   1.00000

 Dipole moment (field-independent basis, Debye):
    X=              0.5903    Y=             -1.6792    Z=              0.3031  Tot=              1.8055
 Quadrupole moment (field-independent basis, Debye-Ang):
   XX=           -154.7432   YY=           -127.9731   ZZ=           -114.1933
   XY=              3.1817   XZ=              0.0934   YZ=              0.5669

 Summary of Natural Population Analysis:

                                       Natural Population
                Natural  -----------------------------------------------
    Atom  No    Charge         Core      Valence    Rydberg      Total
 -----------------------------------------------------------------------
      C    1   -0.28334      0.99966     2.27863    0.00505     3.28334
      C    2   -0.19004      0.99961     2.18243    0.00800     3.19004
      C    3   -0.11245      0.99958     2.10113    0.01173     3.11245
      C    4   -0.17994      0.99961     2.17128    0.00905     3.17994
      C    5   -0.19291      0.99962     2.18477    0.00853     3.19291
      C    6   -0.19585      0.99962     2.18740    0.00883     3.19585
      C    7   -0.18940      0.99961     2.17985    0.00995     3.18940
      C    8   -0.01859      0.99959     2.00739    0.01161     3.01859
      C    9   -0.19261      0.99959     2.18436    0.00866     3.19261
      C   10   -0.18748      0.99962     2.18027    0.00760     3.18748
      C   11   -0.19186      0.99960     2.18340    0.00886     3.19186
      N   12   -0.41837      0.99978     2.90865    0.00995     3.91837
      H   13    0.09611      0.00000     0.40263    0.00126     0.40389
      H   14    0.09743      0.00000     0.40169    0.00088     0.40257
      H   15    0.09496      0.00000     0.40387    0.00118     0.40504
      H   16    0.09562      0.00000     0.40311    0.00128     0.40438
      H   17    0.09367      0.00000     0.40472    0.00161     0.40633
      H   18    0.09565      0.00000     0.40247    0.00188     0.40435
      H   19    0.09594      0.00000     0.40294    0.00112     0.40406
      H   20    0.09448      0.00000     0.40418    0.00134     0.40552
      H   21    0.09978      0.00000     0.39901    0.00122     0.40022
      H   22    0.09186      0.00000     0.40625    0.00189     0.40814
      H   23    0.09433      0.00000     0.40347    0.00219     0.40567
      H   24    0.09924      0.00000     0.39957    0.00119     0.40076
      H   25    0.09465      0.00000     0.40382    0.00153     0.40535
      H   26    0.09580      0.00000     0.40243    0.00177     0.40420
      H   27    0.08747      0.00000     0.41025    0.00228     0.41253
      H   28    0.09308      0.00000     0.40523    0.00169     0.40692
      H   29    0.10182      0.00000     0.39695    0.00123     0.39818
      H   30    0.09470      0.00000     0.40412    0.00118     0.40530
      H   31    0.09764      0.00000     0.40124    0.00112     0.40236
      H   32    0.09997      0.00000     0.39903    0.00101     0.40003
      H   33    0.09591      0.00000     0.40259    0.00150     0.40409
      H   34    0.17335      0.00000     0.32482    0.00183     0.32665
      H   35    0.16939      0.00000     0.32867    0.00194     0.33061
 =======================================================================
   * Total *   -0.00000     11.99548    35.86259    0.14193    48.00000

 Normal termination of Gaussian 16 at Wed Dec  9 18:14:29 2020.
