 Gaussian 16, Revision A.03,

 -----------------------------------------------------------
 # opt freq B3LYP/6-31G(d) empiricaldispersion=gd3bj scf=xqc
 -----------------------------------------------------------

 -------------------------------
 CID_116576008_JID_7096_neutraal
 -------------------------------
 Symbolic Z-matrix:
 Charge =  0 Multiplicity = 1

 SCF Done:  E(RB3LYP) =  -746.338793125     A.U. after   15 cycles
 SCF Done:  E(RB3LYP) =  -746.345083531     A.U. after   12 cycles
 SCF Done:  E(RB3LYP) =  -746.343251055     A.U. after   13 cycles
 SCF Done:  E(RB3LYP) =  -746.345720162     A.U. after   11 cycles
 SCF Done:  E(RB3LYP) =  -746.346504641     A.U. after   12 cycles
 SCF Done:  E(RB3LYP) =  -746.346576161     A.U. after   11 cycles
 SCF Done:  E(RB3LYP) =  -746.346637829     A.U. after   11 cycles
 SCF Done:  E(RB3LYP) =  -746.346685465     A.U. after   11 cycles
 SCF Done:  E(RB3LYP) =  -746.346733316     A.U. after   12 cycles
 SCF Done:  E(RB3LYP) =  -746.346728839     A.U. after   11 cycles
 SCF Done:  E(RB3LYP) =  -746.348592933     A.U. after   10 cycles
 SCF Done:  E(RB3LYP) =  -746.348591871     A.U. after    9 cycles
 SCF Done:  E(RB3LYP) =  -746.348593378     A.U. after    9 cycles
 SCF Done:  E(RB3LYP) =  -746.348593453     A.U. after    6 cycles
 SCF Done:  E(RB3LYP) =  -746.348593463     A.U. after    6 cycles
 Optimization completed.
    -- Stationary point found.
 Normal termination of Gaussian 16 at Fri Dec 11 12:17:43 2020.

 --------------------------------------------------------------------
 #N Geom=AllCheck Guess=TCheck SCRF=Check GenChk RB3LYP/6-31G(d) Freq
 --------------------------------------------------------------------

 Structure from the checkpoint file:  "JID_7096.chk"
 -------------------------------
 CID_116576008_JID_7096_neutraal
 -------------------------------
 Charge =  0 Multiplicity = 1

 SCF Done:  E(RB3LYP) =  -746.348593463     A.U. after    1 cycles

  Exact polarizability: 157.813 -12.826 143.703   0.455   6.744 136.359
 Approx polarizability: 207.054 -30.382 230.334   1.289  16.130 222.852

                      1                      2                      3
                      A                      A                      A
 Frequencies --     26.3097                44.6721                56.5432
 Red. masses --      3.5203                 4.7200                 3.0278
 Frc consts  --      0.0014                 0.0055                 0.0057
 IR Inten    --      0.7216                 0.4887                 0.1127

                      4                      5                      6
                      A                      A                      A
 Frequencies --     82.6067                89.7236               100.0707
 Red. masses --      2.6537                 1.1808                 2.9051
 Frc consts  --      0.0107                 0.0056                 0.0171
 IR Inten    --      0.7764                 0.6827                 2.0181

                      7                      8                      9
                      A                      A                      A
 Frequencies --    122.4342               172.8809               193.1307
 Red. masses --      1.5173                 4.2416                 2.6172
 Frc consts  --      0.0134                 0.0747                 0.0575
 IR Inten    --      1.0167                 1.9226                 9.0328

                     10                     11                     12
                      A                      A                      A
 Frequencies --    203.7118               241.3237               274.3391
 Red. masses --      3.6656                 3.3909                 2.6492
 Frc consts  --      0.0896                 0.1163                 0.1175
 IR Inten    --      1.0769                 0.4557                 7.4402

                     13                     14                     15
                      A                      A                      A
 Frequencies --    289.9691               340.9227               355.3213
 Red. masses --      2.6735                 3.7061                 2.6052
 Frc consts  --      0.1324                 0.2538                 0.1938
 IR Inten    --      2.2797                 1.6745                 2.6339

                     16                     17                     18
                      A                      A                      A
 Frequencies --    397.0519               405.1200               473.1804
 Red. masses --      2.6808                 2.5039                 2.7304
 Frc consts  --      0.2490                 0.2421                 0.3602
 IR Inten    --      0.3803                 0.4834                 3.9196

                     19                     20                     21
                      A                      A                      A
 Frequencies --    523.2689               542.3149               583.1424
 Red. masses --      2.6859                 4.0800                 3.8500
 Frc consts  --      0.4333                 0.7070                 0.7714
 IR Inten    --     11.7268                11.0044                 0.5413

                     22                     23                     24
                      A                      A                      A
 Frequencies --    625.6940               646.1741               664.5055
 Red. masses --      4.4068                 4.9837                 4.8509
 Frc consts  --      1.0165                 1.2260                 1.2620
 IR Inten    --      4.4694                 3.4031                17.7399

                     25                     26                     27
                      A                      A                      A
 Frequencies --    681.7268               729.2141               768.4018
 Red. masses --      4.0858                 3.8634                 2.7152
 Frc consts  --      1.1188                 1.2104                 0.9446
 IR Inten    --      1.6171                 6.5843                23.4719

                     28                     29                     30
                      A                      A                      A
 Frequencies --    781.5901               792.1035               810.0788
 Red. masses --      2.4736                 1.4898                 1.9055
 Frc consts  --      0.8903                 0.5507                 0.7367
 IR Inten    --      7.8944                12.8385                 2.0233

                     31                     32                     33
                      A                      A                      A
 Frequencies --    825.7889               832.4016               858.0288
 Red. masses --      3.6508                 3.8019                 2.9451
 Frc consts  --      1.4668                 1.5521                 1.2775
 IR Inten    --     34.0562                 3.1474                 0.8839

                     34                     35                     36
                      A                      A                      A
 Frequencies --    892.3897               925.4433               939.6250
 Red. masses --      1.9860                 3.0490                 2.9124
 Frc consts  --      0.9318                 1.5385                 1.5150
 IR Inten    --     35.4730                15.9374                36.8215

                     37                     38                     39
                      A                      A                      A
 Frequencies --    954.9115               972.9071               987.1321
 Red. masses --      2.4378                 2.1203                 2.6101
 Frc consts  --      1.3097                 1.1824                 1.4985
 IR Inten    --      4.3177                16.9624                 1.5457

                     40                     41                     42
                      A                      A                      A
 Frequencies --    998.2578              1003.1246              1030.1226
 Red. masses --      1.8593                 1.6400                 2.5585
 Frc consts  --      1.0916                 0.9723                 1.5996
 IR Inten    --     10.4004                 3.0449                 7.5771

                     43                     44                     45
                      A                      A                      A
 Frequencies --   1039.8565              1045.4540              1077.6611
 Red. masses --      2.9925                 2.2479                 1.4791
 Frc consts  --      1.9065                 1.4475                 1.0121
 IR Inten    --      9.3194                 9.8751                 2.0018

                     46                     47                     48
                      A                      A                      A
 Frequencies --   1084.8125              1088.5323              1096.5908
 Red. masses --      2.1485                 1.9259                 1.6382
 Frc consts  --      1.4897                 1.3446                 1.1607
 IR Inten    --     10.1902                11.2915                30.6885

                     49                     50                     51
                      A                      A                      A
 Frequencies --   1115.2352              1143.4066              1159.8237
 Red. masses --      1.8598                 1.0474                 1.3465
 Frc consts  --      1.3628                 0.8068                 1.0672
 IR Inten    --     15.6517                 2.2920                11.8427

                     52                     53                     54
                      A                      A                      A
 Frequencies --   1175.4327              1197.0227              1200.7918
 Red. masses --      1.7266                 2.1075                 1.1663
 Frc consts  --      1.4055                 1.7792                 0.9908
 IR Inten    --      1.6164                65.9283                 0.9798

                     55                     56                     57
                      A                      A                      A
 Frequencies --   1225.3118              1231.0175              1258.6322
 Red. masses --      1.2680                 1.2723                 1.5996
 Frc consts  --      1.1217                 1.1360                 1.4930
 IR Inten    --     18.2900                10.8238                21.1577

                     58                     59                     60
                      A                      A                      A
 Frequencies --   1267.1468              1294.2923              1301.0851
 Red. masses --      1.3379                 1.2618                 1.3545
 Frc consts  --      1.2657                 1.2454                 1.3509
 IR Inten    --     15.4508                 1.1317                 4.1904

                     61                     62                     63
                      A                      A                      A
 Frequencies --   1310.6995              1313.9926              1321.2456
 Red. masses --      1.5517                 1.4573                 4.8874
 Frc consts  --      1.5706                 1.4825                 5.0268
 IR Inten    --      3.5970                 1.4075                16.1604

                     64                     65                     66
                      A                      A                      A
 Frequencies --   1336.9119              1355.5242              1375.0618
 Red. masses --      1.3775                 1.4210                 1.5422
 Frc consts  --      1.4506                 1.5384                 1.7181
 IR Inten    --      0.7754                 6.7051                17.0745

                     67                     68                     69
                      A                      A                      A
 Frequencies --   1404.0765              1424.3163              1428.7172
 Red. masses --      1.5802                 2.6875                 1.5353
 Frc consts  --      1.8354                 3.2123                 1.8464
 IR Inten    --     22.0966                20.6074                 4.8389

                     70                     71                     72
                      A                      A                      A
 Frequencies --   1437.8412              1477.9151              1491.0757
 Red. masses --      1.5696                 1.4448                 1.3795
 Frc consts  --      1.9119                 1.8594                 1.8071
 IR Inten    --      3.8480                 6.4514                20.3371

                     73                     74                     75
                      A                      A                      A
 Frequencies --   1503.2446              1508.8082              1509.6520
 Red. masses --      3.5231                 1.1116                 1.5031
 Frc consts  --      4.6907                 1.4910                 2.0183
 IR Inten    --     19.9453                 1.0105                 7.2711

                     76                     77                     78
                      A                      A                      A
 Frequencies --   1514.2183              1521.3509              1522.4132
 Red. masses --      1.0446                 1.0921                 1.0614
 Frc consts  --      1.4112                 1.4893                 1.4494
 IR Inten    --      5.5283                 5.3153                 5.3443

                     79                     80                     81
                      A                      A                      A
 Frequencies --   1529.0847              1537.6741              1550.1772
 Red. masses --      1.2520                 1.1226                 1.3283
 Frc consts  --      1.7248                 1.5639                 1.8807
 IR Inten    --      1.2985                 8.9236                 3.9280

                     82                     83                     84
                      A                      A                      A
 Frequencies --   1604.3984              1787.1368              3049.2489
 Red. masses --      5.4874                10.2309                 1.0381
 Frc consts  --      8.3223                19.2523                 5.6870
 IR Inten    --     44.8309               125.5167                36.1622

                     85                     86                     87
                      A                      A                      A
 Frequencies --   3055.4906              3065.4365              3067.8841
 Red. masses --      1.0807                 1.0430                 1.0597
 Frc consts  --      5.9447                 5.7747                 5.8766
 IR Inten    --     16.4443                37.9718                12.3079

                     88                     89                     90
                      A                      A                      A
 Frequencies --   3072.8693              3085.5726              3099.4341
 Red. masses --      1.0686                 1.0603                 1.1013
 Frc consts  --      5.9452                 5.9480                 6.2332
 IR Inten    --     39.9381                25.8535                20.5819

                     91                     92                     93
                      A                      A                      A
 Frequencies --   3102.1166              3118.7483              3122.1349
 Red. masses --      1.0672                 1.1044                 1.0891
 Frc consts  --      6.0507                 6.3290                 6.2549
 IR Inten    --     21.9966                10.4045                54.5896

                     94                     95                     96
                      A                      A                      A
 Frequencies --   3129.4710              3135.4485              3145.5162
 Red. masses --      1.1029                 1.1026                 1.0944
 Frc consts  --      6.3642                 6.3863                 6.3800
 IR Inten    --     13.7061                14.9146                13.4238

                     97                     98                     99
                      A                      A                      A
 Frequencies --   3145.7841              3159.7196              3164.5944
 Red. masses --      1.0999                 1.0893                 1.1005
 Frc consts  --      6.4131                 6.4077                 6.4934
 IR Inten    --      9.7160                12.0731                17.2285

                    100                    101                    102
                      A                      A                      A
 Frequencies --   3185.5027              3260.8404              3448.2370
 Red. masses --      1.1057                 1.0970                 1.0741
 Frc consts  --      6.6105                 6.8726                 7.5246
 IR Inten    --      1.9815                 2.6613                 4.2260

 - Thermochemistry -
 -------------------
 Temperature   298.150 Kelvin.  Pressure   1.00000 Atm.
 Atom     1 has atomic number  6 and mass  12.00000

 Molecular mass:   233.15281 amu.
 Principal axes and moments of inertia in atomic units:
                           1         2         3
     Eigenvalues --  2285.952345112.285045752.61929
           X            0.99998  -0.00589  -0.00390
           Y            0.00603   0.99924   0.03847
           Z            0.00367  -0.03850   0.99925
 This molecule is an asymmetric top.
 Rotational symmetry number  1.
 Warning -- assumption of classical behavior for rotation
           may cause significant error
 Rotational temperatures (Kelvin)      0.03789     0.01694     0.01506
 Rotational constants (GHZ):           0.78949     0.35302     0.31373
 Zero-point vibrational energy     823146.5 (Joules/Mol)
                                  196.73674 (Kcal/Mol)
 Warning -- explicit consideration of  21 degrees of freedom as
           vibrations may cause significant error
 Vibrational temperatures:     37.85    64.27    81.35   118.85   129.09
          (Kelvin)            143.98   176.16   248.74   277.87   293.10
                              347.21   394.71   417.20   490.51   511.23
                              571.27   582.88   680.80   752.87   780.27
                              839.01   900.23   929.70   956.08   980.85
                             1049.18  1105.56  1124.53  1139.66  1165.52
                             1188.13  1197.64  1234.51  1283.95  1331.51
                             1351.91  1373.90  1399.80  1420.26  1436.27
                             1443.27  1482.12  1496.12  1504.18  1550.51
                             1560.80  1566.16  1577.75  1604.57  1645.11
                             1668.73  1691.19  1722.25  1727.67  1762.95
                             1771.16  1810.89  1823.14  1862.20  1871.97
                             1885.80  1890.54  1900.98  1923.52  1950.30
                             1978.41  2020.15  2049.27  2055.61  2068.73
                             2126.39  2145.33  2162.83  2170.84  2172.05
                             2178.62  2188.88  2190.41  2200.01  2212.37
                             2230.36  2308.37  2571.29  4387.19  4396.17
                             4410.48  4414.00  4421.17  4439.45  4459.39
                             4463.25  4487.18  4492.06  4502.61  4511.21
                             4525.70  4526.08  4546.13  4553.15  4583.23
                             4691.62  4961.24

 Zero-point correction=                           0.313520 (Hartree/Particle)
 Thermal correction to Energy=                    0.329179
 Thermal correction to Enthalpy=                  0.330124
 Thermal correction to Gibbs Free Energy=         0.269277
 Sum of electronic and zero-point Energies=           -746.035074
 Sum of electronic and thermal Energies=              -746.019414
 Sum of electronic and thermal Enthalpies=            -746.018470
 Sum of electronic and thermal Free Energies=         -746.079316

                     E (Thermal)             CV                S
                      KCal/Mol        Cal/Mol-Kelvin    Cal/Mol-Kelvin
 Total                  206.563             60.190            128.062
 Electronic               0.000              0.000              0.000
 Translational            0.889              2.981             42.241
 Rotational               0.889              2.981             32.575
 Vibrational            204.786             54.228             53.246
 Vibration     1          0.593              1.985              6.090
 Vibration     2          0.595              1.980              5.040
 Vibration     3          0.596              1.975              4.574
 Vibration     4          0.600              1.961              3.828
 Vibration     5          0.602              1.956              3.666
 Vibration     6          0.604              1.949              3.453
 Vibration     7          0.610              1.930              3.062
 Vibration     8          0.626              1.876              2.404
 Vibration     9          0.635              1.849              2.198
 Vibration    10          0.639              1.835              2.099
 Vibration    11          0.658              1.777              1.793
 Vibration    12          0.677              1.721              1.569
 Vibration    13          0.686              1.692              1.474
 Vibration    14          0.720              1.594              1.208
 Vibration    15          0.731              1.564              1.143
 Vibration    16          0.764              1.476              0.974
 Vibration    17          0.770              1.459              0.944
 Vibration    18          0.830              1.310              0.729
 Vibration    19          0.878              1.198              0.602
 Vibration    20          0.897              1.157              0.560
 Vibration    21          0.940              1.068              0.480

 Optimization completed.
    -- Stationary point found.
 Normal termination of Gaussian 16 at Fri Dec 11 12:32:57 2020.

 ----------------------------------------------------------------------
 # B3LYP/6-311++G(d,p) empiricaldispersion=gd3bj scf=xqc pop=npa geom=c
 heck
 ----------------------------------------------------------------------

 ---------------------------------------
 CID_116576008_JID_7096_Energie_neutraal
 ---------------------------------------
 Structure from the checkpoint file:  "JID_7096.chk"
 Charge =  0 Multiplicity = 1

 SCF Done:  E(RB3LYP) =  -746.550585973     A.U. after   15 cycles
 Normal termination of Gaussian 16 at Fri Dec 11 12:41:45 2020.

 ----------------------------------------------------------------------
 # B3LYP/6-311++G(d,p) empiricaldispersion=gd3bj scf=xqc pop=npa geom=c
 heck
 ----------------------------------------------------------------------

 -------------------------------------
 CID_116576008_JID_7096_Energie_kation
 -------------------------------------
 Structure from the checkpoint file:  "JID_7096.chk"
 Charge =  1 Multiplicity = 2

 SCF Done:  E(UB3LYP) =  -746.253254780     A.U. after   29 cycles
 Normal termination of Gaussian 16 at Fri Dec 11 13:01:42 2020.
 Gaussian 16:  ES64L-G16RevA.03 25-Dec-2016

 ----------------------------------------------------------------------
 # B3LYP/6-311++G(d,p) empiricaldispersion=gd3bj scf=xqc pop=npa geom=c
 heck
 ----------------------------------------------------------------------

 ------------------------------------
 CID_116576008_JID_7096_Energie_anion
 ------------------------------------
 Structure from the checkpoint file:  "JID_7096.chk"
 Charge = -1 Multiplicity = 2

                         Standard orientation:
 ---------------------------------------------------------------------
 Center     Atomic      Atomic             Coordinates (Angstroms)
 Number     Number       Type             X           Y           Z
 ---------------------------------------------------------------------
      1          6           0        3.858927   -2.110327   -0.210725
      2          6           0        2.977224   -0.900830   -0.174639
      3          7           0        2.764380   -0.252420    0.973267
      4          7           0        1.923009    0.764294    0.661699
      5          6           0        1.612985    0.791318   -0.668794
      6          6           0        2.273849   -0.283717   -1.238088
      7          6           0        0.623655    1.753766   -1.248350
      8          6           0       -0.795595    1.448568   -0.747035
      9          8           0       -1.414978    2.279843   -0.104079
     10          6           0       -1.329031    0.061053   -1.021601
     11          6           0       -2.878548   -0.030490   -1.112956
     12          6           0       -3.206292   -1.120931   -0.058798
     13          6           0       -3.042280   -0.518186    1.351600
     14          6           0       -1.490950   -0.446114    1.490061
     15          6           0       -1.025051   -0.990358    0.128796
     16          7           0       -2.039769   -2.035153   -0.096410
     17          6           0        1.589313    1.736980    1.685878
     18          1           0        4.241075   -2.318972    0.791769
     19          1           0        3.314203   -2.994182   -0.563620
     20          1           0        4.712798   -1.963137   -0.882790
     21          1           0        2.240504   -0.583686   -2.276327
     22          1           0        0.852162    2.794562   -0.999940
     23          1           0        0.644147    1.651990   -2.339366
     24          1           0       -0.848850   -0.320692   -1.929874
     25          1           0       -3.353347    0.928672   -0.892262
     26          1           0       -3.188866   -0.345002   -2.115297
     27          1           0       -4.153294   -1.639374   -0.225254
     28          1           0       -3.514200    0.464599    1.430806
     29          1           0       -3.479114   -1.177109    2.106572
     30          1           0       -1.135438    0.563548    1.695454
     31          1           0       -1.129391   -1.106249    2.282308
     32          1           0       -0.001786   -1.364450    0.105786
     33          1           0       -1.934566   -2.439776   -1.029196
     34          1           0        1.425321    1.204575    2.624014
     35          1           0        2.406333    2.454561    1.820518
     36          1           0        0.679559    2.269936    1.407336
 ---------------------------------------------------------------------

 SCF Done:  E(UB3LYP) =  -746.542881495     A.U. after   33 cycles
 SCF Done:  E(UB3LYP) =  -746.542881494     a.u. after    1 cycles

 The electronic state is 2-A.
 Alpha  occ. eigenvalues --  -18.98091 -14.27974 -14.21745 -14.18945 -10.12079
 Alpha  occ. eigenvalues --  -10.11228 -10.10566 -10.09186 -10.09102 -10.08974
 Alpha  occ. eigenvalues --  -10.07394 -10.06991 -10.06198 -10.06167 -10.05741
 Alpha  occ. eigenvalues --  -10.05447 -10.05077  -0.94181  -0.91754  -0.83408
 Alpha  occ. eigenvalues --   -0.74633  -0.70314  -0.66205  -0.64841  -0.63998
 Alpha  occ. eigenvalues --   -0.62965  -0.61118  -0.57171  -0.51549  -0.48643
 Alpha  occ. eigenvalues --   -0.47112  -0.46040  -0.44116  -0.42011  -0.41144
 Alpha  occ. eigenvalues --   -0.39474  -0.38278  -0.37571  -0.35574  -0.33760
 Alpha  occ. eigenvalues --   -0.33671  -0.32846  -0.32449  -0.31157  -0.30171
 Alpha  occ. eigenvalues --   -0.29688  -0.29193  -0.28559  -0.27994  -0.27389
 Alpha  occ. eigenvalues --   -0.26700  -0.25753  -0.25615  -0.24917  -0.24140
 Alpha  occ. eigenvalues --   -0.22858  -0.21690  -0.19123  -0.18779  -0.15210
 Alpha  occ. eigenvalues --   -0.13937  -0.13796  -0.11734   0.04614
 Alpha virt. eigenvalues --    0.06938   0.07385   0.07885   0.08337   0.09187
 Alpha virt. eigenvalues --    0.09368   0.10000   0.10519   0.10668   0.10869
 Alpha virt. eigenvalues --    0.11500   0.12211   0.12285   0.12500   0.13346

  Beta  occ. eigenvalues --  -18.97841 -14.27954 -14.21736 -14.18924 -10.11788
  Beta  occ. eigenvalues --  -10.11227 -10.10547 -10.09183 -10.09107 -10.08929
  Beta  occ. eigenvalues --  -10.07404 -10.06978 -10.06213 -10.06166 -10.05741
  Beta  occ. eigenvalues --  -10.05426 -10.05044  -0.94152  -0.91257  -0.83373
  Beta  occ. eigenvalues --   -0.74606  -0.70223  -0.66130  -0.64752  -0.63983
  Beta  occ. eigenvalues --   -0.62904  -0.61021  -0.57138  -0.51399  -0.48597
  Beta  occ. eigenvalues --   -0.47019  -0.45904  -0.44064  -0.41954  -0.40968
  Beta  occ. eigenvalues --   -0.39330  -0.38172  -0.37498  -0.35423  -0.33688
  Beta  occ. eigenvalues --   -0.33483  -0.32710  -0.32403  -0.31056  -0.30027
  Beta  occ. eigenvalues --   -0.29634  -0.29118  -0.28510  -0.27913  -0.27311
  Beta  occ. eigenvalues --   -0.26656  -0.25688  -0.25453  -0.24651  -0.23590
  Beta  occ. eigenvalues --   -0.22737  -0.21471  -0.19032  -0.18750  -0.15087
  Beta  occ. eigenvalues --   -0.13862  -0.13698  -0.11600
  Beta virt. eigenvalues --    0.06983   0.07560   0.07910   0.08623   0.09323
  Beta virt. eigenvalues --    0.09555   0.10032   0.10103   0.10775   0.10840
  Beta virt. eigenvalues --    0.11119   0.11967   0.12293   0.12371   0.12757

 Mulliken charges and spin densities:
               1          2
     1  C    0.477072  -1.120521
     2  C    0.592758  -0.587319
     3  N   -0.294758   0.101357
     4  N    0.373525  -0.089117
     5  C   -0.229777   0.698278
     6  C    0.336488  -0.489199
     7  C   -0.356692  -0.747735
     8  C   -0.694990   0.488019
     9  O   -0.258350   0.080793
    10  C   -0.595182   1.217474
    11  C   -0.071283  -0.843970
    12  C   -0.106336   0.539685
    13  C   -0.278051  -0.415641
    14  C   -0.909199   0.486185
    15  C    1.408284  -1.867243
    16  N   -0.250450   0.125916
    17  C   -0.299899   0.016123
    18  H    0.095702   0.042383
    19  H   -0.029015   0.185937
    20  H   -0.020923   0.164961
    21  H   -1.014958   1.193102
    22  H    0.057251   0.124584
    23  H   -0.444324   0.658798
    24  H   -0.227978   0.530815
    25  H    0.191785   0.004129
    26  H   -0.279374   0.422273
    27  H    0.015216   0.213724
    28  H    0.106695   0.035448
    29  H    0.163070  -0.028259
    30  H    0.161088  -0.028173
    31  H    0.084858   0.074012
    32  H    0.882821  -0.540252
    33  H   -0.058140   0.303263
    34  H    0.142749   0.023218
    35  H    0.125982   0.038372
    36  H    0.204333  -0.011420
 Sum of Mulliken charges =  -1.00000   1.00000

 Dipole moment (field-independent basis, Debye):
    X=             -0.5708    Y=              1.5563    Z=              6.5029  Tot=              6.7108
 Quadrupole moment (field-independent basis, Debye-Ang):
   XX=           -150.5238   YY=           -139.3156   ZZ=           -147.1535
   XY=              2.7572   XZ=              2.9261   YZ=              0.0706

 Summary of Natural Population Analysis:

                                       Natural Population
                Natural  -----------------------------------------------
    Atom  No    Charge         Core      Valence    Rydberg      Total
 -----------------------------------------------------------------------
      C    1   -0.29850      0.99963     2.29354    0.00533     3.29850
      C    2    0.07211      0.99960     1.91391    0.01437     2.92789
      N    3   -0.16815      0.99970     2.65768    0.01078     3.66815
      N    4   -0.11303      0.99961     2.60209    0.01133     3.61303
      C    5    0.09601      0.99951     1.89076    0.01371     2.90399
      C    6   -0.15792      0.99943     2.14887    0.00962     3.15792
      C    7   -0.25165      0.99956     2.24224    0.00986     3.25165
      C    8    0.33206      0.99962     1.64643    0.02190     2.66794
      O    9   -0.28381      0.99987     3.27800    0.00593     4.28381
      C   10   -0.16927      0.99954     2.15565    0.01407     3.16927
      C   11   -0.19524      0.99962     2.18592    0.00971     3.19524
      C   12   -0.01760      0.99961     2.00364    0.01435     3.01760
      C   13   -0.19240      0.99962     2.18537    0.00741     3.19240
      C   14   -0.19755      0.99962     2.19040    0.00754     3.19755
      C   15   -0.00431      0.99960     1.99061    0.01410     3.00431
      N   16   -0.33937      0.99976     2.82864    0.01097     3.83937
      C   17   -0.17730      0.99964     2.17117    0.00649     3.17730
      H   18    0.10563      0.00000     0.39348    0.00090     0.39437
      H   19    0.10431      0.00000     0.39480    0.00089     0.39569
      H   20    0.10262      0.00000     0.39649    0.00089     0.39738
      H   21    0.11375      0.00000     0.38324    0.00301     0.38625
      H   22    0.11035      0.00000     0.38851    0.00114     0.38965
      H   23    0.12341      0.00000     0.37332    0.00328     0.37659
      H   24    0.11164      0.00000     0.38423    0.00413     0.38836
      H   25    0.10768      0.00000     0.39115    0.00117     0.39232
      H   26    0.09919      0.00000     0.39964    0.00117     0.40081
      H   27    0.09554      0.00000     0.40360    0.00086     0.40446
      H   28    0.10023      0.00000     0.39886    0.00092     0.39977
      H   29    0.09618      0.00000     0.40289    0.00093     0.40382
      H   30    0.10563      0.00000     0.39327    0.00110     0.39437
      H   31    0.09917      0.00000     0.39983    0.00100     0.40083
      H   32    0.10763      0.00000     0.39036    0.00201     0.39237
      H   33    0.17536      0.00000     0.32214    0.00249     0.32464
      H   34    0.10382      0.00000     0.39529    0.00089     0.39618
      H   35    0.09253      0.00000     0.40638    0.00109     0.40747
      H   36    0.11127      0.00000     0.38768    0.00105     0.38873
 =======================================================================
   * Total *   -0.00000     16.99354    45.79008    0.21638    63.00000

 Normal termination of Gaussian 16 at Fri Dec 11 13:21:37 2020.
