 Gaussian 16, Revision A.03,

 -----------------------------------------------------------
 # opt freq B3LYP/6-31G(d) empiricaldispersion=gd3bj scf=xqc
 -----------------------------------------------------------

 -------------------------------
 CID_115706840_JID_3022_neutraal
 -------------------------------
 Symbolic Z-matrix:
 Charge =  0 Multiplicity = 1

 SCF Done:  E(RB3LYP) =  -577.849724873     A.U. after   14 cycles
 SCF Done:  E(RB3LYP) =  -577.854500832     A.U. after   12 cycles
 SCF Done:  E(RB3LYP) =  -577.854580453     A.U. after   12 cycles
 SCF Done:  E(RB3LYP) =  -577.855490823     A.U. after   12 cycles
 SCF Done:  E(RB3LYP) =  -577.855719361     A.U. after   11 cycles
 SCF Done:  E(RB3LYP) =  -577.855786824     A.U. after   11 cycles
 SCF Done:  E(RB3LYP) =  -577.855940386     A.U. after   10 cycles
 SCF Done:  E(RB3LYP) =  -577.856228130     A.U. after   12 cycles
 SCF Done:  E(RB3LYP) =  -577.856465720     A.U. after   11 cycles
 SCF Done:  E(RB3LYP) =  -577.856539539     A.U. after   11 cycles
 SCF Done:  E(RB3LYP) =  -577.860851458     A.U. after    8 cycles
 SCF Done:  E(RB3LYP) =  -577.860853716     A.U. after    8 cycles
 SCF Done:  E(RB3LYP) =  -577.860854780     A.U. after    8 cycles
 SCF Done:  E(RB3LYP) =  -577.860855221     A.U. after    7 cycles
 SCF Done:  E(RB3LYP) =  -577.860855433     A.U. after    7 cycles
 Optimization completed.
    -- Stationary point found.
 Normal termination of Gaussian 16 at Wed Dec  9 23:00:48 2020.

 --------------------------------------------------------------------
 #N Geom=AllCheck Guess=TCheck SCRF=Check GenChk RB3LYP/6-31G(d) Freq
 --------------------------------------------------------------------

 Structure from the checkpoint file:  "JID_3022.chk"
 -------------------------------
 CID_115706840_JID_3022_neutraal
 -------------------------------
 Charge =  0 Multiplicity = 1

 SCF Done:  E(RB3LYP) =  -577.860855433     A.U. after    1 cycles

  Exact polarizability: 141.040   1.893 113.441  -5.596  -4.925 102.402
 Approx polarizability: 170.494   4.184 154.266  -9.279 -14.715 166.531

                      1                      2                      3
                      A                      A                      A
 Frequencies --     34.7774                53.0727                67.0595
 Red. masses --      3.7493                 3.1729                 2.8925
 Frc consts  --      0.0027                 0.0053                 0.0077
 IR Inten    --      2.6821                 2.0269                 0.3091

                      4                      5                      6
                      A                      A                      A
 Frequencies --     80.1354                88.5609                95.9235
 Red. masses --      2.3955                 1.7881                 3.0518
 Frc consts  --      0.0091                 0.0083                 0.0165
 IR Inten    --      1.2591                 0.7768                 2.8047

                      7                      8                      9
                      A                      A                      A
 Frequencies --    154.2268               172.2513               176.7345
 Red. masses --      2.0779                 2.9331                 2.7381
 Frc consts  --      0.0291                 0.0513                 0.0504
 IR Inten    --      1.5047                 1.1011                 3.5367

                     10                     11                     12
                      A                      A                      A
 Frequencies --    207.0233               229.3411               238.4158
 Red. masses --      2.3080                 1.0931                 1.8261
 Frc consts  --      0.0583                 0.0339                 0.0612
 IR Inten    --      0.1313                 0.4821                 2.0920

                     13                     14                     15
                      A                      A                      A
 Frequencies --    273.1580               304.8347               343.1685
 Red. masses --      1.9922                 2.5595                 2.8348
 Frc consts  --      0.0876                 0.1401                 0.1967
 IR Inten    --      1.1169                 1.2621                 5.2013

                     16                     17                     18
                      A                      A                      A
 Frequencies --    365.3436               397.8361               442.5451
 Red. masses --      2.5533                 2.6450                 2.7107
 Frc consts  --      0.2008                 0.2467                 0.3128
 IR Inten    --      0.1557                 2.9619                 3.6237

                     19                     20                     21
                      A                      A                      A
 Frequencies --    470.2845               489.6869               555.2239
 Red. masses --      1.4531                 2.1603                 2.8341
 Frc consts  --      0.1893                 0.3052                 0.5148
 IR Inten    --     34.5118                 7.3711                10.9703

                     22                     23                     24
                      A                      A                      A
 Frequencies --    578.2159               613.0948               640.0418
 Red. masses --      4.2827                 2.3055                 2.8578
 Frc consts  --      0.8436                 0.5106                 0.6898
 IR Inten    --     17.8972                22.4253                29.5102

                     25                     26                     27
                      A                      A                      A
 Frequencies --    738.0770               801.5464               810.9034
 Red. masses --      1.7902                 2.1799                 1.1304
 Frc consts  --      0.5746                 0.8252                 0.4380
 IR Inten    --     56.9008                15.5552                10.0217

                     28                     29                     30
                      A                      A                      A
 Frequencies --    844.0075               860.8054               882.5128
 Red. masses --      1.4016                 2.3991                 2.8956
 Frc consts  --      0.5883                 1.0474                 1.3287
 IR Inten    --      1.2626                19.6276                 6.6225

                     31                     32                     33
                      A                      A                      A
 Frequencies --    930.8584               943.9727               956.4599
 Red. masses --      2.9850                 1.2031                 1.8786
 Frc consts  --      1.5239                 0.6316                 1.0125
 IR Inten    --      9.1542                 2.3600                 1.6954

                     34                     35                     36
                      A                      A                      A
 Frequencies --    976.9073              1014.9973              1027.9507
 Red. masses --      1.4499                 2.3443                 2.0267
 Frc consts  --      0.8153                 1.4230                 1.2618
 IR Inten    --      0.9849                30.0064                14.1556

                     37                     38                     39
                      A                      A                      A
 Frequencies --   1058.7293              1065.9127              1075.5509
 Red. masses --      1.5834                 1.5385                 1.6909
 Frc consts  --      1.0457                 1.0299                 1.1524
 IR Inten    --      8.6151                25.3516                16.1986

                     40                     41                     42
                      A                      A                      A
 Frequencies --   1099.2178              1133.9418              1156.8653
 Red. masses --      1.3717                 1.9850                 1.4636
 Frc consts  --      0.9765                 1.5038                 1.1541
 IR Inten    --      1.1268                 7.8309                 4.4206

                     43                     44                     45
                      A                      A                      A
 Frequencies --   1161.8635              1164.1777              1188.9056
 Red. masses --      1.2661                 1.4634                 2.7301
 Frc consts  --      1.0070                 1.1686                 2.2737
 IR Inten    --      4.6583                 1.7390                35.7988

                     46                     47                     48
                      A                      A                      A
 Frequencies --   1206.9497              1207.7302              1217.6403
 Red. masses --      1.9461                 1.9814                 2.3371
 Frc consts  --      1.6703                 1.7028                 2.0416
 IR Inten    --      3.1804                 7.6528                 1.2770

                     49                     50                     51
                      A                      A                      A
 Frequencies --   1220.9910              1248.1553              1271.5150
 Red. masses --      1.4123                 2.0006                 1.2190
 Frc consts  --      1.2405                 1.8363                 1.1612
 IR Inten    --      2.0746                 4.5650                 3.7136

                     52                     53                     54
                      A                      A                      A
 Frequencies --   1301.2517              1324.8635              1358.6744
 Red. masses --      1.3813                 1.4311                 1.4420
 Frc consts  --      1.3781                 1.4800                 1.5684
 IR Inten    --     42.6220                43.7753                32.9890

                     55                     56                     57
                      A                      A                      A
 Frequencies --   1369.4066              1395.4826              1411.4707
 Red. masses --      1.5049                 1.4287                 1.6152
 Frc consts  --      1.6628                 1.6392                 1.8959
 IR Inten    --     48.2420                18.2956                12.8408

                     58                     59                     60
                      A                      A                      A
 Frequencies --   1420.5255              1434.9807              1443.2342
 Red. masses --      1.2850                 1.4004                 1.2590
 Frc consts  --      1.5278                 1.6990                 1.5451
 IR Inten    --     13.1914                41.4675                19.4590

                     61                     62                     63
                      A                      A                      A
 Frequencies --   1477.8694              1493.9859              1503.5532
 Red. masses --      1.6642                 1.1030                 1.2788
 Frc consts  --      2.1416                 1.4506                 1.7033
 IR Inten    --     43.3404                 4.1220                43.4511

                     64                     65                     66
                      A                      A                      A
 Frequencies --   1515.4894              1518.6331              1521.0355
 Red. masses --      1.1128                 1.0525                 1.2230
 Frc consts  --      1.5059                 1.4301                 1.6671
 IR Inten    --      6.4724                 6.1711                22.1604

                     67                     68                     69
                      A                      A                      A
 Frequencies --   1525.2765              1531.3739              1534.5667
 Red. masses --      1.0541                 1.1686                 1.0572
 Frc consts  --      1.4449                 1.6147                 1.4668
 IR Inten    --      2.1568                 2.3828                 1.3585

                     70                     71                     72
                      A                      A                      A
 Frequencies --   1542.0980              1547.8887              1548.7356
 Red. masses --      1.3038                 1.0523                 1.0775
 Frc consts  --      1.8268                 1.4856                 1.5227
 IR Inten    --      4.1680                14.5489                33.8012

                     73                     74                     75
                      A                      A                      A
 Frequencies --   1780.3594              2951.7788              3006.3693
 Red. masses --      7.5740                 1.0727                 1.0813
 Frc consts  --     14.1446                 5.5069                 5.7579
 IR Inten    --    306.5244                38.2252                 3.2192

                     76                     77                     78
                      A                      A                      A
 Frequencies --   3020.3468              3023.9378              3034.4960
 Red. masses --      1.0839                 1.0841                 1.0415
 Frc consts  --      5.8257                 5.8406                 5.6502
 IR Inten    --     25.0048                42.8413                21.2981

                     79                     80                     81
                      A                      A                      A
 Frequencies --   3041.3698              3041.9484              3094.5389
 Red. masses --      1.0422                 1.0408                 1.0984
 Frc consts  --      5.6797                 5.6743                 6.1973
 IR Inten    --     36.7776                78.3483                 8.8533

                     82                     83                     84
                      A                      A                      A
 Frequencies --   3097.8202              3102.6418              3128.6859
 Red. masses --      1.1018                 1.0978                 1.0998
 Frc consts  --      6.2296                 6.2266                 6.3428
 IR Inten    --     26.4442                75.6132                36.4095

                     85                     86                     87
                      A                      A                      A
 Frequencies --   3138.7567              3148.1632              3149.5278
 Red. masses --      1.0541                 1.0980                 1.0765
 Frc consts  --      6.1185                 6.4114                 6.2913
 IR Inten    --     15.9968                14.2512                21.3763

                     88                     89                     90
                      A                      A                      A
 Frequencies --   3150.3723              3156.2145              3215.2587
 Red. masses --      1.1003                 1.0695                 1.1173
 Frc consts  --      6.4340                 6.2770                 6.8053
 IR Inten    --     16.9026                21.3400                12.5837

                     91                     92                     93
                      A                      A                      A
 Frequencies --   3242.6844              3494.6483              3616.1054
 Red. masses --      1.1146                 1.0732                 1.0767
 Frc consts  --      6.9053                 7.7222                 8.2950
 IR Inten    --      8.7715                25.7226                30.7519

 - Thermochemistry -
 -------------------
 Temperature   298.150 Kelvin.  Pressure   1.00000 Atm.
 Atom     1 has atomic number  6 and mass  12.00000

 Molecular mass:   184.15756 amu.
 Principal axes and moments of inertia in atomic units:
                           1         2         3
     Eigenvalues --  1489.261214216.431274972.48916
           X            0.99991   0.00185  -0.01339
           Y           -0.00185   1.00000   0.00005
           Z            0.01339  -0.00002   0.99991
 This molecule is an asymmetric top.
 Rotational symmetry number  1.
 Warning -- assumption of classical behavior for rotation
           may cause significant error
 Rotational temperatures (Kelvin)      0.05816     0.02054     0.01742
 Rotational constants (GHZ):           1.21184     0.42803     0.36295
 Zero-point vibrational energy     781726.8 (Joules/Mol)
                                  186.83720 (Kcal/Mol)
 Warning -- explicit consideration of  23 degrees of freedom as
           vibrations may cause significant error
 Vibrational temperatures:     50.04    76.36    96.48   115.30   127.42
          (Kelvin)            138.01   221.90   247.83   254.28   297.86
                              329.97   343.03   393.01   438.59   493.74
                              525.65   572.40   636.72   676.63   704.55
                              798.84   831.92   882.11   920.88  1061.93
                             1153.25  1166.71  1214.34  1238.51  1269.74
                             1339.30  1358.17  1376.13  1405.55  1460.35
                             1478.99  1523.28  1533.61  1547.48  1581.53
                             1631.49  1664.47  1671.66  1674.99  1710.57
                             1736.53  1737.65  1751.91  1756.73  1795.82
                             1829.43  1872.21  1906.18  1954.83  1970.27
                             2007.79  2030.79  2043.82  2064.62  2076.49
                             2126.32  2149.51  2163.28  2180.45  2184.97
                             2188.43  2194.53  2203.31  2207.90  2218.74
                             2227.07  2228.29  2561.54  4246.95  4325.49
                             4345.61  4350.77  4365.96  4375.85  4376.69
                             4452.35  4457.07  4464.01  4501.48  4515.97
                             4529.50  4531.47  4532.68  4541.09  4626.04
                             4665.50  5028.02  5202.77

 Zero-point correction=                           0.297744 (Hartree/Particle)
 Thermal correction to Energy=                    0.313157
 Thermal correction to Enthalpy=                  0.314101
 Thermal correction to Gibbs Free Energy=         0.254595
 Sum of electronic and zero-point Energies=           -577.563111
 Sum of electronic and thermal Energies=              -577.547698
 Sum of electronic and thermal Enthalpies=            -577.546754
 Sum of electronic and thermal Free Energies=         -577.606261

                     E (Thermal)             CV                S
                      KCal/Mol        Cal/Mol-Kelvin    Cal/Mol-Kelvin
 Total                  196.509             56.451            125.242
 Electronic               0.000              0.000              0.000
 Translational            0.889              2.981             41.538
 Rotational               0.889              2.981             31.813
 Vibrational            194.732             50.490             51.891
 Vibration     1          0.594              1.983              5.536
 Vibration     2          0.596              1.976              4.699
 Vibration     3          0.598              1.970              4.238
 Vibration     4          0.600              1.963              3.888
 Vibration     5          0.601              1.957              3.692
 Vibration     6          0.603              1.952              3.535
 Vibration     7          0.620              1.898              2.619
 Vibration     8          0.626              1.877              2.411
 Vibration     9          0.628              1.871              2.363
 Vibration    10          0.641              1.830              2.070
 Vibration    11          0.652              1.796              1.884
 Vibration    12          0.656              1.782              1.815
 Vibration    13          0.676              1.723              1.576
 Vibration    14          0.696              1.665              1.390
 Vibration    15          0.722              1.589              1.197
 Vibration    16          0.739              1.544              1.099
 Vibration    17          0.764              1.475              0.971
 Vibration    18          0.802              1.377              0.819
 Vibration    19          0.827              1.316              0.737
 Vibration    20          0.846              1.273              0.684
 Vibration    21          0.911              1.128              0.533
 Vibration    22          0.935              1.078              0.489
 Vibration    23          0.972              1.004              0.428

                           ! Non-Optimized Parameters !
 Normal termination of Gaussian 16 at Wed Dec  9 23:09:04 2020.

 ----------------------------------------------------------------------
 # B3LYP/6-311++G(d,p) empiricaldispersion=gd3bj scf=xqc pop=npa geom=c
 heck
 ----------------------------------------------------------------------

 ---------------------------------------
 CID_115706840_JID_3022_Energie_neutraal
 ---------------------------------------
 Structure from the checkpoint file:  "JID_3022.chk"
 Charge =  0 Multiplicity = 1

 SCF Done:  E(RB3LYP) =  -578.032802182     A.U. after   15 cycles
 Normal termination of Gaussian 16 at Wed Dec  9 23:12:37 2020.

 ----------------------------------------------------------------------
 # B3LYP/6-311++G(d,p) empiricaldispersion=gd3bj scf=xqc pop=npa geom=c
 heck
 ----------------------------------------------------------------------

 -------------------------------------
 CID_115706840_JID_3022_Energie_kation
 -------------------------------------
 Structure from the checkpoint file:  "JID_3022.chk"
 Charge =  1 Multiplicity = 2

 SCF Done:  E(UB3LYP) =  -577.735892665     A.U. after   26 cycles
 Normal termination of Gaussian 16 at Wed Dec  9 23:20:46 2020.
 Gaussian 16:  ES64L-G16RevA.03 25-Dec-2016

 ----------------------------------------------------------------------
 # B3LYP/6-311++G(d,p) empiricaldispersion=gd3bj scf=xqc pop=npa geom=c
 heck
 ----------------------------------------------------------------------

 ------------------------------------
 CID_115706840_JID_3022_Energie_anion
 ------------------------------------
 Structure from the checkpoint file:  "JID_3022.chk"
 Charge = -1 Multiplicity = 2

                         Standard orientation:
 ---------------------------------------------------------------------
 Center     Atomic      Atomic             Coordinates (Angstroms)
 Number     Number       Type             X           Y           Z
 ---------------------------------------------------------------------
      1          6           0        3.754671   -0.542284    0.424755
      2          6           0        2.448325   -0.852161   -0.316928
      3          6           0        2.271938   -2.364651   -0.489069
      4          6           0        1.217346   -0.229797    0.384367
      5          6           0        1.441428    1.251420    0.723702
      6          6           0        1.633272    2.280948   -0.363555
      7          6           0        0.403301    2.328104    0.506699
      8          7           0        0.018454   -0.501863   -0.408264
      9          6           0       -1.226196   -0.509022    0.329062
     10          6           0       -2.352671    0.049752   -0.537367
     11          8           0       -2.120894    0.704032   -1.551424
     12          7           0       -3.624499   -0.177801   -0.107039
     13          6           0       -4.023473   -0.939631    1.063646
     14          1           0        3.713296   -0.910356    1.458930
     15          1           0        3.965725    0.530514    0.454728
     16          1           0        4.600883   -1.036982   -0.065310
     17          1           0        2.508887   -0.396114   -1.316556
     18          1           0        2.256078   -2.864861    0.489045
     19          1           0        1.332014   -2.586574   -0.999480
     20          1           0        3.100447   -2.792809   -1.065306
     21          1           0        1.086406   -0.767933    1.335051
     22          1           0        2.068343    1.400575    1.600330
     23          1           0        2.404621    3.035375   -0.236973
     24          1           0        1.491473    1.964657   -1.394689
     25          1           0       -0.532965    2.066769    0.025026
     26          1           0        0.322797    3.115491    1.251230
     27          1           0       -0.076770    0.132351   -1.199778
     28          1           0       -1.474531   -1.527552    0.661103
     29          1           0       -1.193826    0.113158    1.243004
     30          1           0       -4.339410    0.214978   -0.704742
     31          1           0       -3.497559   -0.595370    1.960878
     32          1           0       -5.093055   -0.790667    1.225702
     33          1           0       -3.841041   -2.015325    0.944455
 ---------------------------------------------------------------------

 SCF Done:  E(UB3LYP) =  -578.022175000     A.U. after   33 cycles
 SCF Done:  E(UB3LYP) =  -578.022175000     a.u. after    1 cycles

 The electronic state is 2-A.
 Alpha  occ. eigenvalues --  -18.99356 -14.23920 -14.19501 -10.17612 -10.10557
 Alpha  occ. eigenvalues --  -10.10335 -10.10084 -10.08227 -10.08123 -10.07861
 Alpha  occ. eigenvalues --  -10.07512 -10.06969 -10.06136  -0.94438  -0.82493
 Alpha  occ. eigenvalues --   -0.81782  -0.75799  -0.70667  -0.62849  -0.60577
 Alpha  occ. eigenvalues --   -0.59359  -0.56713  -0.51102  -0.49491  -0.47625
 Alpha  occ. eigenvalues --   -0.46270  -0.41686  -0.40532  -0.39380  -0.37837
 Alpha  occ. eigenvalues --   -0.36986  -0.36189  -0.35614  -0.33813  -0.32235
 Alpha  occ. eigenvalues --   -0.31094  -0.30903  -0.29923  -0.29379  -0.27912
 Alpha  occ. eigenvalues --   -0.27641  -0.27306  -0.27250  -0.24650  -0.24093
 Alpha  occ. eigenvalues --   -0.23855  -0.20197  -0.18990  -0.16748  -0.15979
 Alpha  occ. eigenvalues --   -0.12788   0.04199
 Alpha virt. eigenvalues --    0.05829   0.07026   0.07415   0.08316   0.08804
 Alpha virt. eigenvalues --    0.09166   0.09948   0.10116   0.10371   0.10961
 Alpha virt. eigenvalues --    0.11116   0.11686   0.12466   0.13384   0.13542

  Beta  occ. eigenvalues --  -18.99355 -14.23901 -14.19500 -10.17612 -10.10551
  Beta  occ. eigenvalues --  -10.10310 -10.10005 -10.08219 -10.08121 -10.07856
  Beta  occ. eigenvalues --  -10.07503 -10.06955 -10.06128  -0.94432  -0.82457
  Beta  occ. eigenvalues --   -0.81773  -0.75784  -0.70656  -0.62810  -0.60468
  Beta  occ. eigenvalues --   -0.59337  -0.56674  -0.51081  -0.49465  -0.47584
  Beta  occ. eigenvalues --   -0.46246  -0.41662  -0.40499  -0.39281  -0.37812
  Beta  occ. eigenvalues --   -0.36961  -0.36166  -0.35587  -0.33778  -0.32199
  Beta  occ. eigenvalues --   -0.31075  -0.30876  -0.29850  -0.29363  -0.27887
  Beta  occ. eigenvalues --   -0.27621  -0.27286  -0.27236  -0.24637  -0.24078
  Beta  occ. eigenvalues --   -0.23837  -0.20183  -0.18979  -0.16739  -0.15952
  Beta  occ. eigenvalues --   -0.12777
  Beta virt. eigenvalues --    0.06059   0.07231   0.07330   0.07949   0.08636
  Beta virt. eigenvalues --    0.09317   0.09704   0.10199   0.10445   0.10690
  Beta virt. eigenvalues --    0.11063   0.11622   0.12019   0.12633   0.13442

 Mulliken charges and spin densities:
               1          2
     1  C   -0.206059  -0.516923
     2  C   -0.005151   0.640242
     3  C   -0.154803  -0.397658
     4  C    0.422921  -1.107905
     5  C   -0.124141   0.279461
     6  C   -0.361890  -0.185154
     7  C    0.080181  -0.496986
     8  N    0.061237   0.033519
     9  C    0.492770  -1.077007
    10  C   -0.745988   0.935822
    11  O   -0.365398   0.004418
    12  N   -0.493132   0.235204
    13  C    1.949624  -2.343154
    14  H    0.009501   0.142579
    15  H    0.010567   0.137897
    16  H    0.013983   0.113198
    17  H    0.146247  -0.018217
    18  H    0.016743   0.106124
    19  H    0.097198   0.070540
    20  H    0.066321   0.064427
    21  H   -0.079537   0.238168
    22  H   -0.229758   0.480418
    23  H    0.102716   0.037141
    24  H    0.101891   0.039065
    25  H    0.199708  -0.053441
    26  H   -0.160070   0.317776
    27  H    0.276090  -0.018742
    28  H    0.149593   0.045378
    29  H    0.038166   0.140203
    30  H   -0.055070   0.377041
    31  H   -0.562118   0.736208
    32  H   -1.246164   1.424396
    33  H   -0.446178   0.615962
 Sum of Mulliken charges =  -1.00000   1.00000

 Dipole moment (field-independent basis, Debye):
    X=              9.3811    Y=              1.3840    Z=             -4.0449  Tot=             10.3093
 Quadrupole moment (field-independent basis, Debye-Ang):
   XX=           -181.2103   YY=           -120.3380   ZZ=           -122.4761
   XY=             -7.8324   XZ=              8.8995   YZ=              2.7920

 Summary of Natural Population Analysis:

                                       Natural Population
                Natural  -----------------------------------------------
    Atom  No    Charge         Core      Valence    Rydberg      Total
 -----------------------------------------------------------------------
      C    1   -0.28678      0.99965     2.28172    0.00541     3.28678
      C    2   -0.11042      0.99960     2.10150    0.00933     3.11042
      C    3   -0.28494      0.99965     2.28049    0.00480     3.28494
      C    4   -0.00441      0.99955     1.99007    0.01479     3.00441
      C    5   -0.12368      0.99958     2.11204    0.01207     3.12368
      C    6   -0.20402      0.99962     2.19682    0.00758     3.20402
      C    7   -0.19895      0.99961     2.18986    0.00947     3.19895
      N    8   -0.35077      0.99973     2.83913    0.01191     3.85077
      C    9   -0.13125      0.99958     2.12096    0.01071     3.13125
      C   10    0.34156      0.99967     1.63658    0.02219     2.65844
      O   11   -0.33587      0.99988     3.33042    0.00557     4.33587
      N   12   -0.31231      0.99968     2.80178    0.01085     3.81231
      C   13   -0.18259      0.99965     2.17435    0.00859     3.18259
      H   14    0.09676      0.00000     0.40239    0.00085     0.40324
      H   15    0.10179      0.00000     0.39743    0.00077     0.39821
      H   16    0.09655      0.00000     0.40276    0.00069     0.40345
      H   17    0.09110      0.00000     0.40718    0.00172     0.40890
      H   18    0.09448      0.00000     0.40467    0.00085     0.40552
      H   19    0.11114      0.00000     0.38785    0.00101     0.38886
      H   20    0.09306      0.00000     0.40621    0.00074     0.40694
      H   21    0.09376      0.00000     0.40448    0.00177     0.40624
      H   22    0.10556      0.00000     0.39322    0.00122     0.39444
      H   23    0.09974      0.00000     0.39947    0.00079     0.40026
      H   24    0.09884      0.00000     0.40007    0.00109     0.40116
      H   25    0.10992      0.00000     0.38848    0.00160     0.39008
      H   26    0.10190      0.00000     0.39730    0.00081     0.39810
      H   27    0.18721      0.00000     0.31010    0.00270     0.31279
      H   28    0.10165      0.00000     0.39661    0.00173     0.39835
      H   29    0.10152      0.00000     0.39663    0.00186     0.39848
      H   30    0.19678      0.00000     0.30088    0.00234     0.30322
      H   31    0.09899      0.00000     0.39802    0.00299     0.40101
      H   32    0.10846      0.00000     0.38479    0.00675     0.39154
      H   33    0.09523      0.00000     0.40217    0.00260     0.40477
 =======================================================================
   * Total *    0.00000     12.99543    37.83644    0.16813    51.00000

 Normal termination of Gaussian 16 at Wed Dec  9 23:31:03 2020.
