 Gaussian 16, Revision A.03,

 -----------------------------------------------------------
 # opt freq B3LYP/6-31G(d) empiricaldispersion=gd3bj scf=xqc
 -----------------------------------------------------------

 ------------------------------
 CID_148363653_JID_682_neutraal
 ------------------------------
 Symbolic Z-matrix:
 Charge =  0 Multiplicity = 1

 SCF Done:  E(RB3LYP) =  -1468.41923906     A.U. after   18 cycles
 SCF Done:  E(RB3LYP) =  -1468.44143146     A.U. after   15 cycles
 SCF Done:  E(RB3LYP) =  -1468.45954400     A.U. after   15 cycles
 SCF Done:  E(RB3LYP) =  -1468.47632386     A.U. after   14 cycles
 SCF Done:  E(RB3LYP) =  -1468.49117402     A.U. after   14 cycles
 SCF Done:  E(RB3LYP) =  -1468.49507331     A.U. after   14 cycles
 SCF Done:  E(RB3LYP) =  -1468.49619569     A.U. after   14 cycles
 SCF Done:  E(RB3LYP) =  -1468.49741573     A.U. after   14 cycles
 SCF Done:  E(RB3LYP) =  -1468.49823207     A.U. after   13 cycles
 SCF Done:  E(RB3LYP) =  -1468.49905205     A.U. after   13 cycles
 SCF Done:  E(RB3LYP) =  -1468.50040710     A.U. after   11 cycles
 SCF Done:  E(RB3LYP) =  -1468.50046084     A.U. after   12 cycles
 SCF Done:  E(RB3LYP) =  -1468.50051245     A.U. after   12 cycles
 SCF Done:  E(RB3LYP) =  -1468.50051517     A.U. after    8 cycles
 SCF Done:  E(RB3LYP) =  -1468.50051599     A.U. after    8 cycles
 Optimization completed.
    -- Stationary point found.

 1\1\GINC-NODE224\FOpt\RB3LYP\6-31G(d)\C7H12S3\VSC10255\08-Dec-2020\0\\
 # opt freq B3LYP/6-31G(d) empiricaldispersion=gd3bj scf=xqc\\CID_14836
 3653_JID_682_neutraal\\0,1\C,0.8814377771,0.0119055187,0.0880383973\S,
 -0.4185658365,-0.4802538363,-0.7868927183\C,-0.72266014,0.8889897178,-
 1.9921006606\C,0.5063480552,1.2863689807,-2.8063316189\C,0.0752228914,
 2.2537488516,-3.9187812987\C,-0.8355178532,3.3389157707,-3.3978722342\
 C,-1.4315741622,3.2795759525,-2.1994823978\C,-1.3097175782,2.102259126
 2,-1.2641148229\S,-1.2320674228,4.6857315553,-4.5047654427\S,-0.174247

 Normal termination of Gaussian 16 at Tue Dec  8 13:50:07 2020.

 --------------------------------------------------------------------
 #N Geom=AllCheck Guess=TCheck SCRF=Check GenChk RB3LYP/6-31G(d) Freq
 --------------------------------------------------------------------

 Structure from the checkpoint file:  "JID_682.chk"
 ------------------------------
 CID_148363653_JID_682_neutraal
 ------------------------------
 Charge =  0 Multiplicity = 1

 SCF Done:  E(RB3LYP) =  -1468.50051599     A.U. after    1 cycles

  Exact polarizability: 162.531   0.666 147.935   6.059  10.080  97.343
 Approx polarizability: 206.403   9.147 329.120  18.165  52.453 176.488

                      1                      2                      3
                      A                      A                      A
 Frequencies --     52.9414                63.6904               109.5864
 Red. masses --      5.6937                 3.8514                 3.9419
 Frc consts  --      0.0094                 0.0092                 0.0279
 IR Inten    --      3.1124                 2.1024                 3.6641

                      4                      5                      6
                      A                      A                      A
 Frequencies --    134.8025               179.9969               189.9172
 Red. masses --      1.1824                 3.9974                 4.7713
 Frc consts  --      0.0127                 0.0763                 0.1014
 IR Inten    --     13.7240                11.3308                20.1567

                      7                      8                      9
                      A                      A                      A
 Frequencies --    204.6885               215.7583               229.1080
 Red. masses --      2.5085                 1.6760                 1.6807
 Frc consts  --      0.0619                 0.0460                 0.0520
 IR Inten    --      1.4086                42.9744                 8.4845

                     10                     11                     12
                      A                      A                      A
 Frequencies --    262.1016               282.4276               320.1912
 Red. masses --      3.6992                 5.1384                 4.7679
 Frc consts  --      0.1497                 0.2415                 0.2880
 IR Inten    --      2.9984                12.5767                16.6112

                     13                     14                     15
                      A                      A                      A
 Frequencies --    357.8504               426.9693               452.9222
 Red. masses --      4.2271                 2.2221                 1.9929
 Frc consts  --      0.3189                 0.2387                 0.2409
 IR Inten    --      4.4665                 4.2224                 2.1066

                     16                     17                     18
                      A                      A                      A
 Frequencies --    478.1930               541.7766               555.1739
 Red. masses --      4.5495                 3.3664                 1.3883
 Frc consts  --      0.6129                 0.5822                 0.2521
 IR Inten    --      2.1572                 7.4129                36.5701

                     19                     20                     21
                      A                      A                      A
 Frequencies --    650.0333               708.2161               719.2259
 Red. masses --      1.1224                 1.4079                 3.8117
 Frc consts  --      0.2794                 0.4161                 1.1617
 IR Inten    --     23.2330               152.3123                 6.5517

                     22                     23                     24
                      A                      A                      A
 Frequencies --    788.0897               828.9540               879.6442
 Red. masses --      1.8700                 1.2191                 2.5697
 Frc consts  --      0.6843                 0.4936                 1.1715
 IR Inten    --      8.3428                10.9164                 3.1480

                     25                     26                     27
                      A                      A                      A
 Frequencies --    932.8447               943.5591               968.9586
 Red. masses --      1.4130                 1.6146                 2.2039
 Frc consts  --      0.7245                 0.8470                 1.2191
 IR Inten    --      5.7365                 6.0316                 1.6767

                     28                     29                     30
                      A                      A                      A
 Frequencies --    974.3056               996.5455              1008.9956
 Red. masses --      1.4082                 2.8456                 2.1747
 Frc consts  --      0.7876                 1.6650                 1.3044
 IR Inten    --      7.3548                21.9919                12.7137

                     31                     32                     33
                      A                      A                      A
 Frequencies --   1021.8457              1082.5688              1097.2070
 Red. masses --      3.8962                 2.0947                 1.9817
 Frc consts  --      2.3970                 1.4464                 1.4056
 IR Inten    --     46.7124                 9.4821                 1.4229

                     34                     35                     36
                      A                      A                      A
 Frequencies --   1134.9405              1182.3543              1241.1734
 Red. masses --      2.5254                 1.1706                 1.2050
 Frc consts  --      1.9166                 0.9642                 1.0937
 IR Inten    --      4.0405                 4.4800                 2.4218

                     37                     38                     39
                      A                      A                      A
 Frequencies --   1281.5006              1308.8223              1341.7614
 Red. masses --      1.2739                 1.1934                 1.3647
 Frc consts  --      1.2326                 1.2044                 1.4476
 IR Inten    --     12.1149                 2.9621                 2.4291

                     40                     41                     42
                      A                      A                      A
 Frequencies --   1343.9086              1381.9903              1397.6887
 Red. masses --      1.2375                 1.6541                 1.3824
 Frc consts  --      1.3168                 1.8613                 1.5911
 IR Inten    --      1.8939                 6.2109                 1.4403

                     43                     44                     45
                      A                      A                      A
 Frequencies --   1409.9952              1465.6360              1504.5051
 Red. masses --      1.5198                 1.1518                 1.0906
 Frc consts  --      1.7802                 1.4577                 1.4544
 IR Inten    --      0.0770                11.6744                 1.4234

                     46                     47                     48
                      A                      A                      A
 Frequencies --   1511.9881              1528.4401              1717.5226
 Red. masses --      1.0870                 1.0952                 6.7627
 Frc consts  --      1.4642                 1.5075                11.7537
 IR Inten    --      4.9263                 2.9387                 4.2783

                     49                     50                     51
                      A                      A                      A
 Frequencies --   2659.6298              2680.1218              3038.4951
 Red. masses --      1.0385                 1.0388                 1.0605
 Frc consts  --      4.3280                 4.3965                 5.7686
 IR Inten    --     26.1386                24.3804                 1.0981

                     52                     53                     54
                      A                      A                      A
 Frequencies --   3038.6968              3060.2781              3070.6510
 Red. masses --      1.0601                 1.0817                 1.1005
 Frc consts  --      5.7672                 5.9687                 6.1136
 IR Inten    --     38.8756                 2.3753                13.2358

                     55                     56                     57
                      A                      A                      A
 Frequencies --   3074.2878              3103.6742              3129.2582
 Red. masses --      1.0845                 1.0852                 1.1018
 Frc consts  --      6.0391                 6.1590                 6.3566
 IR Inten    --     19.0782                 4.6300                 6.3878

                     58                     59                     60
                      A                      A                      A
 Frequencies --   3181.5732              3184.3010              3284.8101
 Red. masses --      1.0499                 1.0905                 1.1196
 Frc consts  --      6.2616                 6.5151                 7.1178
 IR Inten    --      1.1328                 9.8144                 0.4508

 - Thermochemistry -
 -------------------
 Temperature   298.150 Kelvin.  Pressure   1.00000 Atm.
 Atom     1 has atomic number  6 and mass  12.00000

 Molecular mass:   192.01012 amu.
 Principal axes and moments of inertia in atomic units:
                           1         2         3
     Eigenvalues --  1039.386114634.865815185.74821
           X            0.99998  -0.00692  -0.00035
           Y            0.00692   0.99987  -0.01423
           Z            0.00045   0.01423   0.99990
 This molecule is an asymmetric top.
 Rotational symmetry number  1.
 Warning -- assumption of classical behavior for rotation
           may cause significant error
 Rotational temperatures (Kelvin)      0.08333     0.01869     0.01670
 Rotational constants (GHZ):           1.73635     0.38938     0.34802
 Zero-point vibrational energy     454085.1 (Joules/Mol)
                                  108.52893 (Kcal/Mol)
 Warning -- explicit consideration of  18 degrees of freedom as
           vibrations may cause significant error
 Vibrational temperatures:     76.17    91.64   157.67   193.95   258.98
          (Kelvin)            273.25   294.50   310.43   329.64   377.11
                              406.35   460.68   514.87   614.31   651.65
                              688.01   779.50   798.77   935.25  1018.97
                             1034.81  1133.89  1192.68  1265.61  1342.16
                             1357.57  1394.12  1401.81  1433.81  1451.72
                             1470.21  1557.58  1578.64  1632.93  1701.14
                             1785.77  1843.79  1883.10  1930.50  1933.58
                             1988.38  2010.96  2028.67  2108.72  2164.65
                             2175.41  2199.08  2471.13  3826.61  3856.10
                             4371.72  4372.01  4403.06  4417.98  4423.21
                             4465.49  4502.30  4577.57  4581.50  4726.11

 Zero-point correction=                           0.172952 (Hartree/Particle)
 Thermal correction to Energy=                    0.185444
 Thermal correction to Enthalpy=                  0.186388
 Thermal correction to Gibbs Free Energy=         0.133768
 Sum of electronic and zero-point Energies=          -1468.327564
 Sum of electronic and thermal Energies=             -1468.315072
 Sum of electronic and thermal Enthalpies=           -1468.314128
 Sum of electronic and thermal Free Energies=        -1468.366748

                     E (Thermal)             CV                S
                      KCal/Mol        Cal/Mol-Kelvin    Cal/Mol-Kelvin
 Total                  116.368             45.528            110.748
 Electronic               0.000              0.000              0.000
 Translational            0.889              2.981             41.663
 Rotational               0.889              2.981             31.591
 Vibrational            114.590             39.567             37.494
 Vibration     1          0.596              1.976              4.704
 Vibration     2          0.597              1.972              4.339
 Vibration     3          0.606              1.942              3.276
 Vibration     4          0.613              1.919              2.876
 Vibration     5          0.629              1.867              2.328
 Vibration     6          0.633              1.854              2.229
 Vibration     7          0.640              1.833              2.091
 Vibration     8          0.645              1.817              1.994
 Vibration     9          0.652              1.797              1.886
 Vibration    10          0.669              1.742              1.648
 Vibration    11          0.681              1.706              1.519
 Vibration    12          0.706              1.635              1.309
 Vibration    13          0.733              1.559              1.131
 Vibration    14          0.789              1.412              0.869
 Vibration    15          0.811              1.354              0.787
 Vibration    16          0.835              1.298              0.715
 Vibration    17          0.897              1.158              0.561
 Vibration    18          0.911              1.128              0.534

 Optimization completed.
    -- Stationary point found.

 1\1\GINC-NODE224\Freq\RB3LYP\6-31G(d)\C7H12S3\VSC10255\08-Dec-2020\0\\
 #N Geom=AllCheck Guess=TCheck SCRF=Check GenChk RB3LYP/6-31G(d) Freq\\
 CID_148363653_JID_682_neutraal\\0,1\C,0.8814377771,0.0119055187,0.0880
 383973\S,-0.4185658365,-0.4802538363,-0.7868927183\C,-0.72266014,0.888
 9897178,-1.9921006606\C,0.5063480552,1.2863689807,-2.8063316189\C,0.07
 52228914,2.2537488516,-3.9187812987\C,-0.8355178532,3.3389157707,-3.39
 78722342\C,-1.4315741622,3.2795759525,-2.1994823978\C,-1.3097175782,2.
 1022591262,-1.2641148229\S,-1.2320674228,4.6857315553,-4.5047654427\S,

 Normal termination of Gaussian 16 at Tue Dec  8 13:56:43 2020.

 ----------------------------------------------------------------------
 # B3LYP/6-311++G(d,p) empiricaldispersion=gd3bj scf=xqc pop=npa geom=c
 heck
 ----------------------------------------------------------------------

 --------------------------------------
 CID_148363653_JID_682_Energie_neutraal
 --------------------------------------
 Structure from the checkpoint file:  "JID_682.chk"
 Charge =  0 Multiplicity = 1

 SCF Done:  E(RB3LYP) =  -1468.66607377     A.U. after   16 cycles
 Normal termination of Gaussian 16 at Tue Dec  8 14:02:22 2020.

 ----------------------------------------------------------------------
 # B3LYP/6-311++G(d,p) empiricaldispersion=gd3bj scf=xqc pop=npa geom=c
 heck
 ----------------------------------------------------------------------

 ------------------------------------
 CID_148363653_JID_682_Energie_kation
 ------------------------------------
 Structure from the checkpoint file:  "JID_682.chk"
 Charge =  1 Multiplicity = 2

 SCF Done:  E(UB3LYP) =  -1468.37302556     A.U. after   33 cycles
 SCF Done:  E(UB3LYP) =  -1468.37302556     a.u. after    2 cycles
 Normal termination of Gaussian 16 at Tue Dec  8 14:17:25 2020.
 Gaussian 16:  ES64L-G16RevA.03 25-Dec-2016

 -----------------------------------
 CID_148363653_JID_682_Energie_anion
 -----------------------------------
 Structure from the checkpoint file:  "JID_682.chk"
 Charge = -1 Multiplicity = 2

                         Standard orientation:
 ---------------------------------------------------------------------
 Center     Atomic      Atomic             Coordinates (Angstroms)
 Number     Number       Type             X           Y           Z
 ---------------------------------------------------------------------
      1          6           0       -2.415657    1.591444    1.145122
      2         16           0       -2.264811    0.740853   -0.251830
      3          6           0       -0.482866    0.250610   -0.316337
      4          6           0        0.014309   -0.457049    0.941986
      5          6           0        1.420393   -1.015415    0.676672
      6          6           0        2.313882    0.004358    0.013255
      7          6           0        1.848613    1.128997   -0.546795
      8          6           0        0.382603    1.474732   -0.631159
      9         16           0        4.049255   -0.396063   -0.143338
     10         16           0       -2.928379   -1.623807   -0.381211
     11          1           0       -1.846219    1.353748    2.036609
     12          1           0       -3.344917    2.137099    1.263965
     13          1           0       -0.468276   -0.449381   -1.157190
     14          1           0        0.062207    0.260261    1.769264
     15          1           0       -0.665478   -1.262837    1.231594
     16          1           0        1.866735   -1.339501    1.626079
     17          1           0        1.364576   -1.914352    0.047918
     18          1           0        2.543299    1.841379   -0.985215
     19          1           0        0.147120    1.856645   -1.632693
     20          1           0        0.144732    2.287392    0.068709
     21          1           0        4.212367   -0.924471    1.090098
     22          1           0       -4.200854   -1.247779   -0.633534
 ---------------------------------------------------------------------

 SCF Done:  E(UB3LYP) =  -1468.68194362     A.U. after   29 cycles

 The electronic state is 2-A.
 Alpha  occ. eigenvalues --  -88.76318 -88.71739 -88.62569 -10.10772 -10.08100
 Alpha  occ. eigenvalues --  -10.07957 -10.07732 -10.06552 -10.05882 -10.00171
 Alpha  occ. eigenvalues --   -7.85002  -7.80307  -7.71298  -5.81376  -5.81010
 Alpha  occ. eigenvalues --   -5.80407  -5.76528  -5.76343  -5.75987  -5.67609
 Alpha  occ. eigenvalues --   -5.67304  -5.66858  -0.75474  -0.70067  -0.65034
 Alpha  occ. eigenvalues --   -0.64803  -0.59159  -0.52889  -0.51354  -0.49586
 Alpha  occ. eigenvalues --   -0.43702  -0.40930  -0.38206  -0.34988  -0.33466
 Alpha  occ. eigenvalues --   -0.32614  -0.31264  -0.29388  -0.28717  -0.27974
 Alpha  occ. eigenvalues --   -0.25701  -0.23744  -0.22851  -0.22010  -0.19902
 Alpha  occ. eigenvalues --   -0.19332  -0.18933  -0.14878  -0.13351  -0.05962
 Alpha  occ. eigenvalues --   -0.05158   0.04462
 Alpha virt. eigenvalues --    0.06404   0.08502   0.08901   0.09527   0.10248
 Alpha virt. eigenvalues --    0.11232   0.11600   0.12135   0.12591   0.12816
 Alpha virt. eigenvalues --    0.13233   0.14268   0.14795   0.15323   0.15725

  Beta  occ. eigenvalues --  -88.76317 -88.71466 -88.62404 -10.10749 -10.08102
  Beta  occ. eigenvalues --  -10.07973 -10.07718 -10.06536 -10.05872  -9.99729
  Beta  occ. eigenvalues --   -7.85000  -7.80044  -7.71140  -5.81375  -5.81010
  Beta  occ. eigenvalues --   -5.80404  -5.76352  -5.75948  -5.75469  -5.67485
  Beta  occ. eigenvalues --   -5.66866  -5.66751  -0.75414  -0.69781  -0.64848
  Beta  occ. eigenvalues --   -0.64419  -0.58896  -0.52814  -0.50603  -0.49211
  Beta  occ. eigenvalues --   -0.43066  -0.40646  -0.38080  -0.34864  -0.33397
  Beta  occ. eigenvalues --   -0.32540  -0.31176  -0.29285  -0.28630  -0.27745
  Beta  occ. eigenvalues --   -0.25441  -0.23644  -0.22469  -0.21734  -0.19397
  Beta  occ. eigenvalues --   -0.19277  -0.18089  -0.13636  -0.13293  -0.05395
  Beta  occ. eigenvalues --   -0.02517
  Beta virt. eigenvalues --    0.06347   0.08432   0.08824   0.09449   0.10053
  Beta virt. eigenvalues --    0.10921   0.11422   0.11565   0.12120   0.12607
  Beta virt. eigenvalues --    0.12749   0.13312   0.14263   0.14730   0.15314

 Mulliken charges and spin densities:
               1          2
     1  C   -0.913166   0.431632
     2  S    0.373027   0.122195
     3  C    0.684059   0.110522
     4  C   -0.402331   0.055227
     5  C   -0.505017  -0.025313
     6  C    0.734719  -0.020254
     7  C   -0.190672   0.022554
     8  C   -1.040985  -0.091386
     9  S   -0.409276  -0.061604
    10  S   -0.591307   0.297523
    11  H    0.095429  -0.014382
    12  H    0.129283  -0.004638
    13  H    0.171433  -0.006363
    14  H    0.112638  -0.001450
    15  H    0.082926   0.018176
    16  H    0.144606   0.002845
    17  H    0.151754   0.016432
    18  H    0.137054   0.053123
    19  H    0.134052   0.002837
    20  H    0.114566   0.061682
    21  H    0.007810   0.014845
    22  H   -0.020602   0.015797
 Sum of Mulliken charges =  -1.00000   1.00000

 Dipole moment (field-independent basis, Debye):
    X=              8.9618    Y=              2.2034    Z=              0.6353  Tot=              9.2505
 Quadrupole moment (field-independent basis, Debye-Ang):
   XX=           -137.4324   YY=           -115.3684   ZZ=            -95.2083
   XY=            -12.7521   XZ=              3.6847   YZ=             -8.3782

 Summary of Natural Population Analysis:

                                       Natural Population
                Natural  -----------------------------------------------
    Atom  No    Charge         Core      Valence    Rydberg      Total
 -----------------------------------------------------------------------
      C    1   -0.32350      0.99970     2.30775    0.01606     3.32350
      S    2    0.41087      4.99928     2.55659    0.03326     7.58913
      C    3   -0.17907      0.99955     2.16293    0.01659     3.17907
      C    4   -0.19820      0.99960     2.18947    0.00913     3.19820
      C    5   -0.20551      0.99957     2.19635    0.00959     3.20551
      C    6   -0.07997      0.99939     2.07088    0.00971     3.07997
      C    7   -0.09374      0.99944     2.08471    0.00959     3.09374
      C    8   -0.21049      0.99959     2.20055    0.01035     3.21049
      S    9   -0.00491      4.99955     2.98744    0.01792     8.00491
      S   10   -0.23972      4.99972     3.22826    0.01174     8.23972
      H   11    0.08501      0.00000     0.41320    0.00178     0.41499
      H   12    0.09366      0.00000     0.40549    0.00085     0.40634
      H   13    0.11134      0.00000     0.38717    0.00149     0.38866
      H   14    0.09745      0.00000     0.40100    0.00155     0.40255
      H   15    0.11991      0.00000     0.37880    0.00129     0.38009
      H   16    0.09787      0.00000     0.40056    0.00157     0.40213
      H   17    0.10663      0.00000     0.39164    0.00173     0.39337
      H   18    0.09526      0.00000     0.40319    0.00155     0.40474
      H   19    0.10531      0.00000     0.39374    0.00096     0.39469
      H   20    0.11611      0.00000     0.38124    0.00265     0.38389
      H   21    0.05209      0.00000     0.44443    0.00349     0.44791
      H   22    0.04362      0.00000     0.45238    0.00400     0.45638
 =======================================================================
   * Total *   -0.00000     21.99540    28.83776    0.16684    51.00000

 Normal termination of Gaussian 16 at Tue Dec  8 14:23:52 2020.
