 Gaussian 16, Revision A.03,

 -----------------------------------------------------------
 # opt freq B3LYP/6-31G(d) empiricaldispersion=gd3bj scf=xqc
 -----------------------------------------------------------

 ------------------------------
 CID_91350867_JID_1372_neutraal
 ------------------------------
 Symbolic Z-matrix:
 Charge =  0 Multiplicity = 1

 SCF Done:  E(RB3LYP) =  -548.724131774     A.U. after   16 cycles
 SCF Done:  E(RB3LYP) =  -548.727699455     A.U. after   14 cycles
 SCF Done:  E(RB3LYP) =  -548.728820831     A.U. after   14 cycles
 SCF Done:  E(RB3LYP) =  -548.729515433     A.U. after   13 cycles
 SCF Done:  E(RB3LYP) =  -548.729609803     A.U. after   12 cycles
 SCF Done:  E(RB3LYP) =  -548.729622516     A.U. after   12 cycles
 SCF Done:  E(RB3LYP) =  -548.729665803     A.U. after   11 cycles
 SCF Done:  E(RB3LYP) =  -548.729670735     A.U. after    9 cycles
 SCF Done:  E(RB3LYP) =  -548.729674151     A.U. after   10 cycles
 SCF Done:  E(RB3LYP) =  -548.729675438     A.U. after    8 cycles
 SCF Done:  E(RB3LYP) =  -548.729675392     A.U. after   11 cycles
 SCF Done:  E(RB3LYP) =  -548.729675510     A.U. after    8 cycles
 SCF Done:  E(RB3LYP) =  -548.729675892     A.U. after   11 cycles
 SCF Done:  E(RB3LYP) =  -548.729675523     A.U. after   11 cycles
 SCF Done:  E(RB3LYP) =  -548.729675877     A.U. after   12 cycles
 SCF Done:  E(RB3LYP) =  -548.729675518     A.U. after   11 cycles
 Optimization completed on the basis of negligible forces.
    -- Stationary point found.
 Normal termination of Gaussian 16 at Tue Dec  8 19:53:38 2020.

 --------------------------------------------------------------------
 #N Geom=AllCheck Guess=TCheck SCRF=Check GenChk RB3LYP/6-31G(d) Freq
 --------------------------------------------------------------------

 Structure from the checkpoint file:  "JID_1372.chk"
 ------------------------------
 CID_91350867_JID_1372_neutraal
 ------------------------------
 Charge =  0 Multiplicity = 1

 SCF Done:  E(RB3LYP) =  -548.729675518     A.U. after    1 cycles

  Exact polarizability:  85.782  -4.122  74.196   6.439   2.146  86.206
 Approx polarizability: 122.507  -7.083 104.284  15.244   8.434 175.750

                      1                      2                      3
                      A                      A                      A
 Frequencies --     24.2845                70.3200               118.8116
 Red. masses --      5.9356                 7.8191                 6.9953
 Frc consts  --      0.0021                 0.0228                 0.0582
 IR Inten    --      0.0288                 4.1337                 2.0937

                      4                      5                      6
                      A                      A                      A
 Frequencies --    169.1356               195.9227               270.0766
 Red. masses --      4.3543                 4.5644                 4.8979
 Frc consts  --      0.0734                 0.1032                 0.2105
 IR Inten    --      5.9008                 5.3314                 2.4146

                      7                      8                      9
                      A                      A                      A
 Frequencies --    341.0912               344.1285               425.3134
 Red. masses --      2.6800                 2.8933                 2.3269
 Frc consts  --      0.1837                 0.2019                 0.2480
 IR Inten    --      0.4141                 0.3687                 3.2685

                     10                     11                     12
                      A                      A                      A
 Frequencies --    428.4327               484.5739               565.5734
 Red. masses --      3.2727                 2.5447                 4.7063
 Frc consts  --      0.3539                 0.3521                 0.8870
 IR Inten    --      5.1275                 1.3995                 5.3063

                     13                     14                     15
                      A                      A                      A
 Frequencies --    570.9374               581.6169               697.0618
 Red. masses --     13.3616                 3.4144                 4.7439
 Frc consts  --      2.5662                 0.6805                 1.3581
 IR Inten    --      9.9992                 6.4008                 2.0548

                     16                     17                     18
                      A                      A                      A
 Frequencies --    725.8052               773.9910               802.1572
 Red. masses --      3.1831                 4.4135                 3.0395
 Frc consts  --      0.9880                 1.5578                 1.1523
 IR Inten    --      3.2336                 7.4409                19.9805

                     19                     20                     21
                      A                      A                      A
 Frequencies --    874.0261               887.0210               901.7605
 Red. masses --      3.0493                 2.6627                 2.7276
 Frc consts  --      1.3724                 1.2343                 1.3068
 IR Inten    --      8.6075                 4.2958                 7.8048

                     22                     23                     24
                      A                      A                      A
 Frequencies --    978.6108              1025.3044              1038.1621
 Red. masses --      2.2401                 1.6862                 2.2970
 Frc consts  --      1.2640                 1.0444                 1.4586
 IR Inten    --     12.2067                 2.8994                10.7751

                     25                     26                     27
                      A                      A                      A
 Frequencies --   1087.9301              1102.1263              1144.7325
 Red. masses --      2.3833                 3.8789                 2.4837
 Frc consts  --      1.6620                 2.7760                 1.9176
 IR Inten    --     10.5352                89.7930                 7.3261

                     28                     29                     30
                      A                      A                      A
 Frequencies --   1179.8418              1226.4645              1268.3669
 Red. masses --      1.7433                 1.1939                 1.5143
 Frc consts  --      1.4297                 1.0581                 1.4353
 IR Inten    --    128.0864                26.0227                31.8795

                     31                     32                     33
                      A                      A                      A
 Frequencies --   1273.3287              1327.4319              1336.8500
 Red. masses --      1.3090                 2.5413                 1.4963
 Frc consts  --      1.2505                 2.6384                 1.5756
 IR Inten    --     29.3414               122.9438                48.0740

                     34                     35                     36
                      A                      A                      A
 Frequencies --   1374.2292              1383.2711              1407.8646
 Red. masses --      1.4382                 1.4968                 1.4298
 Frc consts  --      1.6003                 1.6875                 1.6697
 IR Inten    --      2.4662                33.9530                15.3220

                     37                     38                     39
                      A                      A                      A
 Frequencies --   1414.0884              1426.3671              1442.3855
 Red. masses --      1.4368                 1.4430                 1.3471
 Frc consts  --      1.6927                 1.7297                 1.6512
 IR Inten    --     17.1129                15.4700                 4.0310

                     40                     41                     42
                      A                      A                      A
 Frequencies --   1493.3140              1512.8898              1514.3835
 Red. masses --      1.0859                 1.0900                 1.0904
 Frc consts  --      1.4267                 1.4699                 1.4733
 IR Inten    --      6.1703                13.1749                 9.6083

                     43                     44                     45
                      A                      A                      A
 Frequencies --   1544.7778              1853.0608              2242.8044
 Red. masses --      1.0856                11.7001                13.7932
 Frc consts  --      1.5263                23.6712                40.8788
 IR Inten    --     11.4879               328.3651               406.7909

                     46                     47                     48
                      A                      A                      A
 Frequencies --   3055.4501              3057.8462              3087.7465
 Red. masses --      1.0640                 1.0628                 1.0674
 Frc consts  --      5.8527                 5.8548                 5.9959
 IR Inten    --     13.5098                12.7895                 0.2197

                     49                     50                     51
                      A                      A                      A
 Frequencies --   3093.1357              3102.6003              3105.2811
 Red. masses --      1.0755                 1.0862                 1.0908
 Frc consts  --      6.0625                 6.1606                 6.1971
 IR Inten    --     10.0197                18.5098                27.6465

                     52                     53                     54
                      A                      A                      A
 Frequencies --   3108.6088              3141.4803              3147.3312
 Red. masses --      1.0928                 1.1059                 1.1013
 Frc consts  --      6.2217                 6.4301                 6.4272
 IR Inten    --     25.9972                22.4092                 5.2733

 - Thermochemistry -
 -------------------
 Temperature   298.150 Kelvin.  Pressure   1.00000 Atm.
 Atom     1 has atomic number  6 and mass  12.00000

 Molecular mass:   155.06948 amu.
 Principal axes and moments of inertia in atomic units:
                           1         2         3
     Eigenvalues --   963.508932236.473382298.30462
           X            0.99990  -0.01205  -0.00676
           Y            0.01147   0.99673  -0.07994
           Z            0.00770   0.07985   0.99678
 This molecule is an asymmetric top.
 Rotational symmetry number  1.
 Warning -- assumption of classical behavior for rotation
           may cause significant error
 Rotational temperatures (Kelvin)      0.08989     0.03873     0.03769
 Rotational constants (GHZ):           1.87309     0.80696     0.78525
 Zero-point vibrational energy     423179.6 (Joules/Mol)
                                  101.14236 (Kcal/Mol)
 Warning -- explicit consideration of  14 degrees of freedom as
           vibrations may cause significant error
 Vibrational temperatures:     34.94   101.17   170.94   243.35   281.89
          (Kelvin)            388.58   490.75   495.12   611.93   616.42
                              697.19   813.73   821.45   836.82  1002.92
                             1044.27  1113.60  1154.13  1257.53  1276.23
                             1297.43  1408.00  1475.18  1493.68  1565.29
                             1585.71  1647.01  1697.53  1764.61  1824.90
                             1832.04  1909.88  1923.43  1977.21  1990.22
                             2025.60  2034.56  2052.22  2075.27  2148.55
                             2176.71  2178.86  2222.59  2666.14  3226.90
                             4396.11  4399.56  4442.58  4450.33  4463.95
                             4467.81  4472.59  4519.89  4528.31

 Zero-point correction=                           0.161181 (Hartree/Particle)
 Thermal correction to Energy=                    0.170971
 Thermal correction to Enthalpy=                  0.171915
 Thermal correction to Gibbs Free Energy=         0.124726
 Sum of electronic and zero-point Energies=           -548.568495
 Sum of electronic and thermal Energies=              -548.558705
 Sum of electronic and thermal Enthalpies=            -548.557761
 Sum of electronic and thermal Free Energies=         -548.604950

                     E (Thermal)             CV                S
                      KCal/Mol        Cal/Mol-Kelvin    Cal/Mol-Kelvin
 Total                  107.286             36.201             99.318
 Electronic               0.000              0.000              0.000
 Translational            0.889              2.981             41.026
 Rotational               0.889              2.981             29.983
 Vibrational            105.508             30.239             28.309
 Vibration     1          0.593              1.985              6.249
 Vibration     2          0.598              1.968              4.144
 Vibration     3          0.609              1.934              3.120
 Vibration     4          0.625              1.880              2.445
 Vibration     5          0.636              1.846              2.171
 Vibration     6          0.674              1.728              1.596
 Vibration     7          0.721              1.593              1.207
 Vibration     8          0.723              1.587              1.193
 Vibration     9          0.787              1.415              0.874
 Vibration    10          0.790              1.408              0.864
 Vibration    11          0.841              1.284              0.698
 Vibration    12          0.921              1.106              0.513
 Vibration    13          0.927              1.094              0.502
 Vibration    14          0.938              1.071              0.482

 Optimization completed.
    -- Stationary point found.
 Normal termination of Gaussian 16 at Tue Dec  8 19:57:57 2020.

 ----------------------------------------------------------------------
 # B3LYP/6-311++G(d,p) empiricaldispersion=gd3bj scf=xqc pop=npa geom=c
 heck
 ----------------------------------------------------------------------

 --------------------------------------
 CID_91350867_JID_1372_Energie_neutraal
 --------------------------------------
 Structure from the checkpoint file:  "JID_1372.chk"
 Charge =  0 Multiplicity = 1

 SCF Done:  E(RB3LYP) =  -548.886107874     A.U. after   15 cycles
 Normal termination of Gaussian 16 at Tue Dec  8 19:59:44 2020.

 ----------------------------------------------------------------------
 # B3LYP/6-311++G(d,p) empiricaldispersion=gd3bj scf=xqc pop=npa geom=c
 heck
 ----------------------------------------------------------------------

 ------------------------------------
 CID_91350867_JID_1372_Energie_kation
 ------------------------------------
 Structure from the checkpoint file:  "JID_1372.chk"
 Charge =  1 Multiplicity = 2

 SCF Done:  E(UB3LYP) =  -548.537444099     A.U. after   24 cycles
 Normal termination of Gaussian 16 at Tue Dec  8 20:03:56 2020.
 Gaussian 16:  ES64L-G16RevA.03 25-Dec-2016

 ----------------------------------------------------------------------
 # B3LYP/6-311++G(d,p) empiricaldispersion=gd3bj scf=xqc pop=npa geom=c
 heck
 ----------------------------------------------------------------------

 -----------------------------------
 CID_91350867_JID_1372_Energie_anion
 -----------------------------------
 Structure from the checkpoint file:  "JID_1372.chk"
 Charge = -1 Multiplicity = 2

                         Standard orientation:
 ---------------------------------------------------------------------
 Center     Atomic      Atomic             Coordinates (Angstroms)
 Number     Number       Type             X           Y           Z
 ---------------------------------------------------------------------
      1          6           0        0.058971   -1.059331    1.205777
      2          6           0        0.792239   -1.259821   -0.137043
      3          6           0        1.953173   -0.295368   -0.325038
      4          8           0        3.106878   -0.648564   -0.321069
      5          8           0        1.678420    1.030112   -0.460592
      6          6           0        0.329543    1.518960   -0.519314
      7          6           0       -0.387153    1.466117    0.830484
      8          6           0       -0.945659    0.102007    1.267190
      9          7           0       -2.229916   -0.234742    0.592621
     10          7           0       -2.268049   -0.340190   -0.634541
     11          7           0       -2.474810   -0.469216   -1.753408
     12          1           0       -0.482421   -1.978320    1.452209
     13          1           0        0.804291   -0.912593    1.997619
     14          1           0        0.097305   -1.201878   -0.981150
     15          1           0        1.238108   -2.255684   -0.159015
     16          1           0       -0.223545    1.010345   -1.314106
     17          1           0        0.446359    2.561438   -0.822359
     18          1           0       -1.217402    2.181820    0.813588
     19          1           0        0.319807    1.816232    1.592723
     20          1           0       -1.262139    0.199914    2.308737
 ---------------------------------------------------------------------

 SCF Done:  E(UB3LYP) =  -548.883933186     A.U. after   31 cycles

 The electronic state is 2-A.
 Alpha  occ. eigenvalues --  -19.06087 -19.00559 -14.32177 -14.22222 -14.21662
 Alpha  occ. eigenvalues --  -10.19952 -10.12953 -10.10206 -10.08416 -10.07321
 Alpha  occ. eigenvalues --  -10.06977  -0.99930  -0.99191  -0.92119  -0.83597
 Alpha  occ. eigenvalues --   -0.71193  -0.67654  -0.61604  -0.56339  -0.51250
 Alpha  occ. eigenvalues --   -0.45598  -0.42214  -0.40779  -0.38785  -0.37690
 Alpha  occ. eigenvalues --   -0.36582  -0.34671  -0.33418  -0.32956  -0.32112
 Alpha  occ. eigenvalues --   -0.31039  -0.29632  -0.28615  -0.27541  -0.25058
 Alpha  occ. eigenvalues --   -0.23507  -0.22885  -0.19674  -0.17402  -0.16124
 Alpha  occ. eigenvalues --   -0.11819   0.04792
 Alpha virt. eigenvalues --    0.07743   0.08250   0.09010   0.10084   0.10883
 Alpha virt. eigenvalues --    0.11408   0.11559   0.12207   0.13112   0.13986
 Alpha virt. eigenvalues --    0.14676   0.16451   0.16627   0.16900   0.17608

  Beta  occ. eigenvalues --  -19.06076 -19.00548 -14.31855 -14.21845 -14.21715
  Beta  occ. eigenvalues --  -10.19945 -10.12951 -10.10100 -10.08417 -10.07289
  Beta  occ. eigenvalues --  -10.06948  -0.99908  -0.98586  -0.92099  -0.83303
  Beta  occ. eigenvalues --   -0.71078  -0.67607  -0.61476  -0.56281  -0.51022
  Beta  occ. eigenvalues --   -0.45549  -0.42114  -0.40549  -0.38597  -0.37471
  Beta  occ. eigenvalues --   -0.35891  -0.34447  -0.33211  -0.32725  -0.31853
  Beta  occ. eigenvalues --   -0.30341  -0.29562  -0.28480  -0.27489  -0.24971
  Beta  occ. eigenvalues --   -0.23402  -0.22802  -0.19599  -0.17372  -0.15300
  Beta  occ. eigenvalues --   -0.11707
  Beta virt. eigenvalues --    0.07862   0.08607   0.09379   0.09920   0.10700
  Beta virt. eigenvalues --    0.11697   0.11930   0.12211   0.12457   0.13495
  Beta virt. eigenvalues --    0.14229   0.14839   0.16528   0.16829   0.16982

 Mulliken charges and spin densities:
               1          2
     1  C    0.984385  -1.582305
     2  C   -0.392083   0.210416
     3  C    0.066322  -0.078540
     4  O   -0.300589   0.008131
     5  O   -0.086335   0.007971
     6  C   -0.545542   0.235484
     7  C    1.178289  -1.785781
     8  C   -0.217660   0.533098
     9  N   -1.217796   0.514981
    10  N    1.058123  -0.124518
    11  N   -0.014578  -0.146628
    12  H   -0.405488   0.606702
    13  H    0.065694   0.077020
    14  H    0.143902  -0.007939
    15  H    0.188120   0.028803
    16  H    0.226384  -0.064638
    17  H   -0.018630   0.222999
    18  H   -0.409704   0.591403
    19  H   -0.005854   0.177687
    20  H   -1.296961   1.575653
 Sum of Mulliken charges =  -1.00000   1.00000

 Dipole moment (field-independent basis, Debye):
    X=              3.2494    Y=             -0.0514    Z=             -3.5120  Tot=              4.7849
 Quadrupole moment (field-independent basis, Debye-Ang):
   XX=           -118.2486   YY=            -88.4991   ZZ=           -101.2764
   XY=             -0.0837   XZ=              4.6099   YZ=             -2.3804

 Summary of Natural Population Analysis:

                                       Natural Population
                Natural  -----------------------------------------------
    Atom  No    Charge         Core      Valence    Rydberg      Total
 -----------------------------------------------------------------------
      C    1   -0.19362      0.99959     2.18382    0.01021     3.19362
      C    2   -0.25209      0.99957     2.24508    0.00743     3.25209
      C    3    0.41160      0.99967     1.56220    0.02652     2.58840
      O    4   -0.29939      0.99986     3.29360    0.00593     4.29939
      O    5   -0.28166      0.99985     3.27354    0.00826     4.28166
      C    6   -0.02133      0.99955     2.00916    0.01261     3.02133
      C    7   -0.21195      0.99959     2.20258    0.00978     3.21195
      C    8   -0.01134      0.99953     1.99548    0.01632     3.01134
      N    9   -0.20020      0.99969     2.68437    0.01615     3.70020
      N   10    0.13511      0.99969     2.34892    0.01628     3.36489
      N   11   -0.03221      0.99982     2.51967    0.01272     3.53221
      H   12    0.11141      0.00000     0.38670    0.00189     0.38859
      H   13    0.10123      0.00000     0.39716    0.00160     0.39877
      H   14    0.11437      0.00000     0.38437    0.00126     0.38563
      H   15    0.11354      0.00000     0.38555    0.00091     0.38646
      H   16    0.09368      0.00000     0.40493    0.00139     0.40632
      H   17    0.09527      0.00000     0.40357    0.00115     0.40473
      H   18    0.11281      0.00000     0.38495    0.00225     0.38719
      H   19    0.10540      0.00000     0.39314    0.00146     0.39460
      H   20    0.10934      0.00000     0.38310    0.00755     0.39066
 =======================================================================
   * Total *   -0.00000     10.99643    29.84190    0.16166    41.00000

 Normal termination of Gaussian 16 at Tue Dec  8 20:09:04 2020.
