 Gaussian 16, Revision A.03,

 -----------------------------------------------------------
 # opt freq B3LYP/6-31G(d) empiricaldispersion=gd3bj scf=xqc
 -----------------------------------------------------------

 ------------------------------
 CID_67211357_JID_1224_neutraal
 ------------------------------
 Symbolic Z-matrix:
 Charge =  0 Multiplicity = 1

 SCF Done:  E(RB3LYP) =  -535.138894154     A.U. after   14 cycles
 SCF Done:  E(RB3LYP) =  -535.144488625     A.U. after   12 cycles
 SCF Done:  E(RB3LYP) =  -535.144981526     A.U. after   12 cycles
 SCF Done:  E(RB3LYP) =  -535.145191493     A.U. after   11 cycles
 SCF Done:  E(RB3LYP) =  -535.145426344     A.U. after   10 cycles
 SCF Done:  E(RB3LYP) =  -535.145461441     A.U. after   10 cycles
 SCF Done:  E(RB3LYP) =  -535.145474129     A.U. after   10 cycles
 SCF Done:  E(RB3LYP) =  -535.145481235     A.U. after    8 cycles
 SCF Done:  E(RB3LYP) =  -535.145482349     A.U. after    8 cycles
 SCF Done:  E(RB3LYP) =  -535.145482856     A.U. after    8 cycles
 SCF Done:  E(RB3LYP) =  -535.145483114     A.U. after    8 cycles
 SCF Done:  E(RB3LYP) =  -535.145483164     A.U. after    7 cycles
 Optimization completed.
    -- Stationary point found.
 Normal termination of Gaussian 16 at Tue Dec  8 19:30:09 2020.

 --------------------------------------------------------------------
 #N Geom=AllCheck Guess=TCheck SCRF=Check GenChk RB3LYP/6-31G(d) Freq
 --------------------------------------------------------------------

 Structure from the checkpoint file:  "JID_1224.chk"
 ------------------------------
 CID_67211357_JID_1224_neutraal
 ------------------------------
 Charge =  0 Multiplicity = 1

 SCF Done:  E(RB3LYP) =  -535.145483163     A.U. after    1 cycles

  Exact polarizability: 105.929  -2.505  92.935   4.085   0.660  70.744
 Approx polarizability: 133.644  -7.502 132.914   8.004  -1.173 109.816

                      1                      2                      3
                      A                      A                      A
 Frequencies --     46.6661                92.3126               109.8680
 Red. masses --      4.7182                 4.7902                 3.2804
 Frc consts  --      0.0061                 0.0241                 0.0233
 IR Inten    --      0.0752                 0.5134                 1.3513

                      4                      5                      6
                      A                      A                      A
 Frequencies --    146.4723               217.9755               241.5698
 Red. masses --      2.5562                 2.8963                 3.1691
 Frc consts  --      0.0323                 0.0811                 0.1090
 IR Inten    --      1.5812                 2.3591                 2.2184

                      7                      8                      9
                      A                      A                      A
 Frequencies --    298.4893               322.1770               341.5904
 Red. masses --      4.4612                 1.8301                 2.7577
 Frc consts  --      0.2342                 0.1119                 0.1896
 IR Inten    --      1.7360                 0.0942                10.9295

                     10                     11                     12
                      A                      A                      A
 Frequencies --    399.6227               464.6068               471.8626
 Red. masses --      1.9381                 2.9800                 1.9942
 Frc consts  --      0.1824                 0.3790                 0.2616
 IR Inten    --     10.5849                 3.4607                 1.6311

                     13                     14                     15
                      A                      A                      A
 Frequencies --    537.1087               557.5517               579.5646
 Red. masses --      3.4640                 1.8481                 1.1890
 Frc consts  --      0.5888                 0.3385                 0.2353
 IR Inten    --     14.7187                56.4599                70.0449

                     16                     17                     18
                      A                      A                      A
 Frequencies --    607.7702               664.8154               740.3097
 Red. masses --      3.0231                 3.0119                 1.7807
 Frc consts  --      0.6579                 0.7843                 0.5750
 IR Inten    --     60.6686                35.8828                29.2654

                     19                     20                     21
                      A                      A                      A
 Frequencies --    766.0464               786.6266               809.1452
 Red. masses --      8.3107                 2.8025                 1.5047
 Frc consts  --      2.8734                 1.0217                 0.5804
 IR Inten    --     44.5503                 2.7625                19.4204

                     22                     23                     24
                      A                      A                      A
 Frequencies --    831.2676               858.9139               932.8714
 Red. masses --      2.1468                 2.5947                 2.1025
 Frc consts  --      0.8740                 1.1278                 1.0780
 IR Inten    --     22.9801                 7.9331                 5.1522

                     25                     26                     27
                      A                      A                      A
 Frequencies --    964.1637               995.8418              1032.2745
 Red. masses --      1.8230                 1.9033                 1.8862
 Frc consts  --      0.9985                 1.1121                 1.1842
 IR Inten    --      6.9253                10.5360                 4.7228

                     28                     29                     30
                      A                      A                      A
 Frequencies --   1055.5478              1093.3898              1124.2184
 Red. masses --      2.2728                 2.5592                 2.9106
 Frc consts  --      1.4920                 1.8026                 2.1674
 IR Inten    --      2.6908                19.1683                18.9457

                     31                     32                     33
                      A                      A                      A
 Frequencies --   1136.0476              1168.3650              1206.1758
 Red. masses --      2.3529                 2.7476                 1.4216
 Frc consts  --      1.7891                 2.2098                 1.2185
 IR Inten    --     10.5997                60.2833                12.4249

                     34                     35                     36
                      A                      A                      A
 Frequencies --   1215.2236              1242.2833              1265.7989
 Red. masses --      1.4029                 1.4870                 2.2292
 Frc consts  --      1.2207                 1.3521                 2.1044
 IR Inten    --     50.5144               104.8475               158.7108

                     37                     38                     39
                      A                      A                      A
 Frequencies --   1296.0004              1319.3315              1330.9127
 Red. masses --      1.1904                 1.2473                 1.1444
 Frc consts  --      1.1781                 1.2791                 1.1943
 IR Inten    --      1.9510                 0.2633                 0.6644

                     40                     41                     42
                      A                      A                      A
 Frequencies --   1355.4972              1381.4145              1397.4757
 Red. masses --      1.4194                 1.3175                 1.2811
 Frc consts  --      1.5366                 1.4813                 1.4741
 IR Inten    --     17.0305                12.3965                10.0298

                     43                     44                     45
                      A                      A                      A
 Frequencies --   1408.2085              1418.4100              1421.4681
 Red. masses --      1.3540                 1.3460                 1.4045
 Frc consts  --      1.5819                 1.5955                 1.6721
 IR Inten    --      2.1580                 3.0413                 6.9823

                     46                     47                     48
                      A                      A                      A
 Frequencies --   1433.5428              1469.6776              1506.9699
 Red. masses --      1.4353                 1.9947                 1.0838
 Frc consts  --      1.7378                 2.5385                 1.4501
 IR Inten    --      5.2677                76.6754                 9.0767

                     49                     50                     51
                      A                      A                      A
 Frequencies --   1509.1589              1516.9487              1520.4336
 Red. masses --      1.0834                 1.0969                 1.0885
 Frc consts  --      1.4538                 1.4871                 1.4826
 IR Inten    --      4.2628                 6.8069                 3.1034

                     52                     53                     54
                      A                      A                      A
 Frequencies --   1531.9157              1540.2244              1562.9628
 Red. masses --      1.0886                 1.0884                 1.6248
 Frc consts  --      1.5052                 1.5213                 2.3386
 IR Inten    --     10.8118                 8.2079                90.6338

                     55                     56                     57
                      A                      A                      A
 Frequencies --   1809.1039              3023.4138              3027.1935
 Red. masses --      8.1401                 1.0632                 1.0617
 Frc consts  --     15.6966                 5.7261                 5.7326
 IR Inten    --    413.2771                15.6346                22.0631

                     58                     59                     60
                      A                      A                      A
 Frequencies --   3035.7964              3046.0678              3051.6695
 Red. masses --      1.0688                 1.0725                 1.0731
 Frc consts  --      5.8036                 5.8630                 5.8882
 IR Inten    --      3.7429                80.3702                34.7259

                     61                     62                     63
                      A                      A                      A
 Frequencies --   3057.4607              3060.1871              3061.6585
 Red. masses --      1.0773                 1.0945                 1.0900
 Frc consts  --      5.9332                 6.0392                 6.0198
 IR Inten    --     34.1413                 6.2298                33.8417

                     64                     65                     66
                      A                      A                      A
 Frequencies --   3074.9922              3101.4434              3134.7511
 Red. masses --      1.1002                 1.0989                 1.0918
 Frc consts  --      6.1296                 6.2281                 6.3215
 IR Inten    --     87.2311                48.1803                25.9337

                     67                     68                     69
                      A                      A                      A
 Frequencies --   3164.5389              3523.3505              3727.5882
 Red. masses --      1.0917                 1.0747                 1.0642
 Frc consts  --      6.4412                 7.8607                 8.7123
 IR Inten    --      3.0077                 0.9137                70.7400

 - Thermochemistry -
 -------------------
 Temperature   298.150 Kelvin.  Pressure   1.00000 Atm.
 Atom     1 has atomic number  6 and mass  12.00000

 Molecular mass:   158.10553 amu.
 Principal axes and moments of inertia in atomic units:
                           1         2         3
     Eigenvalues --   935.652922248.208702900.10412
           X            0.99999   0.00498   0.00061
           Y           -0.00499   0.99996   0.00734
           Z           -0.00057  -0.00734   0.99997
 This molecule is an asymmetric top.
 Rotational symmetry number  1.
 Warning -- assumption of classical behavior for rotation
           may cause significant error
 Rotational temperatures (Kelvin)      0.09257     0.03853     0.02987
 Rotational constants (GHZ):           1.92886     0.80275     0.62230
 Zero-point vibrational energy     581052.0 (Joules/Mol)
                                  138.87475 (Kcal/Mol)
 Warning -- explicit consideration of  16 degrees of freedom as
           vibrations may cause significant error
 Vibrational temperatures:     67.14   132.82   158.08   210.74   313.62
          (Kelvin)            347.57   429.46   463.54   491.47   574.97
                              668.47   678.91   772.78   802.19   833.86
                              874.45   956.52  1065.14  1102.17  1131.78
                             1164.18  1196.01  1235.79  1342.19  1387.22
                             1432.79  1485.21  1518.70  1573.14  1617.50
                             1634.52  1681.02  1735.42  1748.44  1787.37
                             1821.20  1864.66  1898.22  1914.89  1950.26
                             1987.55  2010.66  2026.10  2040.78  2045.18
                             2062.55  2114.54  2168.19  2171.34  2182.55
                             2187.56  2204.09  2216.04  2248.75  2602.90
                             4350.02  4355.46  4367.83  4382.61  4390.67
                             4399.00  4402.93  4405.04  4424.23  4462.29
                             4510.21  4553.07  5069.32  5363.17

 Zero-point correction=                           0.221311 (Hartree/Particle)
 Thermal correction to Energy=                    0.231899
 Thermal correction to Enthalpy=                  0.232843
 Thermal correction to Gibbs Free Energy=         0.184972
 Sum of electronic and zero-point Energies=           -534.924172
 Sum of electronic and thermal Energies=              -534.913584
 Sum of electronic and thermal Enthalpies=            -534.912640
 Sum of electronic and thermal Free Energies=         -534.960511

                     E (Thermal)             CV                S
                      KCal/Mol        Cal/Mol-Kelvin    Cal/Mol-Kelvin
 Total                  145.519             40.986            100.752
 Electronic               0.000              0.000              0.000
 Translational            0.889              2.981             41.083
 Rotational               0.889              2.981             30.190
 Vibrational            143.741             35.024             29.479
 Vibration     1          0.595              1.979              4.954
 Vibration     2          0.602              1.955              3.610
 Vibration     3          0.606              1.941              3.271
 Vibration     4          0.617              1.906              2.718
 Vibration     5          0.646              1.814              1.976
 Vibration     6          0.658              1.777              1.791
 Vibration     7          0.692              1.677              1.425
 Vibration     8          0.707              1.631              1.299
 Vibration     9          0.721              1.592              1.205
 Vibration    10          0.766              1.471              0.964
 Vibration    11          0.822              1.329              0.753
 Vibration    12          0.829              1.312              0.732
 Vibration    13          0.892              1.168              0.572
 Vibration    14          0.913              1.123              0.529
 Vibration    15          0.936              1.075              0.486
 Vibration    16          0.967              1.015              0.436

                           ! Non-Optimized Parameters !
 Normal termination of Gaussian 16 at Tue Dec  8 19:35:56 2020.

 ----------------------------------------------------------------------
 # B3LYP/6-311++G(d,p) empiricaldispersion=gd3bj scf=xqc pop=npa geom=c
 heck
 ----------------------------------------------------------------------

 --------------------------------------
 CID_67211357_JID_1224_Energie_neutraal
 --------------------------------------
 Structure from the checkpoint file:  "JID_1224.chk"
 Charge =  0 Multiplicity = 1

 SCF Done:  E(RB3LYP) =  -535.311687161     A.U. after   13 cycles
 Normal termination of Gaussian 16 at Tue Dec  8 19:38:21 2020.

 ----------------------------------------------------------------------
 # B3LYP/6-311++G(d,p) empiricaldispersion=gd3bj scf=xqc pop=npa geom=c
 heck
 ----------------------------------------------------------------------

 ------------------------------------
 CID_67211357_JID_1224_Energie_kation
 ------------------------------------
 Structure from the checkpoint file:  "JID_1224.chk"
 Charge =  1 Multiplicity = 2

 SCF Done:  E(UB3LYP) =  -534.996982188     A.U. after   23 cycles
 Normal termination of Gaussian 16 at Tue Dec  8 19:44:07 2020.
 Gaussian 16:  ES64L-G16RevA.03 25-Dec-2016

 ----------------------------------------------------------------------
 # B3LYP/6-311++G(d,p) empiricaldispersion=gd3bj scf=xqc pop=npa geom=c
 heck
 ----------------------------------------------------------------------

 -----------------------------------
 CID_67211357_JID_1224_Energie_anion
 -----------------------------------
 Structure from the checkpoint file:  "JID_1224.chk"
 Charge = -1 Multiplicity = 2

                         Standard orientation:
 ---------------------------------------------------------------------
 Center     Atomic      Atomic             Coordinates (Angstroms)
 Number     Number       Type             X           Y           Z
 ---------------------------------------------------------------------
      1          6           0        2.576718   -0.096825    0.467797
      2          6           0        2.325147    1.225066   -0.269840
      3          6           0        0.860698    1.607790   -0.565952
      4          6           0       -0.150596    1.328749    0.566082
      5          7           0       -0.877616    0.062098    0.437309
      6          7           0       -0.258548   -1.181745    0.573848
      7          6           0        0.654047   -1.578323   -0.507782
      8          6           0        2.160347   -1.392209   -0.238116
      9          6           0       -2.179211    0.100904    0.005487
     10          8           0       -2.804763    1.128238   -0.212848
     11          8           0       -2.722755   -1.131013   -0.168813
     12          1           0        2.093927   -0.056665    1.453210
     13          1           0        3.651617   -0.162052    0.679143
     14          1           0        2.767350    2.022429    0.342903
     15          1           0        2.886985    1.226345   -1.213699
     16          1           0        0.500321    1.115902   -1.474949
     17          1           0        0.838120    2.681834   -0.786483
     18          1           0       -0.920561    2.099179    0.576501
     19          1           0        0.344600    1.344088    1.545271
     20          1           0        0.149127   -1.263492    1.500295
     21          1           0        0.337986   -1.025274   -1.394466
     22          1           0        0.471822   -2.638463   -0.727243
     23          1           0        2.694381   -1.487190   -1.193756
     24          1           0        2.505475   -2.231468    0.381705
     25          1           0       -3.630762   -0.936347   -0.459296
 ---------------------------------------------------------------------

 SCF Done:  E(UB3LYP) =  -535.296918408     A.U. after   31 cycles

 The electronic state is 2-A.
 Alpha  occ. eigenvalues --  -19.06538 -18.99632 -14.26687 -14.23018 -10.21956
 Alpha  occ. eigenvalues --  -10.09969 -10.09042 -10.06553 -10.05788 -10.05775
 Alpha  occ. eigenvalues --  -10.05474  -1.01314  -0.91483  -0.89573  -0.74147
 Alpha  occ. eigenvalues --   -0.70271  -0.64177  -0.61202  -0.57176  -0.50691
 Alpha  occ. eigenvalues --   -0.49024  -0.45772  -0.44854  -0.40062  -0.37820
 Alpha  occ. eigenvalues --   -0.37139  -0.36138  -0.35356  -0.34062  -0.32048
 Alpha  occ. eigenvalues --   -0.31193  -0.31068  -0.29236  -0.27220  -0.26251
 Alpha  occ. eigenvalues --   -0.25427  -0.22752  -0.21935  -0.21775  -0.20740
 Alpha  occ. eigenvalues --   -0.18920  -0.15568  -0.13236   0.04772
 Alpha virt. eigenvalues --    0.06768   0.07673   0.07780   0.09125   0.10278
 Alpha virt. eigenvalues --    0.10521   0.11212   0.11433   0.12600   0.13295
 Alpha virt. eigenvalues --    0.13691   0.14129   0.14761   0.15085   0.15563

  Beta  occ. eigenvalues --  -19.06521 -18.99624 -14.26685 -14.22995 -10.21953
  Beta  occ. eigenvalues --  -10.09952 -10.09027 -10.06540 -10.05756 -10.05746
  Beta  occ. eigenvalues --  -10.05440  -1.01291  -0.91460  -0.89552  -0.74113
  Beta  occ. eigenvalues --   -0.70220  -0.64124  -0.61148  -0.57125  -0.50628
  Beta  occ. eigenvalues --   -0.48968  -0.45697  -0.44808  -0.40031  -0.37782
  Beta  occ. eigenvalues --   -0.37108  -0.36102  -0.35284  -0.34022  -0.32008
  Beta  occ. eigenvalues --   -0.31163  -0.31028  -0.29206  -0.27171  -0.26205
  Beta  occ. eigenvalues --   -0.25378  -0.22713  -0.21883  -0.21733  -0.20684
  Beta  occ. eigenvalues --   -0.18899  -0.15544  -0.13211
  Beta virt. eigenvalues --    0.07010   0.07745   0.08443   0.08639   0.10017
  Beta virt. eigenvalues --    0.10866   0.11139   0.11586   0.11865   0.13186
  Beta virt. eigenvalues --    0.13772   0.14076   0.14372   0.14992   0.15214

 Mulliken charges and spin densities:
               1          2
     1  C   -1.089478   1.149795
     2  C    2.206803  -2.765214
     3  C   -0.828393   0.912065
     4  C    0.746280  -1.400967
     5  N   -0.553260   0.318720
     6  N    0.070177  -0.080616
     7  C    0.963812  -1.370304
     8  C    0.494878  -0.924947
     9  C    0.133932   0.076921
    10  O   -0.369356  -0.001601
    11  O   -0.213179   0.020698
    12  H   -0.067303   0.169596
    13  H   -1.023142   1.231115
    14  H   -0.205078   0.348699
    15  H   -0.395923   0.540964
    16  H    0.192127  -0.058729
    17  H   -0.288482   0.469979
    18  H    0.295331  -0.084896
    19  H   -0.347394   0.515591
    20  H   -0.072351   0.341111
    21  H    0.111033   0.035138
    22  H   -0.086286   0.269629
    23  H   -0.235062   0.376089
    24  H   -0.488747   0.666617
    25  H    0.049060   0.244547
 Sum of Mulliken charges =  -1.00000   1.00000

 Dipole moment (field-independent basis, Debye):
    X=             -6.2249    Y=              0.2172    Z=             -1.6491  Tot=              6.4433
 Quadrupole moment (field-independent basis, Debye-Ang):
   XX=           -138.2400   YY=           -111.4483   ZZ=            -94.2673
   XY=              3.2701   XZ=             -3.8695   YZ=              1.9471

 Summary of Natural Population Analysis:

                                       Natural Population
                Natural  -----------------------------------------------
    Atom  No    Charge         Core      Valence    Rydberg      Total
 -----------------------------------------------------------------------
      C    1   -0.19459      0.99962     2.18485    0.01013     3.19459
      C    2   -0.18913      0.99962     2.18024    0.00926     3.18913
      C    3   -0.19887      0.99962     2.19060    0.00865     3.19887
      C    4   -0.09266      0.99959     2.08255    0.01052     3.09266
      N    5   -0.17305      0.99962     2.66081    0.01261     3.67305
      N    6   -0.23680      0.99973     2.72354    0.01352     3.73680
      C    7   -0.09148      0.99961     2.08027    0.01160     3.09148
      C    8   -0.19852      0.99962     2.18981    0.00909     3.19852
      C    9    0.45756      0.99970     1.51788    0.02487     2.54244
      O   10   -0.34644      0.99987     3.34086    0.00571     4.34644
      O   11   -0.33956      0.99988     3.33351    0.00618     4.33956
      H   12    0.09125      0.00000     0.40653    0.00222     0.40875
      H   13    0.10717      0.00000     0.38934    0.00349     0.39283
      H   14    0.09888      0.00000     0.39902    0.00211     0.40112
      H   15    0.09725      0.00000     0.40141    0.00134     0.40275
      H   16    0.09617      0.00000     0.40243    0.00139     0.40383
      H   17    0.10156      0.00000     0.39749    0.00095     0.39844
      H   18    0.11583      0.00000     0.38297    0.00120     0.38417
      H   19    0.09476      0.00000     0.40387    0.00137     0.40524
      H   20    0.17634      0.00000     0.32091    0.00275     0.32366
      H   21    0.09361      0.00000     0.40476    0.00164     0.40639
      H   22    0.09391      0.00000     0.40499    0.00110     0.40609
      H   23    0.09905      0.00000     0.39957    0.00138     0.40095
      H   24    0.09975      0.00000     0.39784    0.00241     0.40025
      H   25    0.23800      0.00000     0.25827    0.00372     0.26200
 =======================================================================
   * Total *    0.00000     10.99649    31.85431    0.14919    43.00000

 Normal termination of Gaussian 16 at Tue Dec  8 19:51:43 2020.
