 Gaussian 16, Revision A.03,

 -----------------------------------------------------------
 # opt freq B3LYP/6-31G(d) empiricaldispersion=gd3bj scf=xqc
 -----------------------------------------------------------

 ------------------------------
 CID_104939574_JID_873_neutraal
 ------------------------------
 Symbolic Z-matrix:
 Charge =  0 Multiplicity = 1

 SCF Done:  E(RB3LYP) =  -461.112720544     A.U. after   13 cycles
 SCF Done:  E(RB3LYP) =  -461.117019196     A.U. after   11 cycles
 SCF Done:  E(RB3LYP) =  -461.114841930     A.U. after   11 cycles
 SCF Done:  E(RB3LYP) =  -461.117492486     A.U. after   11 cycles
 SCF Done:  E(RB3LYP) =  -461.118017182     A.U. after   11 cycles
 SCF Done:  E(RB3LYP) =  -461.118287744     A.U. after   10 cycles
 SCF Done:  E(RB3LYP) =  -461.118322003     A.U. after    9 cycles
 SCF Done:  E(RB3LYP) =  -461.118329499     A.U. after    8 cycles
 SCF Done:  E(RB3LYP) =  -461.118332428     A.U. after    8 cycles
 SCF Done:  E(RB3LYP) =  -461.118334423     A.U. after    8 cycles
 SCF Done:  E(RB3LYP) =  -461.118335936     A.U. after    8 cycles
 SCF Done:  E(RB3LYP) =  -461.118336498     A.U. after    7 cycles
 SCF Done:  E(RB3LYP) =  -461.118336666     A.U. after    7 cycles
 Optimization completed.
    -- Stationary point found.
 Normal termination of Gaussian 16 at Tue Dec  8 13:27:56 2020.

 --------------------------------------------------------------------
 #N Geom=AllCheck Guess=TCheck SCRF=Check GenChk RB3LYP/6-31G(d) Freq
 --------------------------------------------------------------------

 Structure from the checkpoint file:  "JID_873.chk"
 ------------------------------
 CID_104939574_JID_873_neutraal
 ------------------------------
 Charge =  0 Multiplicity = 1

 SCF Done:  E(RB3LYP) =  -461.118336666     A.U. after    1 cycles

  Exact polarizability: 100.484   1.543  83.599  -0.094  -2.133  83.204
 Approx polarizability: 123.138   3.008 119.012   0.812  -1.551 122.300

                      1                      2                      3
                      A                      A                      A
 Frequencies --     52.7620               116.0755               144.0817
 Red. masses --      3.0629                 3.4640                 3.2994
 Frc consts  --      0.0050                 0.0275                 0.0404
 IR Inten    --      0.5400                 3.4496                 0.0722

                      4                      5                      6
                      A                      A                      A
 Frequencies --    217.8411               219.4840               248.2304
 Red. masses --      2.5113                 2.3854                 1.1438
 Frc consts  --      0.0702                 0.0677                 0.0415
 IR Inten    --      5.0458                 1.0597                 1.3317

                      7                      8                      9
                      A                      A                      A
 Frequencies --    262.3108               312.6281               339.9270
 Red. masses --      2.6039                 2.1037                 1.2328
 Frc consts  --      0.1056                 0.1211                 0.0839
 IR Inten    --      7.2500                 2.2460                47.8694

                     10                     11                     12
                      A                      A                      A
 Frequencies --    372.0223               386.0688               421.0545
 Red. masses --      2.5915                 2.1965                 1.9272
 Frc consts  --      0.2113                 0.1929                 0.2013
 IR Inten    --     27.5901                16.9074                 1.8602

                     13                     14                     15
                      A                      A                      A
 Frequencies --    433.0793               451.1899               507.8542
 Red. masses --      1.2279                 2.1848                 2.6555
 Frc consts  --      0.1357                 0.2621                 0.4035
 IR Inten    --     87.8179                51.6951                14.7065

                     16                     17                     18
                      A                      A                      A
 Frequencies --    584.1588               629.6902               773.1860
 Red. masses --      3.4564                 2.7992                 2.1589
 Frc consts  --      0.6949                 0.6540                 0.7604
 IR Inten    --      4.4057                 2.8700                 7.4199

                     19                     20                     21
                      A                      A                      A
 Frequencies --    829.4452               862.6163               869.0922
 Red. masses --      3.5627                 2.0006                 2.0880
 Frc consts  --      1.4441                 0.8771                 0.9292
 IR Inten    --      2.7942                 4.5654                11.7142

                     22                     23                     24
                      A                      A                      A
 Frequencies --    898.4164               930.2806               945.1045
 Red. masses --      2.2821                 2.3293                 1.6869
 Frc consts  --      1.0853                 1.1877                 0.8878
 IR Inten    --      1.8458                53.9048                 1.4387

                     25                     26                     27
                      A                      A                      A
 Frequencies --    948.5373               991.6125              1011.5970
 Red. masses --      1.3648                 1.6812                 1.7242
 Frc consts  --      0.7235                 0.9740                 1.0395
 IR Inten    --     69.5075                 1.6992                 2.2675

                     28                     29                     30
                      A                      A                      A
 Frequencies --   1040.7251              1075.8261              1106.8745
 Red. masses --      1.4782                 2.3748                 1.7925
 Frc consts  --      0.9433                 1.6195                 1.2940
 IR Inten    --     17.9862                42.0097                17.7250

                     31                     32                     33
                      A                      A                      A
 Frequencies --   1133.6329              1154.6022              1177.7282
 Red. masses --      1.7625                 1.8157                 1.7693
 Frc consts  --      1.3345                 1.4261                 1.4459
 IR Inten    --     25.2930                39.0701                 4.4952

                     34                     35                     36
                      A                      A                      A
 Frequencies --   1189.9594              1204.2735              1215.9630
 Red. masses --      1.5523                 1.3721                 1.9918
 Frc consts  --      1.2950                 1.1724                 1.7351
 IR Inten    --     17.4431                 5.7124                 9.3579

                     37                     38                     39
                      A                      A                      A
 Frequencies --   1242.7547              1286.3267              1298.5974
 Red. masses --      1.6180                 1.7740                 1.6516
 Frc consts  --      1.4723                 1.7294                 1.6410
 IR Inten    --      7.1266                35.8035                23.6825

                     40                     41                     42
                      A                      A                      A
 Frequencies --   1322.1357              1338.7799              1366.8520
 Red. masses --      1.3324                 1.4054                 1.2823
 Frc consts  --      1.3723                 1.4841                 1.4115
 IR Inten    --     16.0302                 6.7957                16.6982

                     43                     44                     45
                      A                      A                      A
 Frequencies --   1385.0844              1406.9569              1416.3357
 Red. masses --      1.5699                 1.3957                 1.4491
 Frc consts  --      1.7745                 1.6279                 1.7127
 IR Inten    --     16.9746                28.3351                 4.7423

                     46                     47                     48
                      A                      A                      A
 Frequencies --   1428.5798              1438.1453              1448.5324
 Red. masses --      1.5452                 1.2929                 1.4210
 Frc consts  --      1.8580                 1.5755                 1.7567
 IR Inten    --      7.5189                 9.1868                10.1893

                     49                     50                     51
                      A                      A                      A
 Frequencies --   1505.9560              1507.3181              1523.0482
 Red. masses --      1.0901                 1.1104                 1.0572
 Frc consts  --      1.4566                 1.4865                 1.4449
 IR Inten    --      3.7829                 2.1329                 2.5453

                     52                     53                     54
                      A                      A                      A
 Frequencies --   1525.3883              1530.8589              1551.8790
 Red. masses --      1.0624                 1.0880                 1.0829
 Frc consts  --      1.4564                 1.5022                 1.5366
 IR Inten    --      4.9986                 2.7806                 1.5041

                     55                     56                     57
                      A                      A                      A
 Frequencies --   1576.0617              1722.0301              2927.8997
 Red. masses --      1.0883                 1.0819                 1.0738
 Frc consts  --      1.5927                 1.8903                 5.4236
 IR Inten    --      1.2813                24.8517                76.3999

                     58                     59                     60
                      A                      A                      A
 Frequencies --   2978.6070              3010.1298              3028.3252
 Red. masses --      1.0716                 1.0702                 1.0690
 Frc consts  --      5.6018                 5.7135                 5.7760
 IR Inten    --     90.2298                74.4831                88.3747

                     61                     62                     63
                      A                      A                      A
 Frequencies --   3034.5737              3041.2451              3059.1752
 Red. masses --      1.0866                 1.0420                 1.0864
 Frc consts  --      5.8957                 5.6781                 5.9904
 IR Inten    --     17.2013                34.4594                65.1607

                     64                     65                     66
                      A                      A                      A
 Frequencies --   3065.3483              3077.8423              3092.4773
 Red. masses --      1.0873                 1.0745                 1.0946
 Frc consts  --      6.0196                 5.9973                 6.1679
 IR Inten    --     11.1261                32.8233                36.4978

                     67                     68                     69
                      A                      A                      A
 Frequencies --   3107.4514              3131.0969              3136.1128
 Red. masses --      1.0951                 1.1028                 1.1031
 Frc consts  --      6.2302                 6.3702                 6.3919
 IR Inten    --     31.1241                 1.9265                39.9899

                     70                     71                     72
                      A                      A                      A
 Frequencies --   3450.0298              3537.4481              3727.4151
 Red. masses --      1.0508                 1.0923                 1.0659
 Frc consts  --      7.3690                 8.0531                 8.7254
 IR Inten    --     47.5655                17.3731                 7.8487

 - Thermochemistry -
 -------------------
 Temperature   298.150 Kelvin.  Pressure   1.00000 Atm.
 Atom     1 has atomic number  6 and mass  12.00000

 Molecular mass:   144.12626 amu.
 Principal axes and moments of inertia in atomic units:
                           1         2         3
     Eigenvalues --   836.345861866.695542039.22738
           X            0.99998   0.00683   0.00136
           Y           -0.00669   0.99654  -0.08290
           Z           -0.00192   0.08289   0.99656
 This molecule is an asymmetric top.
 Rotational symmetry number  1.
 Warning -- assumption of classical behavior for rotation
           may cause significant error
 Rotational temperatures (Kelvin)      0.10356     0.04640     0.04247
 Rotational constants (GHZ):           2.15789     0.96681     0.88501
 Zero-point vibrational energy     623761.2 (Joules/Mol)
                                  149.08251 (Kcal/Mol)
 Warning -- explicit consideration of  16 degrees of freedom as
           vibrations may cause significant error
 Vibrational temperatures:     75.91   167.01   207.30   313.42   315.79
          (Kelvin)            357.15   377.41   449.80   489.08   535.26
                              555.47   605.80   623.10   649.16   730.69
                              840.47   905.98  1112.44  1193.39  1241.11
                             1250.43  1292.62  1338.47  1359.79  1364.73
                             1426.71  1455.46  1497.37  1547.87  1592.55
                             1631.04  1661.22  1694.49  1712.09  1732.68
                             1749.50  1788.05  1850.74  1868.39  1902.26
                             1926.21  1966.60  1992.83  2024.30  2037.79
                             2055.41  2069.17  2084.12  2166.73  2168.69
                             2191.33  2194.69  2202.56  2232.81  2267.60
                             2477.62  4212.59  4285.55  4330.91  4357.08
                             4366.07  4375.67  4401.47  4410.35  4428.33
                             4449.39  4470.93  4504.95  4512.17  4963.82
                             5089.60  5362.92

 Zero-point correction=                           0.237578 (Hartree/Particle)
 Thermal correction to Energy=                    0.248298
 Thermal correction to Enthalpy=                  0.249242
 Thermal correction to Gibbs Free Energy=         0.202093
 Sum of electronic and zero-point Energies=           -460.880759
 Sum of electronic and thermal Energies=              -460.870038
 Sum of electronic and thermal Enthalpies=            -460.869094
 Sum of electronic and thermal Free Energies=         -460.916244

                     E (Thermal)             CV                S
                      KCal/Mol        Cal/Mol-Kelvin    Cal/Mol-Kelvin
 Total                  155.809             41.823             99.234
 Electronic               0.000              0.000              0.000
 Translational            0.889              2.981             40.808
 Rotational               0.889              2.981             29.544
 Vibrational            154.032             35.861             28.883
 Vibration     1          0.596              1.977              4.711
 Vibration     2          0.608              1.936              3.165
 Vibration     3          0.616              1.909              2.749
 Vibration     4          0.646              1.814              1.977
 Vibration     5          0.647              1.811              1.963
 Vibration     6          0.662              1.766              1.743
 Vibration     7          0.670              1.742              1.646
 Vibration     8          0.701              1.650              1.348
 Vibration     9          0.720              1.596              1.212
 Vibration    10          0.744              1.530              1.071
 Vibration    11          0.755              1.500              1.015
 Vibration    12          0.784              1.424              0.888
 Vibration    13          0.794              1.398              0.849
 Vibration    14          0.810              1.358              0.792
 Vibration    15          0.863              1.233              0.639
 Vibration    16          0.941              1.066              0.478

 Optimization completed.
    -- Stationary point found.
 Normal termination of Gaussian 16 at Tue Dec  8 13:34:31 2020.

 ----------------------------------------------------------------------
 # B3LYP/6-311++G(d,p) empiricaldispersion=gd3bj scf=xqc pop=npa geom=c
 heck
 ----------------------------------------------------------------------

 --------------------------------------
 CID_104939574_JID_873_Energie_neutraal
 --------------------------------------
 Structure from the checkpoint file:  "JID_873.chk"
 Charge =  0 Multiplicity = 1

 SCF Done:  E(RB3LYP) =  -461.265567805     A.U. after   13 cycles
 Normal termination of Gaussian 16 at Tue Dec  8 13:39:42 2020.

 ----------------------------------------------------------------------
 # B3LYP/6-311++G(d,p) empiricaldispersion=gd3bj scf=xqc pop=npa geom=c
 heck
 ----------------------------------------------------------------------

 ------------------------------------
 CID_104939574_JID_873_Energie_kation
 ------------------------------------
 Structure from the checkpoint file:  "JID_873.chk"
 Charge =  1 Multiplicity = 2

 SCF Done:  E(UB3LYP) =  -460.998057371     A.U. after   18 cycles
 Normal termination of Gaussian 16 at Tue Dec  8 13:45:30 2020.
 Gaussian 16:  ES64L-G16RevA.03 25-Dec-2016

 ----------------------------------------------------------------------
 # B3LYP/6-311++G(d,p) empiricaldispersion=gd3bj scf=xqc pop=npa geom=c
 heck
 ----------------------------------------------------------------------

 -----------------------------------
 CID_104939574_JID_873_Energie_anion
 -----------------------------------
 Structure from the checkpoint file:  "JID_873.chk"
 Charge = -1 Multiplicity = 2

                         Standard orientation:
 ---------------------------------------------------------------------
 Center     Atomic      Atomic             Coordinates (Angstroms)
 Number     Number       Type             X           Y           Z
 ---------------------------------------------------------------------
      1          6           0       -2.864308    0.491737   -0.643367
      2          6           0       -1.474004    0.218213   -0.083178
      3          6           0       -1.415252   -0.865189    0.998705
      4          6           0        0.068145   -1.247634    1.037005
      5          7           0        0.507195   -1.093762   -0.358491
      6          6           0       -0.463225   -0.311259   -1.118227
      7          6           0        1.924976   -0.885022   -0.602589
      8          6           0        2.449839    0.557802   -0.504562
      9          7           0        2.178531    1.144693    0.809218
     10          8           0       -0.957073    1.414050    0.543171
     11          1           0       -3.527077    0.855012    0.148332
     12          1           0       -3.300131   -0.413830   -1.077797
     13          1           0       -2.826355    1.254435   -1.432701
     14          1           0       -1.792288   -0.495930    1.956093
     15          1           0       -2.029209   -1.716688    0.684871
     16          1           0        0.215684   -2.282674    1.374474
     17          1           0        0.621588   -0.595516    1.722991
     18          1           0       -0.976644   -0.929263   -1.873575
     19          1           0       -0.001930    0.526899   -1.659197
     20          1           0        2.468860   -1.500583    0.122324
     21          1           0        2.179166   -1.268518   -1.602527
     22          1           0        3.536781    0.521249   -0.653652
     23          1           0        2.048752    1.150989   -1.349032
     24          1           0        2.636121    2.051981    0.879774
     25          1           0        1.176038    1.317469    0.895561
     26          1           0       -0.929883    2.104159   -0.139103
 ---------------------------------------------------------------------

 SCF Done:  E(UB3LYP) =  -461.252708835     A.U. after   26 cycles

 The electronic state is 2-A.
 Alpha  occ. eigenvalues --  -19.00962 -14.18357 -14.17176 -10.11786 -10.08157
 Alpha  occ. eigenvalues --  -10.07724 -10.07601 -10.07552 -10.05720 -10.04880
 Alpha  occ. eigenvalues --   -0.91372  -0.81433  -0.76097  -0.67931  -0.62997
 Alpha  occ. eigenvalues --   -0.60522  -0.56563  -0.50492  -0.46343  -0.45627
 Alpha  occ. eigenvalues --   -0.40379  -0.38302  -0.37074  -0.35353  -0.33945
 Alpha  occ. eigenvalues --   -0.32627  -0.31541  -0.30006  -0.29720  -0.27911
 Alpha  occ. eigenvalues --   -0.26677  -0.25488  -0.24652  -0.24077  -0.23579
 Alpha  occ. eigenvalues --   -0.23249  -0.21076  -0.17148  -0.13172  -0.08587
 Alpha  occ. eigenvalues --    0.04776
 Alpha virt. eigenvalues --    0.07490   0.08089   0.08950   0.09631   0.09994
 Alpha virt. eigenvalues --    0.10543   0.11119   0.11535   0.12529   0.13068
 Alpha virt. eigenvalues --    0.13469   0.13574   0.14915   0.15856   0.16699

  Beta  occ. eigenvalues --  -19.00909 -14.18358 -14.17155 -10.11784 -10.08153
  Beta  occ. eigenvalues --  -10.07717 -10.07576 -10.07516 -10.05700 -10.04828
  Beta  occ. eigenvalues --   -0.91265  -0.81413  -0.76056  -0.67892  -0.62954
  Beta  occ. eigenvalues --   -0.60474  -0.56486  -0.50433  -0.46254  -0.45583
  Beta  occ. eigenvalues --   -0.40330  -0.38260  -0.37024  -0.35299  -0.33901
  Beta  occ. eigenvalues --   -0.32593  -0.31488  -0.29964  -0.29676  -0.27875
  Beta  occ. eigenvalues --   -0.26644  -0.25453  -0.24623  -0.24033  -0.23552
  Beta  occ. eigenvalues --   -0.23217  -0.21018  -0.17097  -0.13144  -0.08573
  Beta virt. eigenvalues --    0.07320   0.08193   0.08816   0.09398   0.10244
  Beta virt. eigenvalues --    0.10692   0.10841   0.11462   0.12124   0.12891
  Beta virt. eigenvalues --    0.13610   0.13750   0.14074   0.15051   0.16392

 Mulliken charges and spin densities:
               1          2
     1  C    2.604574  -3.109060
     2  C   -2.655917   2.782534
     3  C    1.467510  -1.873051
     4  C   -0.900075   0.680162
     5  N    0.116123   0.086252
     6  C    0.450809  -1.113526
     7  C   -0.672376   0.307144
     8  C    1.269836  -1.497780
     9  N   -0.635801   0.183310
    10  O   -0.172012  -0.021899
    11  H   -0.174538   0.328001
    12  H   -0.194284   0.333147
    13  H   -0.707799   0.863504
    14  H    0.103857   0.069148
    15  H   -0.172230   0.339940
    16  H   -0.027943   0.167047
    17  H    0.083234   0.046909
    18  H   -0.496148   0.673358
    19  H    0.340793  -0.177764
    20  H    0.067091   0.058497
    21  H   -0.005570   0.134992
    22  H   -0.069217   0.199964
    23  H   -0.642256   0.766386
    24  H   -0.057481   0.295933
    25  H    0.416025  -0.117111
    26  H   -0.336206   0.593962
 Sum of Mulliken charges =  -1.00000   1.00000

 Dipole moment (field-independent basis, Debye):
    X=              2.2547    Y=             -4.1035    Z=              2.9676  Tot=              5.5434
 Quadrupole moment (field-independent basis, Debye-Ang):
   XX=           -111.9976   YY=           -103.9505   ZZ=            -97.8855
   XY=             -0.8517   XZ=             -6.3396   YZ=              3.1221

 Summary of Natural Population Analysis:

                                       Natural Population
                Natural  -----------------------------------------------
    Atom  No    Charge         Core      Valence    Rydberg      Total
 -----------------------------------------------------------------------
      C    1   -0.29510      0.99961     2.28841    0.00708     3.29510
      C    2    0.12427      0.99952     1.86045    0.01576     2.87573
      C    3   -0.19937      0.99957     2.19032    0.00948     3.19937
      C    4   -0.07949      0.99962     2.07112    0.00875     3.07949
      N    5   -0.29224      0.99973     2.77976    0.01276     3.79224
      C    6   -0.09202      0.99955     2.07955    0.01292     3.09202
      C    7   -0.07897      0.99961     2.06776    0.01160     3.07897
      C    8   -0.09841      0.99964     2.08715    0.01162     3.09841
      N    9   -0.43702      0.99977     2.92611    0.01115     3.93702
      O   10   -0.38739      0.99989     3.38023    0.00728     4.38739
      H   11    0.10290      0.00000     0.39589    0.00121     0.39710
      H   12    0.10275      0.00000     0.39562    0.00164     0.39725
      H   13    0.10439      0.00000     0.39300    0.00261     0.39561
      H   14    0.10602      0.00000     0.39307    0.00091     0.39398
      H   15    0.10032      0.00000     0.39849    0.00119     0.39968
      H   16    0.08635      0.00000     0.41232    0.00133     0.41365
      H   17    0.09460      0.00000     0.40341    0.00200     0.40540
      H   18    0.09120      0.00000     0.40693    0.00187     0.40880
      H   19    0.09835      0.00000     0.39902    0.00263     0.40165
      H   20    0.09311      0.00000     0.40572    0.00117     0.40689
      H   21    0.08941      0.00000     0.40959    0.00100     0.41059
      H   22    0.08644      0.00000     0.41228    0.00127     0.41356
      H   23    0.07973      0.00000     0.41775    0.00252     0.42027
      H   24    0.17352      0.00000     0.32475    0.00173     0.32648
      H   25    0.18860      0.00000     0.30853    0.00286     0.31140
      H   26    0.23806      0.00000     0.25191    0.01003     0.26194
 =======================================================================
   * Total *    0.00000      9.99650    29.85914    0.14436    40.00000

 Normal termination of Gaussian 16 at Tue Dec  8 13:52:28 2020.
