 Gaussian 16, Revision A.03,

 -----------------------------------------------------------
 # opt freq B3LYP/6-31G(d) empiricaldispersion=gd3bj scf=xqc
 -----------------------------------------------------------

 ------------------------------
 CID_79188930_JID_4106_neutraal
 ------------------------------
 Symbolic Z-matrix:
 Charge =  0 Multiplicity = 1

 SCF Done:  E(RB3LYP) =  -1067.71032431     A.U. after   15 cycles
 SCF Done:  E(RB3LYP) =  -1067.71754957     A.U. after   13 cycles
 SCF Done:  E(RB3LYP) =  -1067.71836830     A.U. after   12 cycles
 SCF Done:  E(RB3LYP) =  -1067.71910500     A.U. after   13 cycles
 SCF Done:  E(RB3LYP) =  -1067.71979017     A.U. after   12 cycles
 SCF Done:  E(RB3LYP) =  -1067.72088873     A.U. after   15 cycles
 SCF Done:  E(RB3LYP) =  -1067.72123631     A.U. after   13 cycles
 SCF Done:  E(RB3LYP) =  -1067.72127926     A.U. after   13 cycles
 SCF Done:  E(RB3LYP) =  -1067.72139542     A.U. after   12 cycles
 SCF Done:  E(RB3LYP) =  -1067.72141373     A.U. after   11 cycles
 SCF Done:  E(RB3LYP) =  -1067.72435757     A.U. after   11 cycles
 SCF Done:  E(RB3LYP) =  -1067.72436770     A.U. after   10 cycles
 SCF Done:  E(RB3LYP) =  -1067.72437010     A.U. after    9 cycles
 SCF Done:  E(RB3LYP) =  -1067.72437303     A.U. after    9 cycles
 SCF Done:  E(RB3LYP) =  -1067.72437373     A.U. after    8 cycles
 Optimization completed.
    -- Stationary point found.
 Normal termination of Gaussian 16 at Thu Dec 10 09:45:53 2020.

 --------------------------------------------------------------------
 #N Geom=AllCheck Guess=TCheck SCRF=Check GenChk RB3LYP/6-31G(d) Freq
 --------------------------------------------------------------------

 Structure from the checkpoint file:  "JID_4106.chk"
 ------------------------------
 CID_79188930_JID_4106_neutraal
 ------------------------------
 Charge =  0 Multiplicity = 1

 SCF Done:  E(RB3LYP) =  -1067.72437373     A.U. after    1 cycles

  Exact polarizability: 132.062  -0.842 109.720  -0.069  -4.693 102.084
 Approx polarizability: 177.699  -3.871 166.351  -3.752 -11.316 157.921

                      1                      2                      3
                      A                      A                      A
 Frequencies --     34.1388                45.9923                68.4032
 Red. masses --      4.1701                 6.1099                 5.1088
 Frc consts  --      0.0029                 0.0076                 0.0141
 IR Inten    --      0.6256                 2.3015                 2.0756

                      4                      5                      6
                      A                      A                      A
 Frequencies --     80.7461               125.9905               136.9104
 Red. masses --      4.9052                 3.7838                 5.0400
 Frc consts  --      0.0188                 0.0354                 0.0557
 IR Inten    --      1.5776                 1.5434                 2.5541

                      7                      8                      9
                      A                      A                      A
 Frequencies --    146.6293               188.0048               233.0850
 Red. masses --      4.3179                 2.5075                 1.5431
 Frc consts  --      0.0547                 0.0522                 0.0494
 IR Inten    --      1.3656                 2.4988                 1.1240

                     10                     11                     12
                      A                      A                      A
 Frequencies --    246.8379               259.1111               284.4180
 Red. masses --      2.0228                 2.1259                 5.1817
 Frc consts  --      0.0726                 0.0841                 0.2470
 IR Inten    --      1.7294                 0.3283                 1.1450

                     13                     14                     15
                      A                      A                      A
 Frequencies --    300.8026               306.3133               347.2157
 Red. masses --      1.3950                 4.2893                 3.1759
 Frc consts  --      0.0744                 0.2371                 0.2256
 IR Inten    --      0.3054                 4.0233                 1.1419

                     16                     17                     18
                      A                      A                      A
 Frequencies --    382.6222               404.6913               461.8999
 Red. masses --      2.4492                 2.7460                 3.7870
 Frc consts  --      0.2113                 0.2650                 0.4760
 IR Inten    --      2.0129                 1.7556                 2.2421

                     19                     20                     21
                      A                      A                      A
 Frequencies --    475.3006               505.9841               538.9984
 Red. masses --      4.0252                 3.4252                 4.8177
 Frc consts  --      0.5358                 0.5167                 0.8246
 IR Inten    --      4.9693                13.6595                29.9906

                     22                     23                     24
                      A                      A                      A
 Frequencies --    579.0455               636.9099               644.9815
 Red. masses --      3.7744                 2.6993                 2.1934
 Frc consts  --      0.7456                 0.6451                 0.5376
 IR Inten    --    162.2825                41.1239                74.9530

                     25                     26                     27
                      A                      A                      A
 Frequencies --    701.6832               782.6242               794.4649
 Red. masses --      2.4810                 2.9742                 3.5764
 Frc consts  --      0.7197                 1.0733                 1.3300
 IR Inten    --     14.0055                 1.0684                19.4099

                     28                     29                     30
                      A                      A                      A
 Frequencies --    818.8357               882.9172               914.4315
 Red. masses --      4.1275                 2.3385                 3.6787
 Frc consts  --      1.6305                 1.0741                 1.8124
 IR Inten    --     62.6689                 1.0879                 3.4331

                     31                     32                     33
                      A                      A                      A
 Frequencies --    928.2198               933.3219               960.6704
 Red. masses --      1.8836                 1.7352                 1.5053
 Frc consts  --      0.9562                 0.8905                 0.8185
 IR Inten    --      3.1874                 0.6072                 1.3696

                     34                     35                     36
                      A                      A                      A
 Frequencies --    974.9503              1028.0604              1048.0846
 Red. masses --      1.4465                 1.6101                 1.3853
 Frc consts  --      0.8101                 1.0026                 0.8966
 IR Inten    --      9.9023                 4.2049                 6.4625

                     37                     38                     39
                      A                      A                      A
 Frequencies --   1073.8062              1105.0967              1115.3957
 Red. masses --      3.6041                 2.7600                 1.8196
 Frc consts  --      2.4485                 1.9859                 1.3337
 IR Inten    --    137.5565                37.2963                32.0936

                     40                     41                     42
                      A                      A                      A
 Frequencies --   1123.6512              1156.3345              1178.3532
 Red. masses --      1.7870                 2.2200                 1.8207
 Frc consts  --      1.3293                 1.7489                 1.4895
 IR Inten    --     18.6264               286.7849                 5.2945

                     43                     44                     45
                      A                      A                      A
 Frequencies --   1194.9963              1210.8734              1236.5456
 Red. masses --      3.8514                 2.1280                 1.5748
 Frc consts  --      3.2405                 1.8383                 1.4187
 IR Inten    --     36.0250                64.0776               128.0010

                     46                     47                     48
                      A                      A                      A
 Frequencies --   1238.2521              1263.5643              1267.5209
 Red. masses --      1.4816                 1.3776                 1.3265
 Frc consts  --      1.3384                 1.2959                 1.2556
 IR Inten    --      0.5022                20.2529                35.0341

                     49                     50                     51
                      A                      A                      A
 Frequencies --   1311.4680              1344.2865              1352.0314
 Red. masses --      1.4902                 1.3218                 8.2116
 Frc consts  --      1.5101                 1.4073                 8.8441
 IR Inten    --      0.7443                 0.3848               150.9852

                     52                     53                     54
                      A                      A                      A
 Frequencies --   1362.6339              1379.7778              1398.8463
 Red. masses --      1.3561                 1.4324                 1.3483
 Frc consts  --      1.4836                 1.6067                 1.5544
 IR Inten    --      8.1878                 7.7840                 1.7533

                     55                     56                     57
                      A                      A                      A
 Frequencies --   1402.8077              1418.3841              1443.3466
 Red. masses --      2.2643                 1.4940                 1.2819
 Frc consts  --      2.6253                 1.7709                 1.5734
 IR Inten    --    113.1623                 1.1842                 2.3331

                     58                     59                     60
                      A                      A                      A
 Frequencies --   1453.1687              1481.7447              1526.3074
 Red. masses --      1.2459                 1.2106                 1.0464
 Frc consts  --      1.5502                 1.5660                 1.4362
 IR Inten    --      7.1880                29.1367                 5.7253

                     61                     62                     63
                      A                      A                      A
 Frequencies --   1528.8357              1538.9146              1546.4407
 Red. masses --      1.0476                 1.0551                 1.0501
 Frc consts  --      1.4427                 1.4722                 1.4795
 IR Inten    --      6.3569                 3.9140                 1.2464

                     64                     65                     66
                      A                      A                      A
 Frequencies --   1551.5151              1560.2430              1828.0415
 Red. masses --      1.0766                 1.0792                 9.6487
 Frc consts  --      1.5270                 1.5479                18.9972
 IR Inten    --      1.4353                 5.2746               297.8967

                     67                     68                     69
                      A                      A                      A
 Frequencies --   3033.5512              3051.3214              3053.7141
 Red. masses --      1.0843                 1.0366                 1.0381
 Frc consts  --      5.8789                 5.6866                 5.7036
 IR Inten    --     18.0126                12.5678                27.7616

                     70                     71                     72
                      A                      A                      A
 Frequencies --   3055.6302              3070.0302              3089.7321
 Red. masses --      1.0623                 1.0799                 1.0585
 Frc consts  --      5.8439                 5.9965                 5.9535
 IR Inten    --     16.8713                53.7911                18.1665

                     73                     74                     75
                      A                      A                      A
 Frequencies --   3095.8517              3114.8880              3116.4901
 Red. masses --      1.1082                 1.1021                 1.1007
 Frc consts  --      6.2579                 6.3000                 6.2984
 IR Inten    --     28.1204                38.0916                20.9410

                     76                     77                     78
                      A                      A                      A
 Frequencies --   3118.0708              3127.1672              3135.6127
 Red. masses --      1.0587                 1.1020                 1.1027
 Frc consts  --      6.0645                 6.3493                 6.3879
 IR Inten    --      1.1179                20.9975                15.5505

                     79                     80                     81
                      A                      A                      A
 Frequencies --   3140.2551              3186.3046              3682.4537
 Red. masses --      1.1086                 1.1087                 1.0639
 Frc consts  --      6.4411                 6.6317                 8.5001
 IR Inten    --     15.3081                 0.2290                65.9605

 - Thermochemistry -
 -------------------
 Temperature   298.150 Kelvin.  Pressure   1.00000 Atm.
 Atom     1 has atomic number  6 and mass  12.00000

 Molecular mass:   221.07218 amu.
 Principal axes and moments of inertia in atomic units:
                           1         2         3
     Eigenvalues --  2044.425743734.717664493.69131
           X            0.99991  -0.01066   0.00799
           Y            0.01081   0.99977  -0.01862
           Z           -0.00779   0.01871   0.99979
 This molecule is an asymmetric top.
 Rotational symmetry number  1.
 Warning -- assumption of classical behavior for rotation
           may cause significant error
 Rotational temperatures (Kelvin)      0.04237     0.02319     0.01927
 Rotational constants (GHZ):           0.88276     0.48323     0.40162
 Zero-point vibrational energy     633228.6 (Joules/Mol)
                                  151.34527 (Kcal/Mol)
 Warning -- explicit consideration of  22 degrees of freedom as
           vibrations may cause significant error
 Vibrational temperatures:     49.12    66.17    98.42   116.18   181.27
          (Kelvin)            196.98   210.97   270.50   335.36   355.14
                              372.80   409.21   432.79   440.72   499.57
                              550.51   582.26   664.57   683.85   728.00
                              775.50   833.12   916.37   927.98  1009.57
                             1126.02  1143.06  1178.12  1270.32  1315.66
                             1335.50  1342.84  1382.19  1402.74  1479.15
                             1507.96  1544.97  1589.99  1604.81  1616.68
                             1663.71  1695.39  1719.33  1742.18  1779.11
                             1781.57  1817.99  1823.68  1886.91  1934.13
                             1945.27  1960.53  1985.19  2012.63  2018.33
                             2040.74  2076.65  2090.79  2131.90  2196.02
                             2199.65  2214.15  2224.98  2232.28  2244.84
                             2630.14  4364.60  4390.17  4393.61  4396.37
                             4417.09  4445.44  4454.24  4481.63  4483.93
                             4486.21  4499.30  4511.45  4518.13  4584.38
                             5298.23

 Zero-point correction=                           0.241184 (Hartree/Particle)
 Thermal correction to Energy=                    0.256020
 Thermal correction to Enthalpy=                  0.256965
 Thermal correction to Gibbs Free Energy=         0.198633
 Sum of electronic and zero-point Energies=          -1067.483190
 Sum of electronic and thermal Energies=             -1067.468353
 Sum of electronic and thermal Enthalpies=           -1067.467409
 Sum of electronic and thermal Free Energies=        -1067.525741

                     E (Thermal)             CV                S
                      KCal/Mol        Cal/Mol-Kelvin    Cal/Mol-Kelvin
 Total                  160.655             54.845            122.769
 Electronic               0.000              0.000              0.000
 Translational            0.889              2.981             42.083
 Rotational               0.889              2.981             31.906
 Vibrational            158.878             48.883             48.780
 Vibration     1          0.594              1.983              5.573
 Vibration     2          0.595              1.979              4.983
 Vibration     3          0.598              1.969              4.199
 Vibration     4          0.600              1.962              3.873
 Vibration     5          0.611              1.927              3.006
 Vibration     6          0.614              1.916              2.847
 Vibration     7          0.617              1.906              2.716
 Vibration     8          0.633              1.856              2.247
 Vibration     9          0.654              1.790              1.855
 Vibration    10          0.661              1.768              1.753
 Vibration    11          0.668              1.747              1.668
 Vibration    12          0.683              1.703              1.507
 Vibration    13          0.693              1.672              1.412
 Vibration    14          0.697              1.662              1.382
 Vibration    15          0.725              1.581              1.179
 Vibration    16          0.752              1.507              1.029
 Vibration    17          0.770              1.460              0.946
 Vibration    18          0.820              1.335              0.761
 Vibration    19          0.832              1.305              0.723
 Vibration    20          0.861              1.237              0.643
 Vibration    21          0.894              1.164              0.567
 Vibration    22          0.936              1.077              0.487

                           ! Non-Optimized Parameters !
 Normal termination of Gaussian 16 at Thu Dec 10 09:54:58 2020.

 ----------------------------------------------------------------------
 # B3LYP/6-311++G(d,p) empiricaldispersion=gd3bj scf=xqc pop=npa geom=c
 heck
 ----------------------------------------------------------------------

 --------------------------------------
 CID_79188930_JID_4106_Energie_neutraal
 --------------------------------------
 Structure from the checkpoint file:  "JID_4106.chk"
 Charge =  0 Multiplicity = 1

 SCF Done:  E(RB3LYP) =  -1067.95465016     A.U. after   15 cycles
 Normal termination of Gaussian 16 at Thu Dec 10 09:58:38 2020.

 ----------------------------------------------------------------------
 # B3LYP/6-311++G(d,p) empiricaldispersion=gd3bj scf=xqc pop=npa geom=c
 heck
 ----------------------------------------------------------------------

 ------------------------------------
 CID_79188930_JID_4106_Energie_kation
 ------------------------------------
 Structure from the checkpoint file:  "JID_4106.chk"
 Charge =  1 Multiplicity = 2

 SCF Done:  E(UB3LYP) =  -1067.62171499     A.U. after   24 cycles
 Normal termination of Gaussian 16 at Thu Dec 10 10:06:50 2020.
 Gaussian 16:  ES64L-G16RevA.03 25-Dec-2016

 ----------------------------------------------------------------------
 # B3LYP/6-311++G(d,p) empiricaldispersion=gd3bj scf=xqc pop=npa geom=c
 heck
 ----------------------------------------------------------------------

 -----------------------------------
 CID_79188930_JID_4106_Energie_anion
 -----------------------------------
 Structure from the checkpoint file:  "JID_4106.chk"
 Charge = -1 Multiplicity = 2

                         Standard orientation:
 ---------------------------------------------------------------------
 Center     Atomic      Atomic             Coordinates (Angstroms)
 Number     Number       Type             X           Y           Z
 ---------------------------------------------------------------------
      1          6           0       -3.431080    1.019752   -1.165034
      2          6           0       -2.559190   -0.136801   -0.684587
      3          6           0       -1.101644   -0.041143   -1.165788
      4          7           0       -0.397840   -0.901212   -0.193843
      5          6           0       -1.234762   -1.271517    0.963110
      6          6           0       -2.425268   -0.304024    0.851701
      7          6           0       -2.149033    1.006582    1.597590
      8         16           0        1.219734   -1.132632   -0.198685
      9          8           0        1.496425   -2.391907    0.492900
     10          8           0        1.701384   -0.843593   -1.549417
     11          6           0        1.951057    0.147518    0.906550
     12          6           0        1.901403    1.515391    0.278581
     13          8           0        0.902620    2.197225    0.173734
     14          8           0        3.107746    1.899155   -0.174989
     15          1           0       -3.497980    1.026794   -2.258699
     16          1           0       -3.024373    1.986220   -0.850521
     17          1           0       -4.449604    0.934060   -0.769887
     18          1           0       -2.976452   -1.075799   -1.073069
     19          1           0       -0.963194   -0.422450   -2.179668
     20          1           0       -0.732727    0.987461   -1.120816
     21          1           0       -0.685721   -1.155571    1.903757
     22          1           0       -1.538420   -2.321315    0.882974
     23          1           0       -3.328957   -0.770488    1.260983
     24          1           0       -2.983197    1.707808    1.495938
     25          1           0       -2.013108    0.810475    2.667469
     26          1           0       -1.243864    1.499320    1.226649
     27          1           0        1.375924    0.135350    1.834556
     28          1           0        2.975009   -0.178882    1.091616
     29          1           0        2.981497    2.766017   -0.605963
 ---------------------------------------------------------------------

 SCF Done:  E(UB3LYP) =  -1067.94662939     A.U. after   33 cycles
 SCF Done:  E(UB3LYP) =  -1067.94662940     a.u. after    2 cycles

 The electronic state is 2-A.
 Alpha  occ. eigenvalues --  -88.96268 -19.07326 -19.01652 -19.01534 -19.01081
 Alpha  occ. eigenvalues --  -14.24178 -10.19991 -10.11331 -10.10843 -10.10314
 Alpha  occ. eigenvalues --  -10.08203 -10.07916 -10.06513 -10.05208  -8.02380
 Alpha  occ. eigenvalues --   -5.98658  -5.98630  -5.98498  -1.02183  -1.01230
 Alpha  occ. eigenvalues --   -0.92132  -0.91114  -0.84964  -0.72058  -0.68599
 Alpha  occ. eigenvalues --   -0.66124  -0.60617  -0.59483  -0.54312  -0.52001
 Alpha  occ. eigenvalues --   -0.47099  -0.45693  -0.44120  -0.41014  -0.40207
 Alpha  occ. eigenvalues --   -0.39394  -0.39119  -0.36217  -0.35757  -0.34394
 Alpha  occ. eigenvalues --   -0.33441  -0.32932  -0.32021  -0.31290  -0.30977
 Alpha  occ. eigenvalues --   -0.29965  -0.28488  -0.27840  -0.27056  -0.24690
 Alpha  occ. eigenvalues --   -0.24231  -0.23378  -0.22540  -0.22430  -0.22033
 Alpha  occ. eigenvalues --   -0.20772  -0.20356  -0.18440  -0.15200   0.04305
 Alpha virt. eigenvalues --    0.06140   0.06543   0.07508   0.08290   0.08669
 Alpha virt. eigenvalues --    0.09784   0.10689   0.10953   0.11193   0.12078
 Alpha virt. eigenvalues --    0.12506   0.13533   0.14161   0.14962   0.15147

  Beta  occ. eigenvalues --  -88.96248 -19.07262 -19.01651 -19.01520 -19.00972
  Beta  occ. eigenvalues --  -14.24178 -10.19763 -10.11327 -10.10825 -10.10305
  Beta  occ. eigenvalues --  -10.08194 -10.07899 -10.06485 -10.05178  -8.02359
  Beta  occ. eigenvalues --   -5.98644  -5.98616  -5.98451  -1.02130  -1.01031
  Beta  occ. eigenvalues --   -0.91942  -0.91099  -0.84945  -0.72014  -0.68422
  Beta  occ. eigenvalues --   -0.66090  -0.60541  -0.59432  -0.54124  -0.51885
  Beta  occ. eigenvalues --   -0.47017  -0.45636  -0.44011  -0.40871  -0.40059
  Beta  occ. eigenvalues --   -0.39280  -0.38912  -0.36120  -0.35707  -0.34169
  Beta  occ. eigenvalues --   -0.33233  -0.32840  -0.31927  -0.31242  -0.30894
  Beta  occ. eigenvalues --   -0.29868  -0.28451  -0.27803  -0.27023  -0.24653
  Beta  occ. eigenvalues --   -0.24197  -0.23033  -0.22498  -0.22281  -0.21988
  Beta  occ. eigenvalues --   -0.20754  -0.20257  -0.18324  -0.15171
  Beta virt. eigenvalues --    0.06650   0.07127   0.07976   0.08370   0.08825
  Beta virt. eigenvalues --    0.09282   0.10155   0.11014   0.11224   0.11506
  Beta virt. eigenvalues --    0.12386   0.12782   0.13702   0.14334   0.15017

 Mulliken charges and spin densities:
               1          2
     1  C    0.331991  -1.045345
     2  C    0.121611   0.163900
     3  C   -0.249770  -0.424858
     4  N   -0.067250   0.021761
     5  C    0.238563  -0.715813
     6  C   -0.693650   0.956126
     7  C    0.888456  -1.675168
     8  S    0.060018   0.255339
     9  O   -0.197280   0.027705
    10  O   -0.165789  -0.003247
    11  C    0.072003  -0.659256
    12  C    0.054255   0.038138
    13  O   -0.305808   0.050327
    14  O   -0.163603   0.047015
    15  H   -0.049443   0.187217
    16  H    0.068562   0.086558
    17  H   -0.347910   0.499988
    18  H   -0.082641   0.296125
    19  H    0.176348   0.003183
    20  H    0.243505   0.015385
    21  H   -0.003210   0.184954
    22  H   -0.037430   0.247042
    23  H   -0.607081   0.852044
    24  H   -0.037974   0.174547
    25  H   -0.273544   0.411086
    26  H    0.044040   0.169376
    27  H   -0.107283   0.365511
    28  H    0.123363   0.150974
    29  H   -0.033047   0.319386
 Sum of Mulliken charges =  -1.00000   1.00000

 Dipole moment (field-independent basis, Debye):
    X=              2.9474    Y=              0.5433    Z=             -1.4377  Tot=              3.3240
 Quadrupole moment (field-independent basis, Debye-Ang):
   XX=           -157.4826   YY=           -131.2483   ZZ=           -124.9590
   XY=              0.9974   XZ=              8.1677   YZ=             -1.2500

 Summary of Natural Population Analysis:

                                       Natural Population
                Natural  -----------------------------------------------
    Atom  No    Charge         Core      Valence    Rydberg      Total
 -----------------------------------------------------------------------
      C    1   -0.28557      0.99964     2.27982    0.00610     3.28557
      C    2   -0.11244      0.99959     2.10114    0.01171     3.11244
      C    3   -0.07934      0.99959     2.06895    0.01081     3.07934
      N    4   -0.38869      0.99971     2.87610    0.01289     3.88869
      C    5   -0.07543      0.99960     2.06344    0.01239     3.07543
      C    6   -0.11188      0.99958     2.09961    0.01268     3.11188
      C    7   -0.29658      0.99964     2.28959    0.00735     3.29658
      S    8    1.12929      4.99922     1.76928    0.10221     6.87071
      O    9   -0.46460      0.99991     3.45921    0.00549     4.46460
      O   10   -0.46383      0.99990     3.45870    0.00522     4.46383
      C   11   -0.33913      0.99953     2.32709    0.01251     3.33913
      C   12    0.42152      0.99972     1.55361    0.02515     2.57848
      O   13   -0.30638      0.99987     3.30018    0.00633     4.30638
      O   14   -0.33878      0.99987     3.33244    0.00646     4.33878
      H   15    0.09942      0.00000     0.39980    0.00078     0.40058
      H   16    0.10066      0.00000     0.39840    0.00094     0.39934
      H   17    0.10369      0.00000     0.39516    0.00116     0.39631
      H   18    0.09928      0.00000     0.39928    0.00144     0.40072
      H   19    0.10191      0.00000     0.39701    0.00107     0.39809
      H   20    0.10471      0.00000     0.39394    0.00136     0.39529
      H   21    0.10037      0.00000     0.39834    0.00129     0.39963
      H   22    0.09853      0.00000     0.40008    0.00139     0.40147
      H   23    0.10385      0.00000     0.39366    0.00250     0.39615
      H   24    0.10047      0.00000     0.39852    0.00100     0.39953
      H   25    0.10064      0.00000     0.39815    0.00121     0.39936
      H   26    0.11135      0.00000     0.38696    0.00169     0.38865
      H   27    0.12459      0.00000     0.37380    0.00162     0.37541
      H   28    0.12184      0.00000     0.37704    0.00113     0.37816
      H   29    0.24052      0.00000     0.25511    0.00438     0.25948
 =======================================================================
   * Total *   -0.00000     17.99537    40.74441    0.26023    59.00000

 Normal termination of Gaussian 16 at Thu Dec 10 10:29:28 2020.
