 Gaussian 16, Revision A.03,

 -----------------------------------------------------------
 # opt freq B3LYP/6-31G(d) empiricaldispersion=gd3bj scf=xqc
 -----------------------------------------------------------

 -------------------------------
 CID_152849192_JID_1737_neutraal
 -------------------------------
 Symbolic Z-matrix:
 Charge =  0 Multiplicity = 1

 SCF Done:  E(RB3LYP) =  -519.119366977     A.U. after   15 cycles
 SCF Done:  E(RB3LYP) =  -519.122831090     A.U. after   12 cycles
 SCF Done:  E(RB3LYP) =  -519.123440628     A.U. after   13 cycles
 SCF Done:  E(RB3LYP) =  -519.123536912     A.U. after   12 cycles
 SCF Done:  E(RB3LYP) =  -519.123761632     A.U. after   12 cycles
 SCF Done:  E(RB3LYP) =  -519.123901096     A.U. after   11 cycles
 SCF Done:  E(RB3LYP) =  -519.123988911     A.U. after   11 cycles
 SCF Done:  E(RB3LYP) =  -519.124049388     A.U. after   11 cycles
 SCF Done:  E(RB3LYP) =  -519.124071466     A.U. after   10 cycles
 SCF Done:  E(RB3LYP) =  -519.124104688     A.U. after   11 cycles
 SCF Done:  E(RB3LYP) =  -519.124137369     A.U. after   10 cycles
 SCF Done:  E(RB3LYP) =  -519.124138785     A.U. after   11 cycles
 SCF Done:  E(RB3LYP) =  -519.124139752     A.U. after    8 cycles
 SCF Done:  E(RB3LYP) =  -519.124139890     A.U. after    8 cycles
 SCF Done:  E(RB3LYP) =  -519.124140017     A.U. after    9 cycles
 SCF Done:  E(RB3LYP) =  -519.124140026     A.U. after    8 cycles
 Optimization completed.
    -- Stationary point found.
 Normal termination of Gaussian 16 at Tue Dec  8 21:01:45 2020.

 --------------------------------------------------------------------
 #N Geom=AllCheck Guess=TCheck SCRF=Check GenChk RB3LYP/6-31G(d) Freq
 --------------------------------------------------------------------

 Structure from the checkpoint file:  "JID_1737.chk"
 -------------------------------
 CID_152849192_JID_1737_neutraal
 -------------------------------
 Charge =  0 Multiplicity = 1

 SCF Done:  E(RB3LYP) =  -519.124140026     A.U. after    1 cycles

  Exact polarizability:  98.223  -8.668  98.600   5.428   0.482  90.901
 Approx polarizability: 126.809 -18.037 138.548   8.610   4.125 143.891

                      1                      2                      3
                      A                      A                      A
 Frequencies --     29.0172                49.3069                60.9619
 Red. masses --      8.4444                 3.4149                 3.1252
 Frc consts  --      0.0042                 0.0049                 0.0068
 IR Inten    --      0.4801                 0.1598                 0.8992

                      4                      5                      6
                      A                      A                      A
 Frequencies --    117.0907               122.5640               148.7302
 Red. masses --      2.4034                 1.0777                 2.4618
 Frc consts  --      0.0194                 0.0095                 0.0321
 IR Inten    --      1.4430                 0.1106                 0.1501

                      7                      8                      9
                      A                      A                      A
 Frequencies --    180.7947               218.0391               243.2900
 Red. masses --      3.3453                 2.9685                 1.5110
 Frc consts  --      0.0644                 0.0831                 0.0527
 IR Inten    --      0.7294                 3.5286                 0.0745

                     10                     11                     12
                      A                      A                      A
 Frequencies --    252.7404               286.5803               309.7721
 Red. masses --      2.3071                 2.2125                 1.3983
 Frc consts  --      0.0868                 0.1071                 0.0791
 IR Inten    --      9.0794                29.4699               138.2295

                     13                     14                     15
                      A                      A                      A
 Frequencies --    342.8535               371.8209               433.9735
 Red. masses --      2.1266                 5.4039                 2.2226
 Frc consts  --      0.1473                 0.4402                 0.2466
 IR Inten    --     15.3909                 7.2370                18.4636

                     16                     17                     18
                      A                      A                      A
 Frequencies --    447.1155               513.5380               555.3507
 Red. masses --      1.2626                 3.1940                 3.8388
 Frc consts  --      0.1487                 0.4963                 0.6976
 IR Inten    --    121.7812                 6.3856                16.0445

                     19                     20                     21
                      A                      A                      A
 Frequencies --    580.8942               624.4365               657.9091
 Red. masses --      2.7838                 1.8705                 1.9169
 Frc consts  --      0.5534                 0.4297                 0.4888
 IR Inten    --      8.9044                 7.6861                 6.5923

                     22                     23                     24
                      A                      A                      A
 Frequencies --    747.2578               754.4706               820.1199
 Red. masses --      1.4766                 3.0186                 1.3607
 Frc consts  --      0.4858                 1.0124                 0.5392
 IR Inten    --      5.6756                 2.0600                33.8896

                     25                     26                     27
                      A                      A                      A
 Frequencies --    826.6869               891.1383               920.3800
 Red. masses --      1.7574                 2.8366                 2.3847
 Frc consts  --      0.7076                 1.3272                 1.1902
 IR Inten    --      9.9792                 1.0987                11.5413

                     28                     29                     30
                      A                      A                      A
 Frequencies --    924.1446               986.4775              1024.5143
 Red. masses --      1.7486                 1.7672                 1.6470
 Frc consts  --      0.8799                 1.0132                 1.0186
 IR Inten    --     11.9245                 9.8186                 8.3956

                     31                     32                     33
                      A                      A                      A
 Frequencies --   1072.5870              1077.6283              1106.0286
 Red. masses --      1.4286                 2.1601                 2.2840
 Frc consts  --      0.9684                 1.4780                 1.6462
 IR Inten    --      0.3213                11.1783                13.2317

                     34                     35                     36
                      A                      A                      A
 Frequencies --   1124.1145              1135.8351              1142.9608
 Red. masses --      2.1925                 2.0074                 1.7834
 Frc consts  --      1.6323                 1.5258                 1.3727
 IR Inten    --     11.2246                 5.6977                 2.3336

                     37                     38                     39
                      A                      A                      A
 Frequencies --   1218.0009              1255.9004              1267.9198
 Red. masses --      1.8959                 1.2973                 1.4782
 Frc consts  --      1.6571                 1.2056                 1.4001
 IR Inten    --    102.0267                 9.1500                 5.5516

                     40                     41                     42
                      A                      A                      A
 Frequencies --   1297.0469              1323.3204              1360.8526
 Red. masses --      1.4164                 1.2561                 1.2559
 Frc consts  --      1.4039                 1.2960                 1.3703
 IR Inten    --     31.0007                 8.4810                 6.5473

                     43                     44                     45
                      A                      A                      A
 Frequencies --   1369.4388              1394.8182              1402.2377
 Red. masses --      2.6265                 1.4581                 1.3891
 Frc consts  --      2.9021                 1.6714                 1.6092
 IR Inten    --    132.7523                12.6158                 3.6786

                     46                     47                     48
                      A                      A                      A
 Frequencies --   1443.0376              1445.4187              1461.6153
 Red. masses --      1.2670                 1.3180                 1.5603
 Frc consts  --      1.5545                 1.6223                 1.9639
 IR Inten    --      3.2786                 1.6820                 6.3902

                     49                     50                     51
                      A                      A                      A
 Frequencies --   1511.0231              1516.3913              1520.2409
 Red. masses --      1.0441                 1.0838                 1.0632
 Frc consts  --      1.4046                 1.4684                 1.4478
 IR Inten    --      5.9918                 1.9156                 0.2449

                     52                     53                     54
                      A                      A                      A
 Frequencies --   1526.6152              1532.7094              1541.2380
 Red. masses --      1.0609                 1.0640                 1.0555
 Frc consts  --      1.4567                 1.4727                 1.4772
 IR Inten    --      9.6765                 5.1206                 2.5284

                     55                     56                     57
                      A                      A                      A
 Frequencies --   1641.7303              1764.9388              1803.7341
 Red. masses --      1.2611                 6.5564                 9.3204
 Frc consts  --      2.0026                12.0331                17.8661
 IR Inten    --    179.5569                52.9868               312.2866

                     58                     59                     60
                      A                      A                      A
 Frequencies --   3035.0567              3042.4011              3048.2228
 Red. masses --      1.0409                 1.0617                 1.0372
 Frc consts  --      5.6495                 5.7898                 5.6782
 IR Inten    --     38.0653                27.5853                23.9530

                     61                     62                     63
                      A                      A                      A
 Frequencies --   3057.2903              3076.6922              3077.0424
 Red. masses --      1.0654                 1.1007                 1.0956
 Frc consts  --      5.8673                 6.1386                 6.1116
 IR Inten    --     11.3328                25.2535                29.1733

                     64                     65                     66
                      A                      A                      A
 Frequencies --   3102.8227              3110.7068              3112.6910
 Red. masses --      1.1027                 1.0877                 1.1014
 Frc consts  --      6.2551                 6.2013                 6.2875
 IR Inten    --     12.5526                20.2158                47.4834

                     67                     68                     69
                      A                      A                      A
 Frequencies --   3122.7471              3138.5853              3153.9634
 Red. masses --      1.1013                 1.0944                 1.0858
 Frc consts  --      6.3275                 6.3517                 6.3636
 IR Inten    --     51.1653                21.5958                17.0509

                     70                     71                     72
                      A                      A                      A
 Frequencies --   3574.3108              3708.6850              3735.0752
 Red. masses --      1.0448                 1.1061                 1.0655
 Frc consts  --      7.8643                 8.9640                 8.7578
 IR Inten    --     43.5204                77.5955                20.4937

 - Thermochemistry -
 -------------------
 Temperature   298.150 Kelvin.  Pressure   1.00000 Atm.
 Atom     1 has atomic number  6 and mass  12.00000

 Molecular mass:   157.11028 amu.
 Principal axes and moments of inertia in atomic units:
                           1         2         3
     Eigenvalues --  1628.178262066.220572521.81112
           X            0.99773   0.04977   0.04526
           Y           -0.04733   0.99745  -0.05351
           Z           -0.04781   0.05124   0.99754
 This molecule is an asymmetric top.
 Rotational symmetry number  1.
 Warning -- assumption of classical behavior for rotation
           may cause significant error
 Rotational temperatures (Kelvin)      0.05320     0.04192     0.03435
 Rotational constants (GHZ):           1.10844     0.87345     0.71565
 Zero-point vibrational energy     596910.5 (Joules/Mol)
                                  142.66504 (Kcal/Mol)
 Warning -- explicit consideration of  19 degrees of freedom as
           vibrations may cause significant error
 Vibrational temperatures:     41.75    70.94    87.71   168.47   176.34
          (Kelvin)            213.99   260.12   313.71   350.04   363.64
                              412.33   445.69   493.29   534.97   624.39
                              643.30   738.87   799.03   835.78   898.42
                              946.58  1075.14  1085.51  1179.97  1189.42
                             1282.15  1324.22  1329.64  1419.32  1474.05
                             1543.21  1550.47  1591.33  1617.35  1634.21
                             1644.47  1752.43  1806.96  1824.25  1866.16
                             1903.96  1957.96  1970.32  2006.83  2017.51
                             2076.21  2079.64  2102.94  2174.03  2181.75
                             2187.29  2196.46  2205.23  2217.50  2362.08
                             2539.35  2595.17  4366.77  4377.34  4385.71
                             4398.76  4426.67  4427.18  4464.27  4475.61
                             4478.47  4492.94  4515.72  4537.85  5142.64
                             5335.97  5373.94

 Zero-point correction=                           0.227351 (Hartree/Particle)
 Thermal correction to Energy=                    0.240650
 Thermal correction to Enthalpy=                  0.241594
 Thermal correction to Gibbs Free Energy=         0.187049
 Sum of electronic and zero-point Energies=           -518.896789
 Sum of electronic and thermal Energies=              -518.883490
 Sum of electronic and thermal Enthalpies=            -518.882546
 Sum of electronic and thermal Free Energies=         -518.937091

                     E (Thermal)             CV                S
                      KCal/Mol        Cal/Mol-Kelvin    Cal/Mol-Kelvin
 Total                  151.010             48.002            114.800
 Electronic               0.000              0.000              0.000
 Translational            0.889              2.981             41.065
 Rotational               0.889              2.981             30.518
 Vibrational            149.233             42.040             43.218
 Vibration     1          0.593              1.984              5.895
 Vibration     2          0.595              1.978              4.845
 Vibration     3          0.597              1.973              4.426
 Vibration     4          0.608              1.935              3.148
 Vibration     5          0.610              1.930              3.060
 Vibration     6          0.618              1.904              2.688
 Vibration     7          0.630              1.866              2.320
 Vibration     8          0.646              1.814              1.975
 Vibration     9          0.659              1.774              1.779
 Vibration    10          0.664              1.758              1.711
 Vibration    11          0.684              1.699              1.494
 Vibration    12          0.699              1.655              1.364
 Vibration    13          0.722              1.590              1.199
 Vibration    14          0.744              1.530              1.072
 Vibration    15          0.795              1.396              0.846
 Vibration    16          0.806              1.367              0.805
 Vibration    17          0.869              1.220              0.625
 Vibration    18          0.911              1.128              0.533
 Vibration    19          0.938              1.073              0.484

 Optimization completed.
    -- Stationary point found.
 Normal termination of Gaussian 16 at Tue Dec  8 21:08:13 2020.

 ----------------------------------------------------------------------
 # B3LYP/6-311++G(d,p) empiricaldispersion=gd3bj scf=xqc pop=npa geom=c
 heck
 ----------------------------------------------------------------------

 ---------------------------------------
 CID_152849192_JID_1737_Energie_neutraal
 ---------------------------------------
 Structure from the checkpoint file:  "JID_1737.chk"
 Charge =  0 Multiplicity = 1

 SCF Done:  E(RB3LYP) =  -519.293241739     A.U. after   15 cycles
 Normal termination of Gaussian 16 at Tue Dec  8 21:11:45 2020.

 ----------------------------------------------------------------------
 # B3LYP/6-311++G(d,p) empiricaldispersion=gd3bj scf=xqc pop=npa geom=c
 heck
 ----------------------------------------------------------------------

 -------------------------------------
 CID_152849192_JID_1737_Energie_kation
 -------------------------------------
 Structure from the checkpoint file:  "JID_1737.chk"
 Charge =  1 Multiplicity = 2

 SCF Done:  E(UB3LYP) =  -518.988366148     A.U. after   23 cycles
 Normal termination of Gaussian 16 at Tue Dec  8 21:18:56 2020.
 Gaussian 16:  ES64L-G16RevA.03 25-Dec-2016

 ----------------------------------------------------------------------
 # B3LYP/6-311++G(d,p) empiricaldispersion=gd3bj scf=xqc pop=npa geom=c
 heck
 ----------------------------------------------------------------------

 ------------------------------------
 CID_152849192_JID_1737_Energie_anion
 ------------------------------------
 Structure from the checkpoint file:  "JID_1737.chk"
 Charge = -1 Multiplicity = 2

                         Standard orientation:
 ---------------------------------------------------------------------
 Center     Atomic      Atomic             Coordinates (Angstroms)
 Number     Number       Type             X           Y           Z
 ---------------------------------------------------------------------
      1          6           0       -2.631920   -1.376735   -0.536810
      2          6           0       -1.763219   -1.542630    0.713106
      3          6           0       -0.255969   -1.557024    0.430805
      4          6           0        0.272707   -0.266460   -0.246498
      5          6           0       -0.055344    0.968336    0.548051
      6          6           0       -0.684648    2.067580    0.114179
      7          6           0       -1.187504    2.345686   -1.272553
      8          8           0        0.372041    0.844421    1.863883
      9          6           0        1.770221   -0.454793   -0.556027
     10          8           0        2.133612   -0.961176   -1.608620
     11          7           0        2.633584   -0.071785    0.424456
     12          1           0       -2.490877   -0.393887   -0.998678
     13          1           0       -3.695365   -1.472947   -0.291517
     14          1           0       -2.391356   -2.137623   -1.289439
     15          1           0       -1.990269   -0.741946    1.428081
     16          1           0       -2.023332   -2.484534    1.213366
     17          1           0        0.287953   -1.714212    1.368333
     18          1           0       -0.007139   -2.394541   -0.232007
     19          1           0       -0.191069   -0.181015   -1.228531
     20          1           0       -0.853398    2.865990    0.841142
     21          1           0       -2.273164    2.511292   -1.275143
     22          1           0       -0.726920    3.254728   -1.680967
     23          1           0       -0.972928    1.531781   -1.969180
     24          1           0        0.151678    1.662967    2.337072
     25          1           0        2.292959    0.284918    1.306594
     26          1           0        3.616964   -0.258199    0.292055
 ---------------------------------------------------------------------

 SCF Done:  E(UB3LYP) =  -519.282593668     A.U. after   30 cycles

 The electronic state is 2-A.
 Alpha  occ. eigenvalues --  -19.04089 -18.98576 -14.22392 -10.17144 -10.12447
 Alpha  occ. eigenvalues --  -10.08534 -10.07092 -10.06844 -10.06632 -10.06183
 Alpha  occ. eigenvalues --  -10.05786  -0.94913  -0.93445  -0.79995  -0.71807
 Alpha  occ. eigenvalues --   -0.67880  -0.64400  -0.58145  -0.55649  -0.49651
 Alpha  occ. eigenvalues --   -0.48999  -0.46536  -0.44039  -0.39185  -0.37771
 Alpha  occ. eigenvalues --   -0.35604  -0.35222  -0.33306  -0.32057  -0.31424
 Alpha  occ. eigenvalues --   -0.30943  -0.29709  -0.29255  -0.27614  -0.27000
 Alpha  occ. eigenvalues --   -0.26230  -0.25217  -0.23766  -0.23154  -0.22679
 Alpha  occ. eigenvalues --   -0.16988  -0.15803  -0.11871   0.04547
 Alpha virt. eigenvalues --    0.06944   0.07409   0.07990   0.09443   0.09859
 Alpha virt. eigenvalues --    0.10464   0.10833   0.11151   0.11776   0.12655
 Alpha virt. eigenvalues --    0.12968   0.13363   0.13779   0.14035   0.15177

  Beta  occ. eigenvalues --  -19.04020 -18.98573 -14.22354 -10.17142 -10.12447
  Beta  occ. eigenvalues --  -10.08522 -10.07084 -10.06827 -10.06617 -10.06166
  Beta  occ. eigenvalues --  -10.05748  -0.94796  -0.93431  -0.79944  -0.71771
  Beta  occ. eigenvalues --   -0.67837  -0.64363  -0.58097  -0.55603  -0.49551
  Beta  occ. eigenvalues --   -0.48939  -0.46451  -0.43996  -0.39114  -0.37735
  Beta  occ. eigenvalues --   -0.35562  -0.35187  -0.33276  -0.32026  -0.31396
  Beta  occ. eigenvalues --   -0.30919  -0.29690  -0.29222  -0.27587  -0.26953
  Beta  occ. eigenvalues --   -0.26162  -0.25168  -0.23738  -0.23125  -0.22652
  Beta  occ. eigenvalues --   -0.16959  -0.15789  -0.11834
  Beta virt. eigenvalues --    0.06886   0.07892   0.07993   0.09038   0.09682
  Beta virt. eigenvalues --    0.10356   0.10858   0.11150   0.11383   0.12016
  Beta virt. eigenvalues --    0.12847   0.13170   0.13615   0.14206   0.14507

 Mulliken charges and spin densities:
               1          2
     1  C    0.104652  -0.742850
     2  C   -0.571276   0.305596
     3  C   -0.417129   0.097988
     4  C    1.647129  -0.655517
     5  C   -1.745995   1.206764
     6  C    1.569865  -1.764554
     7  C    0.588534  -1.271835
     8  O   -0.317203   0.102742
     9  C    0.438801  -0.654782
    10  O   -0.361230   0.014386
    11  N   -0.519950   0.123412
    12  H    0.215774  -0.056667
    13  H   -0.346761   0.478860
    14  H    0.128781  -0.003533
    15  H   -0.077595   0.252473
    16  H   -0.077049   0.230005
    17  H    0.158203   0.026081
    18  H    0.024573   0.138028
    19  H    0.391186  -0.145199
    20  H   -1.007470   1.177417
    21  H   -0.008042   0.154501
    22  H   -0.044439   0.193328
    23  H   -0.120802   0.233982
    24  H   -0.578269   0.882904
    25  H   -0.021086   0.323344
    26  H   -0.053204   0.353128
 Sum of Mulliken charges =  -1.00000   1.00000

 Dipole moment (field-independent basis, Debye):
    X=             -0.5349    Y=             -4.1954    Z=             -3.8846  Tot=              5.7426
 Quadrupole moment (field-independent basis, Debye-Ang):
   XX=           -114.1305   YY=           -113.2196   ZZ=           -112.0429
   XY=              1.8573   XZ=              4.7653   YZ=            -14.6287

 Summary of Natural Population Analysis:

                                       Natural Population
                Natural  -----------------------------------------------
    Atom  No    Charge         Core      Valence    Rydberg      Total
 -----------------------------------------------------------------------
      C    1   -0.28823      0.99966     2.28302    0.00554     3.28823
      C    2   -0.19220      0.99964     2.18475    0.00781     3.19220
      C    3   -0.18235      0.99961     2.17329    0.00945     3.18235
      C    4   -0.16995      0.99950     2.15770    0.01275     3.16995
      C    5    0.15650      0.99935     1.82683    0.01731     2.84350
      C    6   -0.13597      0.99946     2.12616    0.01036     3.13597
      C    7   -0.29392      0.99965     2.28782    0.00645     3.29392
      O    8   -0.36655      0.99988     3.35796    0.00872     4.36655
      C    9    0.34798      0.99967     1.62787    0.02448     2.65202
      O   10   -0.32985      0.99987     3.32410    0.00588     4.32985
      N   11   -0.40361      0.99969     2.89612    0.00780     3.90361
      H   12    0.09848      0.00000     0.40037    0.00115     0.40152
      H   13    0.09904      0.00000     0.40014    0.00082     0.40096
      H   14    0.09290      0.00000     0.40624    0.00086     0.40710
      H   15    0.10261      0.00000     0.39616    0.00124     0.39739
      H   16    0.09431      0.00000     0.40477    0.00092     0.40569
      H   17    0.10464      0.00000     0.39389    0.00147     0.39536
      H   18    0.09889      0.00000     0.40016    0.00094     0.40111
      H   19    0.11531      0.00000     0.38267    0.00202     0.38469
      H   20    0.09901      0.00000     0.39721    0.00378     0.40099
      H   21    0.10049      0.00000     0.39846    0.00105     0.39951
      H   22    0.10118      0.00000     0.39785    0.00097     0.39882
      H   23    0.09877      0.00000     0.40028    0.00094     0.40123
      H   24    0.25025      0.00000     0.21584    0.03391     0.24975
      H   25    0.20911      0.00000     0.28764    0.00325     0.29089
      H   26    0.19318      0.00000     0.30457    0.00225     0.30682
 =======================================================================
   * Total *   -0.00000     10.99600    31.83188    0.17213    43.00000

 Normal termination of Gaussian 16 at Tue Dec  8 21:29:36 2020.
