 Gaussian 16, Revision A.03,

 -----------------------------------------------------------
 # opt freq B3LYP/6-31G(d) empiricaldispersion=gd3bj scf=xqc
 -----------------------------------------------------------

 ------------------------------
 CID_13445276_JID_4146_neutraal
 ------------------------------
 Symbolic Z-matrix:
 Charge =  0 Multiplicity = 1

 SCF Done:  E(RB3LYP) =  -560.363619505     A.U. after   14 cycles
 SCF Done:  E(RB3LYP) =  -560.365122109     A.U. after   13 cycles
 SCF Done:  E(RB3LYP) =  -560.364460900     A.U. after   13 cycles
 SCF Done:  E(RB3LYP) =  -560.365770914     A.U. after   12 cycles
 SCF Done:  E(RB3LYP) =  -560.365725147     A.U. after   12 cycles
 SCF Done:  E(RB3LYP) =  -560.365951953     A.U. after   11 cycles
 SCF Done:  E(RB3LYP) =  -560.365959002     A.U. after    9 cycles
 SCF Done:  E(RB3LYP) =  -560.365961859     A.U. after   10 cycles
 SCF Done:  E(RB3LYP) =  -560.365962040     A.U. after    7 cycles
 SCF Done:  E(RB3LYP) =  -560.365962203     A.U. after    8 cycles
 SCF Done:  E(RB3LYP) =  -560.365991437     A.U. after   10 cycles
 SCF Done:  E(RB3LYP) =  -560.365992024     A.U. after   11 cycles
 SCF Done:  E(RB3LYP) =  -560.365992227     A.U. after   10 cycles
 SCF Done:  E(RB3LYP) =  -560.365992173     A.U. after    9 cycles
 SCF Done:  E(RB3LYP) =  -560.365992155     A.U. after    7 cycles
 Optimization completed on the basis of negligible forces.
    -- Stationary point found.
 Normal termination of Gaussian 16 at Thu Dec 10 09:28:01 2020.

 --------------------------------------------------------------------
 #N Geom=AllCheck Guess=TCheck SCRF=Check GenChk RB3LYP/6-31G(d) Freq
 --------------------------------------------------------------------

 Structure from the checkpoint file:  "JID_4146.chk"
 ------------------------------
 CID_13445276_JID_4146_neutraal
 ------------------------------
 Charge =  0 Multiplicity = 1

 SCF Done:  E(RB3LYP) =  -560.365992155     A.U. after    1 cycles

  Exact polarizability: 217.593  -4.285 132.162   4.502   0.147  81.054
 Approx polarizability: 287.627 -13.502 210.656   9.270   0.185 116.118

                      1                      2                      3
                      A                      A                      A
 Frequencies --      5.0755                29.8090                42.7670
 Red. masses --      2.9942                 4.3074                 4.0103
 Frc consts  --      0.0000                 0.0023                 0.0043
 IR Inten    --      0.0686                 0.0434                 0.0493

                      4                      5                      6
                      A                      A                      A
 Frequencies --     84.4388               126.8514               135.8029
 Red. masses --      3.7970                 3.2568                 2.7352
 Frc consts  --      0.0160                 0.0309                 0.0297
 IR Inten    --      0.2857                 0.2630                 2.8054

                      7                      8                      9
                      A                      A                      A
 Frequencies --    172.2614               227.3076               233.8727
 Red. masses --      4.3093                 1.0136                 3.5067
 Frc consts  --      0.0753                 0.0309                 0.1130
 IR Inten    --      0.6480                 0.0015                 0.3378

                     10                     11                     12
                      A                      A                      A
 Frequencies --    280.8679               281.9641               294.0200
 Red. masses --      1.0759                 1.0527                 2.8510
 Frc consts  --      0.0500                 0.0493                 0.1452
 IR Inten    --      0.4864                 0.0327                 5.7504

                     13                     14                     15
                      A                      A                      A
 Frequencies --    314.6560               360.0333               364.9037
 Red. masses --      3.6824                 2.4113                 2.4166
 Frc consts  --      0.2148                 0.1842                 0.1896
 IR Inten    --      0.3393                 0.5530                 0.8988

                     16                     17                     18
                      A                      A                      A
 Frequencies --    402.7128               419.4420               428.0201
 Red. masses --      2.5604                 3.1673                 2.9012
 Frc consts  --      0.2447                 0.3283                 0.3131
 IR Inten    --     33.7481                 0.0912                47.8708

                     19                     20                     21
                      A                      A                      A
 Frequencies --    519.3626               537.2612               548.1481
 Red. masses --      2.7227                 2.5478                 4.8148
 Frc consts  --      0.4327                 0.4333                 0.8524
 IR Inten    --     19.3262                43.1670                 3.7453

                     22                     23                     24
                      A                      A                      A
 Frequencies --    574.0110               597.3101               635.0933
 Red. masses --      3.2813                 3.9649                 6.3426
 Frc consts  --      0.6370                 0.8334                 1.5073
 IR Inten    --     25.3414                 6.5643                 0.3664

                     25                     26                     27
                      A                      A                      A
 Frequencies --    686.1432               704.8271               761.6237
 Red. masses --      4.1658                 2.0647                 1.7366
 Frc consts  --      1.1555                 0.6043                 0.5935
 IR Inten    --      3.4188                13.8955                52.1843

                     28                     29                     30
                      A                      A                      A
 Frequencies --    821.3885               843.1859               872.1646
 Red. masses --      1.2588                 2.9481                 1.5184
 Frc consts  --      0.5004                 1.2349                 0.6805
 IR Inten    --      0.8401                 0.5340                 6.0757

                     31                     32                     33
                      A                      A                      A
 Frequencies --    882.9011               943.7401               944.2032
 Red. masses --      3.3238                 1.7910                 1.7911
 Frc consts  --      1.5265                 0.9398                 0.9408
 IR Inten    --      5.7052                 0.4967                 0.5267

                     34                     35                     36
                      A                      A                      A
 Frequencies --    946.7653               975.0821               980.3899
 Red. masses --      1.3196                 1.2209                 1.1959
 Frc consts  --      0.6969                 0.6839                 0.6772
 IR Inten    --      0.0220                 0.1391                 0.0005

                     37                     38                     39
                      A                      A                      A
 Frequencies --   1011.6906              1030.9517              1058.9484
 Red. masses --      5.3691                 1.6206                 2.3074
 Frc consts  --      3.2378                 1.0149                 1.5245
 IR Inten    --      2.8964                 4.0130                 0.2310

                     40                     41                     42
                      A                      A                      A
 Frequencies --   1063.9236              1065.1987              1085.3368
 Red. masses --      1.3985                 1.3903                 2.9730
 Frc consts  --      0.9327                 0.9294                 2.0634
 IR Inten    --      0.1518                 0.2072                21.0506

                     43                     44                     45
                      A                      A                      A
 Frequencies --   1110.2421              1142.2446              1192.3165
 Red. masses --      2.0004                 2.3434                 1.0831
 Frc consts  --      1.4528                 1.8014                 0.9072
 IR Inten    --      1.6122                22.1262                 2.1121

                     46                     47                     48
                      A                      A                      A
 Frequencies --   1217.9357              1241.4805              1241.9217
 Red. masses --      1.1331                 2.5067                 2.5880
 Frc consts  --      0.9903                 2.2763                 2.3519
 IR Inten    --      8.5912                 6.5504                 4.6456

                     49                     50                     51
                      A                      A                      A
 Frequencies --   1258.6121              1297.4346              1310.6082
 Red. masses --      1.1034                 2.0784                 2.9786
 Frc consts  --      1.0298                 2.0613                 3.0144
 IR Inten    --      5.6970                79.2285                46.2972

                     52                     53                     54
                      A                      A                      A
 Frequencies --   1362.4068              1377.6597              1398.5689
 Red. masses --      2.5999                 1.8941                 1.6427
 Frc consts  --      2.8433                 2.1180                 1.8932
 IR Inten    --     79.1010                 3.9017                39.2500

                     55                     56                     57
                      A                      A                      A
 Frequencies --   1422.9619              1423.4903              1454.9254
 Red. masses --      1.2149                 1.2155                 1.2161
 Frc consts  --      1.4494                 1.4511                 1.5167
 IR Inten    --      3.7240                 3.7351                 0.2710

                     58                     59                     60
                      A                      A                      A
 Frequencies --   1481.8358              1506.7755              1516.6711
 Red. masses --      1.7707                 1.0489                 1.0448
 Frc consts  --      2.2908                 1.4031                 1.4160
 IR Inten    --     85.4131                 0.0008                 0.1692

                     61                     62                     63
                      A                      A                      A
 Frequencies --   1517.0473              1529.9743              1530.1668
 Red. masses --      1.0449                 1.0508                 1.0509
 Frc consts  --      1.4168                 1.4493                 1.4497
 IR Inten    --      0.0878                 5.2910                 5.9532

                     64                     65                     66
                      A                      A                      A
 Frequencies --   1538.4611              1541.9139              1548.5488
 Red. masses --      1.1116                 1.7469                 1.0646
 Frc consts  --      1.5501                 2.4471                 1.5042
 IR Inten    --     48.1359                 8.5626                 2.6608

                     67                     68                     69
                      A                      A                      A
 Frequencies --   1559.7214              1645.6192              1673.3653
 Red. masses --      2.2746                 5.0010                 5.6160
 Frc consts  --      3.2603                 7.9793                 9.2652
 IR Inten    --    151.5176                 7.2346               145.5826

                     70                     71                     72
                      A                      A                      A
 Frequencies --   2370.3324              2957.7551              3029.6337
 Red. masses --     11.9092                 1.0731                 1.0861
 Frc consts  --     39.4233                 5.5310                 5.8736
 IR Inten    --      6.2682                42.4371                22.1898

                     73                     74                     75
                      A                      A                      A
 Frequencies --   3048.7228              3048.9808              3055.7536
 Red. masses --      1.0345                 1.0344                 1.0354
 Frc consts  --      5.6650                 5.6659                 5.6964
 IR Inten    --     21.9613                22.9148                35.3665

                     76                     77                     78
                      A                      A                      A
 Frequencies --   3119.1108              3119.5831              3125.9285
 Red. masses --      1.1024                 1.1024                 1.1016
 Frc consts  --      6.3190                 6.3208                 6.3419
 IR Inten    --      3.8754                 5.9464                79.7989

                     79                     80                     81
                      A                      A                      A
 Frequencies --   3128.7601              3132.2975              3133.4352
 Red. masses --      1.1042                 1.1031                 1.1031
 Frc consts  --      6.3685                 6.3765                 6.3812
 IR Inten    --      1.5023                40.3183                39.5908

                     82                     83                     84
                      A                      A                      A
 Frequencies --   3170.1630              3183.0145              3191.8402
 Red. masses --      1.0867                 1.0865                 1.0921
 Frc consts  --      6.4345                 6.4859                 6.5551
 IR Inten    --     13.9870                 2.5169                30.9849

                     85                     86                     87
                      A                      A                      A
 Frequencies --   3209.2908              3217.3093              3593.9990
 Red. masses --      1.0939                 1.0941                 1.0762
 Frc consts  --      6.6379                 6.6726                 8.1904
 IR Inten    --     42.2046                 8.6625                17.2890

 - Thermochemistry -
 -------------------
 Temperature   298.150 Kelvin.  Pressure   1.00000 Atm.
 Atom     1 has atomic number  6 and mass  12.00000

 Molecular mass:   187.13610 amu.
 Principal axes and moments of inertia in atomic units:
                           1         2         3
     Eigenvalues --   811.262698577.145128964.06649
           X            1.00000  -0.00295   0.00042
           Y            0.00295   0.99999   0.00121
           Z           -0.00042  -0.00121   1.00000
 This molecule is an asymmetric top.
 Rotational symmetry number  1.
 Warning -- assumption of classical behavior for rotation
           may cause significant error
 Rotational temperatures (Kelvin)      0.10676     0.01010     0.00966
 Rotational constants (GHZ):           2.22461     0.21041     0.20133
 Zero-point vibrational energy     706833.2 (Joules/Mol)
                                  168.93718 (Kcal/Mol)
 Warning -- explicit consideration of  23 degrees of freedom as
           vibrations may cause significant error
 Vibrational temperatures:      7.30    42.89    61.53   121.49   182.51
          (Kelvin)            195.39   247.85   327.04   336.49   404.11
                              405.68   423.03   452.72   518.01   525.02
                              579.41   603.48   615.83   747.25   773.00
                              788.66   825.87   859.40   913.76   987.21
                             1014.09  1095.81  1181.79  1213.16  1254.85
                             1270.30  1357.83  1358.50  1362.18  1402.93
                             1410.56  1455.60  1483.31  1523.59  1530.75
                             1532.58  1561.56  1597.39  1643.44  1715.48
                             1752.34  1786.21  1786.85  1810.86  1866.72
                             1885.67  1960.20  1982.14  2012.23  2047.32
                             2048.09  2093.31  2132.03  2167.91  2182.15
                             2182.69  2201.29  2201.57  2213.50  2218.47
                             2228.02  2244.09  2367.68  2407.60  3410.38
                             4255.55  4358.97  4386.43  4386.80  4396.55
                             4487.70  4488.38  4497.51  4501.59  4506.68
                             4508.31  4561.16  4579.65  4592.35  4617.45
                             4628.99  5170.96

 Zero-point correction=                           0.269219 (Hartree/Particle)
 Thermal correction to Energy=                    0.284043
 Thermal correction to Enthalpy=                  0.284987
 Thermal correction to Gibbs Free Energy=         0.224560
 Sum of electronic and zero-point Energies=           -560.096774
 Sum of electronic and thermal Energies=              -560.081949
 Sum of electronic and thermal Enthalpies=            -560.081005
 Sum of electronic and thermal Free Energies=         -560.141432

                     E (Thermal)             CV                S
                      KCal/Mol        Cal/Mol-Kelvin    Cal/Mol-Kelvin
 Total                  178.240             55.793            127.180
 Electronic               0.000              0.000              0.000
 Translational            0.889              2.981             41.586
 Rotational               0.889              2.981             32.500
 Vibrational            176.462             49.831             53.094
 Vibration     1          0.593              1.987              9.359
 Vibration     2          0.594              1.984              5.842
 Vibration     3          0.595              1.980              5.127
 Vibration     4          0.601              1.960              3.785
 Vibration     5          0.611              1.926              2.993
 Vibration     6          0.614              1.918              2.862
 Vibration     7          0.626              1.877              2.411
 Vibration     8          0.651              1.799              1.900
 Vibration     9          0.654              1.789              1.849
 Vibration    10          0.681              1.709              1.528
 Vibration    11          0.681              1.707              1.522
 Vibration    12          0.689              1.685              1.451
 Vibration    13          0.702              1.646              1.338
 Vibration    14          0.735              1.555              1.122
 Vibration    15          0.738              1.544              1.101
 Vibration    16          0.768              1.464              0.953
 Vibration    17          0.782              1.428              0.894
 Vibration    18          0.790              1.409              0.865
 Vibration    19          0.874              1.207              0.611
 Vibration    20          0.892              1.168              0.571
 Vibration    21          0.903              1.144              0.548
 Vibration    22          0.930              1.087              0.497
 Vibration    23          0.955              1.038              0.454

 Optimization completed on the basis of negligible forces.
    -- Stationary point found.
 Normal termination of Gaussian 16 at Thu Dec 10 09:34:17 2020.

 ----------------------------------------------------------------------
 # B3LYP/6-311++G(d,p) empiricaldispersion=gd3bj scf=xqc pop=npa geom=c
 heck
 ----------------------------------------------------------------------

 --------------------------------------
 CID_13445276_JID_4146_Energie_neutraal
 --------------------------------------
 Structure from the checkpoint file:  "JID_4146.chk"
 Charge =  0 Multiplicity = 1

 SCF Done:  E(RB3LYP) =  -560.521804897     A.U. after   14 cycles
 Normal termination of Gaussian 16 at Thu Dec 10 09:37:02 2020.

 ----------------------------------------------------------------------
 # B3LYP/6-311++G(d,p) empiricaldispersion=gd3bj scf=xqc pop=npa geom=c
 heck
 ----------------------------------------------------------------------

 ------------------------------------
 CID_13445276_JID_4146_Energie_kation
 ------------------------------------
 Structure from the checkpoint file:  "JID_4146.chk"
 Charge =  1 Multiplicity = 2

 SCF Done:  E(UB3LYP) =  -560.248115135     A.U. after   22 cycles
 Normal termination of Gaussian 16 at Thu Dec 10 09:42:45 2020.
 Gaussian 16:  ES64L-G16RevA.03 25-Dec-2016

 ----------------------------------------------------------------------
 # B3LYP/6-311++G(d,p) empiricaldispersion=gd3bj scf=xqc pop=npa geom=c
 heck
 ----------------------------------------------------------------------

 -----------------------------------
 CID_13445276_JID_4146_Energie_anion
 -----------------------------------
 Structure from the checkpoint file:  "JID_4146.chk"
 Charge = -1 Multiplicity = 2

                         Standard orientation:
 ---------------------------------------------------------------------
 Center     Atomic      Atomic             Coordinates (Angstroms)
 Number     Number       Type             X           Y           Z
 ---------------------------------------------------------------------
      1          6           0       -4.500644   -0.266951    1.389509
      2          6           0       -3.873919    0.110049    0.029818
      3          6           0       -3.979270    1.635479   -0.186147
      4          6           0       -4.613542   -0.627586   -1.107194
      5          6           0       -2.454842   -0.279507    0.020672
      6          6           0       -1.290457   -0.604875    0.005157
      7          6           0        0.124752   -0.967720    0.004595
      8          7           0        0.956215    0.195596   -0.289411
      9          6           0        2.336486    0.131583   -0.122383
     10          6           0        3.079756    1.325507   -0.046644
     11          6           0        4.462569    1.292771    0.080952
     12          6           0        5.146198    0.074286    0.136682
     13          6           0        4.415588   -1.109776    0.062860
     14          6           0        3.025986   -1.091992   -0.062040
     15          1           0       -5.558353    0.020584    1.407142
     16          1           0       -4.432782   -1.345404    1.564644
     17          1           0       -3.989021    0.245331    2.210592
     18          1           0       -3.536488    1.925326   -1.144375
     19          1           0       -5.031900    1.941298   -0.184087
     20          1           0       -3.460319    2.179228    0.609896
     21          1           0       -5.672285   -0.343269   -1.111500
     22          1           0       -4.182536   -0.374458   -2.080960
     23          1           0       -4.547480   -1.712335   -0.975806
     24          1           0        0.393431   -1.423162    0.974841
     25          1           0        0.307574   -1.739038   -0.756669
     26          1           0        0.537106    1.067321    0.006896
     27          1           0        2.557198    2.278475   -0.094038
     28          1           0        5.012045    2.228700    0.139187
     29          1           0        6.226908    0.051871    0.236977
     30          1           0        4.927458   -2.067631    0.106324
     31          1           0        2.483975   -2.029616   -0.118206
 ---------------------------------------------------------------------

 SCF Done:  E(UB3LYP) =  -560.509081129     A.U. after   33 cycles
 SCF Done:  E(UB3LYP) =  -560.509081129     a.u. after    1 cycles

 The electronic state is 2-A.
 Alpha  occ. eigenvalues --  -14.23619 -10.13702 -10.12795 -10.11368 -10.08838
 Alpha  occ. eigenvalues --  -10.08808 -10.08217 -10.08163 -10.07877 -10.07313
 Alpha  occ. eigenvalues --  -10.07065 -10.06828 -10.06768 -10.06737  -0.85300
 Alpha  occ. eigenvalues --   -0.75921  -0.73968  -0.68317  -0.66037  -0.63733
 Alpha  occ. eigenvalues --   -0.59707  -0.59581  -0.59525  -0.52838  -0.50834
 Alpha  occ. eigenvalues --   -0.49791  -0.45081  -0.41967  -0.39129  -0.38726
 Alpha  occ. eigenvalues --   -0.37354  -0.36663  -0.34966  -0.34913  -0.34408
 Alpha  occ. eigenvalues --   -0.33482  -0.32870  -0.30129  -0.30092  -0.28950
 Alpha  occ. eigenvalues --   -0.27627  -0.27505  -0.26956  -0.25741  -0.25009
 Alpha  occ. eigenvalues --   -0.24990  -0.21748  -0.17418  -0.16989  -0.16488
 Alpha  occ. eigenvalues --   -0.11872   0.04059
 Alpha virt. eigenvalues --    0.05554   0.06496   0.07013   0.07244   0.07823
 Alpha virt. eigenvalues --    0.08044   0.08622   0.08697   0.09187   0.10108
 Alpha virt. eigenvalues --    0.10335   0.10554   0.10690   0.12055   0.12442

  Beta  occ. eigenvalues --  -14.23605 -10.13683 -10.12797 -10.11366 -10.08829
  Beta  occ. eigenvalues --  -10.08797 -10.08205 -10.08150 -10.07871 -10.07308
  Beta  occ. eigenvalues --  -10.07063 -10.06794 -10.06734 -10.06702  -0.85279
  Beta  occ. eigenvalues --   -0.75902  -0.73950  -0.68295  -0.66012  -0.63709
  Beta  occ. eigenvalues --   -0.59669  -0.59517  -0.59459  -0.52804  -0.50806
  Beta  occ. eigenvalues --   -0.49738  -0.45045  -0.41933  -0.39095  -0.38684
  Beta  occ. eigenvalues --   -0.37332  -0.36635  -0.34922  -0.34871  -0.34387
  Beta  occ. eigenvalues --   -0.33452  -0.32835  -0.30092  -0.30054  -0.28933
  Beta  occ. eigenvalues --   -0.27602  -0.27469  -0.26911  -0.25716  -0.24974
  Beta  occ. eigenvalues --   -0.24953  -0.21732  -0.17401  -0.16968  -0.16471
  Beta  occ. eigenvalues --   -0.11855
  Beta virt. eigenvalues --    0.05828   0.06394   0.07018   0.07149   0.07756
  Beta virt. eigenvalues --    0.08357   0.08490   0.08665   0.09179   0.09593
  Beta virt. eigenvalues --    0.10402   0.10632   0.10896   0.11084   0.12422

 Mulliken charges and spin densities:
               1          2
     1  C    0.777055  -1.424232
     2  C   -5.288573   6.215942
     3  C    0.937514  -1.604082
     4  C    0.863169  -1.511537
     5  C    2.647130  -2.847486
     6  C   -0.605543   0.426266
     7  C    2.098371  -2.587189
     8  N   -0.019584   0.064736
     9  C   -0.157757  -0.036590
    10  C   -0.893348   0.901234
    11  C   -0.411148   0.145392
    12  C    0.808767  -1.170399
    13  C   -0.658120   0.523666
    14  C    1.238292  -1.135963
    15  H   -0.279212   0.439388
    16  H   -0.125065   0.270290
    17  H   -0.129411   0.277878
    18  H   -0.093304   0.239432
    19  H   -0.328451   0.488997
    20  H   -0.262025   0.410497
    21  H   -0.326381   0.485713
    22  H   -0.066551   0.211801
    23  H   -0.106636   0.251732
    24  H   -0.095704   0.277918
    25  H   -0.115389   0.306621
    26  H    0.282582  -0.063467
    27  H   -0.372042   0.525648
    28  H   -0.176588   0.336052
    29  H   -0.005694   0.137468
    30  H   -0.286144   0.459035
    31  H    0.149790  -0.014760
 Sum of Mulliken charges =  -1.00000   1.00000

 Dipole moment (field-independent basis, Debye):
    X=              4.7786    Y=             -1.3508    Z=             -0.2682  Tot=              4.9731
 Quadrupole moment (field-independent basis, Debye-Ang):
   XX=           -207.4407   YY=           -123.7816   ZZ=           -118.8576
   XY=              2.2309   XZ=              1.3445   YZ=             -0.1098

 Summary of Natural Population Analysis:

                                       Natural Population
                Natural  -----------------------------------------------
    Atom  No    Charge         Core      Valence    Rydberg      Total
 -----------------------------------------------------------------------
      C    1   -0.27295      0.99963     2.26726    0.00606     3.27295
      C    2   -0.08340      0.99955     2.07167    0.01218     3.08340
      C    3   -0.27469      0.99964     2.26745    0.00761     3.27469
      C    4   -0.27288      0.99964     2.26725    0.00599     3.27288
      C    5    0.01669      0.99924     1.97384    0.01023     2.98331
      C    6   -0.02072      0.99925     2.01414    0.00732     3.02072
      C    7   -0.11934      0.99956     2.10833    0.01144     3.11934
      N    8   -0.30513      0.99967     2.79475    0.01070     3.80513
      C    9    0.09116      0.99949     1.89843    0.01092     2.90884
      C   10   -0.12029      0.99953     2.11118    0.00958     3.12029
      C   11   -0.09341      0.99957     2.08395    0.00989     3.09341
      C   12   -0.12883      0.99956     2.11847    0.01079     3.12883
      C   13   -0.09165      0.99957     2.08203    0.01005     3.09165
      C   14   -0.13510      0.99952     2.12681    0.00877     3.13510
      H   15    0.09977      0.00000     0.39873    0.00149     0.40023
      H   16    0.10164      0.00000     0.39702    0.00134     0.39836
      H   17    0.10254      0.00000     0.39609    0.00137     0.39746
      H   18    0.10226      0.00000     0.39649    0.00125     0.39774
      H   19    0.10012      0.00000     0.39856    0.00131     0.39988
      H   20    0.10316      0.00000     0.39543    0.00141     0.39684
      H   21    0.09988      0.00000     0.39867    0.00145     0.40012
      H   22    0.10190      0.00000     0.39686    0.00124     0.39810
      H   23    0.10179      0.00000     0.39691    0.00129     0.39821
      H   24    0.10004      0.00000     0.39790    0.00206     0.39996
      H   25    0.10479      0.00000     0.39325    0.00196     0.39521
      H   26    0.18953      0.00000     0.30726    0.00321     0.31047
      H   27    0.10172      0.00000     0.39702    0.00126     0.39828
      H   28    0.09991      0.00000     0.39914    0.00095     0.40009
      H   29    0.09949      0.00000     0.39960    0.00091     0.40051
      H   30    0.09904      0.00000     0.40004    0.00092     0.40096
      H   31    0.10293      0.00000     0.39572    0.00134     0.39707
 =======================================================================
   * Total *    0.00000     13.99343    36.85026    0.15631    51.00000

 Normal termination of Gaussian 16 at Thu Dec 10 09:51:23 2020.
