 Gaussian 16, Revision A.03,

 -----------------------------------------------------------
 # opt freq B3LYP/6-31G(d) empiricaldispersion=gd3bj scf=xqc
 -----------------------------------------------------------

 -------------------------------
 CID_105422729_JID_3639_neutraal
 -------------------------------
 Symbolic Z-matrix:
 Charge =  0 Multiplicity = 1

 SCF Done:  E(RB3LYP) =  -555.537127929     A.U. after   14 cycles
 SCF Done:  E(RB3LYP) =  -555.539759395     A.U. after   12 cycles
 SCF Done:  E(RB3LYP) =  -555.537668856     A.U. after   12 cycles
 SCF Done:  E(RB3LYP) =  -555.539985959     A.U. after   12 cycles
 SCF Done:  E(RB3LYP) =  -555.540713327     A.U. after   12 cycles
 SCF Done:  E(RB3LYP) =  -555.541026052     A.U. after   11 cycles
 SCF Done:  E(RB3LYP) =  -555.541129144     A.U. after   10 cycles
 SCF Done:  E(RB3LYP) =  -555.541183879     A.U. after   11 cycles
 SCF Done:  E(RB3LYP) =  -555.541213773     A.U. after   11 cycles
 SCF Done:  E(RB3LYP) =  -555.541239542     A.U. after   11 cycles
 SCF Done:  E(RB3LYP) =  -555.547013490     A.U. after    9 cycles
 SCF Done:  E(RB3LYP) =  -555.547013736     A.U. after    9 cycles
 SCF Done:  E(RB3LYP) =  -555.547014184     A.U. after    9 cycles
 SCF Done:  E(RB3LYP) =  -555.547014216     A.U. after    6 cycles
 SCF Done:  E(RB3LYP) =  -555.547014253     A.U. after    8 cycles
 Optimization completed.
    -- Stationary point found.
 Normal termination of Gaussian 16 at Mon Dec 14 17:08:41 2020.

 --------------------------------------------------------------------
 #N Geom=AllCheck Guess=TCheck SCRF=Check GenChk RB3LYP/6-31G(d) Freq
 --------------------------------------------------------------------

 Structure from the checkpoint file:  "JID_3639.chk"
 -------------------------------
 CID_105422729_JID_3639_neutraal
 -------------------------------
 Charge =  0 Multiplicity = 1

 SCF Done:  E(RB3LYP) =  -555.547014253     A.U. after    1 cycles

  Exact polarizability: 129.923  -4.521 131.301  10.423   3.178  89.569
 Approx polarizability: 179.736  -6.678 193.630  23.542   6.874 140.659

                      1                      2                      3
                      A                      A                      A
 Frequencies --     26.4559                40.8141                69.4795
 Red. masses --      3.9071                 2.4823                 3.4490
 Frc consts  --      0.0016                 0.0024                 0.0098
 IR Inten    --      0.5710                 0.2383                 0.2307

                      4                      5                      6
                      A                      A                      A
 Frequencies --     92.9483               119.3355               152.3112
 Red. masses --      3.4112                 3.5046                 3.2512
 Frc consts  --      0.0174                 0.0294                 0.0444
 IR Inten    --      0.2023                 0.1657                 1.0556

                      7                      8                      9
                      A                      A                      A
 Frequencies --    168.1762               205.6234               233.6090
 Red. masses --      2.2286                 1.8184                 2.9013
 Frc consts  --      0.0371                 0.0453                 0.0933
 IR Inten    --      0.4873                 0.6163                 0.1474

                     10                     11                     12
                      A                      A                      A
 Frequencies --    265.4633               306.7978               338.2693
 Red. masses --      1.7371                 2.4556                 2.5391
 Frc consts  --      0.0721                 0.1362                 0.1712
 IR Inten    --      3.0067                 0.4826                 4.6710

                     13                     14                     15
                      A                      A                      A
 Frequencies --    397.9275               426.0573               477.8226
 Red. masses --      2.0453                 3.3939                 1.8314
 Frc consts  --      0.1908                 0.3630                 0.2464
 IR Inten    --      4.3851                 3.5420                34.2690

                     16                     17                     18
                      A                      A                      A
 Frequencies --    494.2190               559.7159               593.0979
 Red. masses --      2.0416                 3.0694                 2.8024
 Frc consts  --      0.2938                 0.5666                 0.5808
 IR Inten    --     12.5148                 4.9858                 3.7030

                     19                     20                     21
                      A                      A                      A
 Frequencies --    685.8694               699.8277               718.3874
 Red. masses --      2.9205                 2.5720                 2.3438
 Frc consts  --      0.8094                 0.7422                 0.7127
 IR Inten    --     13.6443                20.4501                 1.6686

                     22                     23                     24
                      A                      A                      A
 Frequencies --    752.9676               788.5144               802.8368
 Red. masses --      1.4467                 2.1474                 1.0907
 Frc consts  --      0.4832                 0.7866                 0.4142
 IR Inten    --     79.8931                 5.9876                 0.1486

                     25                     26                     27
                      A                      A                      A
 Frequencies --    827.6106               863.4665               870.2849
 Red. masses --      1.4897                 1.3848                 2.4503
 Frc consts  --      0.6012                 0.6083                 1.0934
 IR Inten    --      7.6463                17.0138                21.7887

                     28                     29                     30
                      A                      A                      A
 Frequencies --    910.4353               930.6414               933.0853
 Red. masses --      2.8679                 1.8862                 3.2461
 Frc consts  --      1.4006                 0.9625                 1.6652
 IR Inten    --      9.6358                 6.0404                 4.3017

                     31                     32                     33
                      A                      A                      A
 Frequencies --    969.0388              1015.4617              1020.9942
 Red. masses --      3.6789                 1.9129                 1.7085
 Frc consts  --      2.0354                 1.1621                 1.0493
 IR Inten    --     35.6059                 6.4577                 1.5567

                     34                     35                     36
                      A                      A                      A
 Frequencies --   1067.0891              1070.3912              1086.5731
 Red. masses --      1.8892                 1.4760                 1.3930
 Frc consts  --      1.2675                 0.9963                 0.9690
 IR Inten    --      3.3828                 2.5623                 7.7489

                     37                     38                     39
                      A                      A                      A
 Frequencies --   1089.8330              1133.1776              1140.9712
 Red. masses --      1.3924                 2.0102                 1.1475
 Frc consts  --      0.9744                 1.5208                 0.8801
 IR Inten    --      6.1750                25.5207                 4.3479

                     40                     41                     42
                      A                      A                      A
 Frequencies --   1149.4163              1152.4660              1165.4446
 Red. masses --      2.5438                 2.4837                 1.5113
 Frc consts  --      1.9801                 1.9436                 1.2094
 IR Inten    --      1.0557                 6.4916                 7.9039

                     43                     44                     45
                      A                      A                      A
 Frequencies --   1189.7675              1212.2225              1215.0055
 Red. masses --      1.5230                 1.4147                 2.2570
 Frc consts  --      1.2702                 1.2248                 1.9631
 IR Inten    --      2.9663                 3.2657                31.3709

                     46                     47                     48
                      A                      A                      A
 Frequencies --   1231.5480              1266.5112              1281.7836
 Red. masses --      2.2830                 1.5304                 1.3748
 Frc consts  --      2.0402                 1.4463                 1.3308
 IR Inten    --      0.7184                 1.3478                 2.2889

                     49                     50                     51
                      A                      A                      A
 Frequencies --   1318.2019              1349.1229              1369.9943
 Red. masses --      1.7790                 1.2637                 1.4288
 Frc consts  --      1.8213                 1.3552                 1.5800
 IR Inten    --     12.3601                 3.8081                 5.9715

                     52                     53                     54
                      A                      A                      A
 Frequencies --   1394.0492              1398.3498              1413.0590
 Red. masses --      2.6687                 1.4097                 1.9963
 Frc consts  --      3.0557                 1.6241                 2.3485
 IR Inten    --      6.7227                13.9896                13.2365

                     55                     56                     57
                      A                      A                      A
 Frequencies --   1420.9656              1469.4015              1480.9858
 Red. masses --      1.5123                 2.5959                 1.1539
 Frc consts  --      1.7991                 3.3023                 1.4911
 IR Inten    --      3.9226                 1.5231                 0.5698

                     58                     59                     60
                      A                      A                      A
 Frequencies --   1492.9113              1505.7472              1511.4386
 Red. masses --      1.0966                 1.0922                 1.0949
 Frc consts  --      1.4400                 1.4590                 1.4737
 IR Inten    --      1.0424                 1.3463                 7.4678

                     61                     62                     63
                      A                      A                      A
 Frequencies --   1518.9585              1525.6059              1529.7994
 Red. masses --      1.1535                 1.1008                 1.1567
 Frc consts  --      1.5680                 1.5095                 1.5950
 IR Inten    --      7.1128                 2.1049                14.0853

                     64                     65                     66
                      A                      A                      A
 Frequencies --   1530.7312              1538.6732              1553.5830
 Red. masses --      1.3655                 3.1015                 1.0609
 Frc consts  --      1.8852                 4.3263                 1.5087
 IR Inten    --      1.3438                 6.0603                 4.9632

                     67                     68                     69
                      A                      A                      A
 Frequencies --   1636.9086              2950.8539              3029.5987
 Red. masses --      5.1278                 1.0614                 1.0651
 Frc consts  --      8.0952                 5.4456                 5.7599
 IR Inten    --      4.3707                78.9320                 5.6888

                     70                     71                     72
                      A                      A                      A
 Frequencies --   3038.3059              3045.0362              3064.2036
 Red. masses --      1.0668                 1.0666                 1.0717
 Frc consts  --      5.8022                 5.8266                 5.9287
 IR Inten    --     53.5239                57.1947                58.0257

                     73                     74                     75
                      A                      A                      A
 Frequencies --   3073.2081              3094.7769              3101.5580
 Red. masses --      1.0985                 1.0985                 1.0955
 Frc consts  --      6.1125                 6.1988                 6.2091
 IR Inten    --     11.6564                41.1912                43.5631

                     76                     77                     78
                      A                      A                      A
 Frequencies --   3111.9676              3145.3274              3147.8223
 Red. masses --      1.1021                 1.0739                 1.0638
 Frc consts  --      6.2884                 6.2595                 6.2103
 IR Inten    --     29.1894                12.6518                19.0494

                     79                     80                     81
                      A                      A                      A
 Frequencies --   3156.2228              3226.0344              3240.2761
 Red. masses --      1.0595                 1.1195                 1.1157
 Frc consts  --      6.2185                 6.8644                 6.9021
 IR Inten    --     12.7815                 0.3431                18.0088

                     82                     83                     84
                      A                      A                      A
 Frequencies --   3255.5347              3541.2531              3660.3545
 Red. masses --      1.0956                 1.0740                 1.0808
 Frc consts  --      6.8417                 7.9351                 8.5320
 IR Inten    --      9.3926                21.3117                58.6059

 - Thermochemistry -
 -------------------
 Temperature   298.150 Kelvin.  Pressure   1.00000 Atm.
 Atom     1 has atomic number  6 and mass  12.00000

 Molecular mass:   179.14225 amu.
 Principal axes and moments of inertia in atomic units:
                           1         2         3
     Eigenvalues --  1870.318982634.692133947.93132
           X            0.99834  -0.05727   0.00565
           Y            0.05727   0.99836  -0.00035
           Z           -0.00562   0.00067   0.99998
 This molecule is an asymmetric top.
 Rotational symmetry number  1.
 Warning -- assumption of classical behavior for rotation
           may cause significant error
 Rotational temperatures (Kelvin)      0.04631     0.03287     0.02194
 Rotational constants (GHZ):           0.96494     0.68499     0.45714
 Zero-point vibrational energy     700117.9 (Joules/Mol)
                                  167.33219 (Kcal/Mol)
 Warning -- explicit consideration of  18 degrees of freedom as
           vibrations may cause significant error
 Vibrational temperatures:     38.06    58.72    99.97   133.73   171.70
          (Kelvin)            219.14   241.97   295.85   336.11   381.94
                              441.41   486.69   572.53   613.00   687.48
                              711.07   805.31   853.34   986.81  1006.90
                             1033.60  1083.35  1134.50  1155.10  1190.75
                             1242.34  1252.15  1309.91  1338.99  1342.50
                             1394.23  1461.02  1468.98  1535.30  1540.05
                             1563.34  1568.03  1630.39  1641.60  1653.75
                             1658.14  1676.81  1711.81  1744.12  1748.12
                             1771.92  1822.23  1844.20  1896.60  1941.09
                             1971.12  2005.73  2011.91  2033.08  2044.45
                             2114.14  2130.81  2147.97  2166.43  2174.62
                             2185.44  2195.01  2201.04  2202.38  2213.81
                             2235.26  2355.15  4245.62  4358.92  4371.44
                             4381.13  4408.71  4421.66  4452.69  4462.45
                             4477.43  4525.42  4529.01  4541.10  4641.54
                             4662.03  4683.99  5095.07  5266.43

 Zero-point correction=                           0.266661 (Hartree/Particle)
 Thermal correction to Energy=                    0.279903
 Thermal correction to Enthalpy=                  0.280848
 Thermal correction to Gibbs Free Energy=         0.225632
 Sum of electronic and zero-point Energies=           -555.280353
 Sum of electronic and thermal Energies=              -555.267111
 Sum of electronic and thermal Enthalpies=            -555.266167
 Sum of electronic and thermal Free Energies=         -555.321382

                     E (Thermal)             CV                S
                      KCal/Mol        Cal/Mol-Kelvin    Cal/Mol-Kelvin
 Total                  175.642             49.700            116.211
 Electronic               0.000              0.000              0.000
 Translational            0.889              2.981             41.456
 Rotational               0.889              2.981             31.343
 Vibrational            173.865             43.738             43.412
 Vibration     1          0.593              1.985              6.079
 Vibration     2          0.594              1.981              5.219
 Vibration     3          0.598              1.969              4.168
 Vibration     4          0.602              1.954              3.597
 Vibration     5          0.609              1.933              3.111
 Vibration     6          0.619              1.900              2.643
 Vibration     7          0.625              1.882              2.456
 Vibration     8          0.640              1.832              2.082
 Vibration     9          0.654              1.789              1.851
 Vibration    10          0.671              1.736              1.626
 Vibration    11          0.697              1.661              1.380
 Vibration    12          0.719              1.599              1.220
 Vibration    13          0.764              1.475              0.970
 Vibration    14          0.788              1.414              0.872
 Vibration    15          0.834              1.299              0.716
 Vibration    16          0.850              1.263              0.673
 Vibration    17          0.915              1.118              0.524
 Vibration    18          0.951              1.046              0.462

 Optimization completed.
    -- Stationary point found.
 Normal termination of Gaussian 16 at Mon Dec 14 17:17:05 2020.

 ----------------------------------------------------------------------
 # B3LYP/6-311++G(d,p) empiricaldispersion=gd3bj scf=xqc pop=npa geom=c
 heck
 ----------------------------------------------------------------------

 ---------------------------------------
 CID_105422729_JID_3639_Energie_neutraal
 ---------------------------------------
 Structure from the checkpoint file:  "JID_3639.chk"
 Charge =  0 Multiplicity = 1

 SCF Done:  E(RB3LYP) =  -555.702750025     A.U. after   14 cycles
 Normal termination of Gaussian 16 at Mon Dec 14 17:20:45 2020.

 ----------------------------------------------------------------------
 # B3LYP/6-311++G(d,p) empiricaldispersion=gd3bj scf=xqc pop=npa geom=c
 heck
 ----------------------------------------------------------------------

 -------------------------------------
 CID_105422729_JID_3639_Energie_kation
 -------------------------------------
 Structure from the checkpoint file:  "JID_3639.chk"
 Charge =  1 Multiplicity = 2

 SCF Done:  E(UB3LYP) =  -555.414151109     A.U. after   22 cycles
 Normal termination of Gaussian 16 at Mon Dec 14 17:29:04 2020.
 Gaussian 16:  ES64L-G16RevA.03 25-Dec-2016

 ----------------------------------------------------------------------
 # B3LYP/6-311++G(d,p) empiricaldispersion=gd3bj scf=xqc pop=npa geom=c
 heck
 ----------------------------------------------------------------------

 ------------------------------------
 CID_105422729_JID_3639_Energie_anion
 ------------------------------------
 Structure from the checkpoint file:  "JID_3639.chk"
 Charge = -1 Multiplicity = 2

                         Standard orientation:
 ---------------------------------------------------------------------
 Center     Atomic      Atomic             Coordinates (Angstroms)
 Number     Number       Type             X           Y           Z
 ---------------------------------------------------------------------
      1          6           0        3.236945    1.274750    0.154730
      2          7           0        2.146903    0.860477   -0.714253
      3          6           0        2.076288   -0.570367   -0.983659
      4          6           0        1.974003   -1.508826    0.235733
      5          6           0        0.814109   -1.157724    1.190675
      6          6           0       -0.518797   -1.089619    0.514104
      7          6           0       -1.364642   -0.018511    0.243416
      8          6           0       -2.446298   -0.596156   -0.471793
      9          7           0       -2.300569   -1.909027   -0.640628
     10          7           0       -1.123199   -2.182002   -0.034846
     11          6           0       -1.145353    1.399632    0.615339
     12          6           0       -0.871636    2.455655   -0.452185
     13          6           0       -2.175013    2.456079    0.297285
     14          1           0        4.192207    0.995064   -0.306563
     15          1           0        3.225840    0.843912    1.173214
     16          1           0        3.224344    2.365449    0.254166
     17          1           0        1.256390    1.190840   -0.353928
     18          1           0        1.208934   -0.733341   -1.633175
     19          1           0        2.965267   -0.852062   -1.564631
     20          1           0        1.854899   -2.537819   -0.130977
     21          1           0        2.909260   -1.495587    0.808671
     22          1           0        0.789076   -1.887215    2.011519
     23          1           0        1.009699   -0.185418    1.654558
     24          1           0       -3.328319   -0.106671   -0.863116
     25          1           0       -0.797673   -3.136696   -0.014687
     26          1           0       -0.610144    1.542539    1.552271
     27          1           0       -0.148276    3.237219   -0.234909
     28          1           0       -0.875277    2.120427   -1.485158
     29          1           0       -3.069601    2.149491   -0.236214
     30          1           0       -2.346214    3.234256    1.035179
 ---------------------------------------------------------------------

 SCF Done:  E(UB3LYP) =  -555.691059308     A.U. after   33 cycles
 SCF Done:  E(UB3LYP) =  -555.691059308     a.u. after    1 cycles

 The electronic state is 2-A.
 Alpha  occ. eigenvalues --  -14.27882 -14.22925 -14.19055 -10.10885 -10.09490
 Alpha  occ. eigenvalues --  -10.08885 -10.08634 -10.08482 -10.08294 -10.08116
 Alpha  occ. eigenvalues --  -10.07855 -10.07306 -10.06434  -0.94350  -0.79962
 Alpha  occ. eigenvalues --   -0.77417  -0.72932  -0.69454  -0.65821  -0.59835
 Alpha  occ. eigenvalues --   -0.55368  -0.54128  -0.51674  -0.50668  -0.48361
 Alpha  occ. eigenvalues --   -0.45942  -0.41318  -0.40342  -0.38881  -0.37024
 Alpha  occ. eigenvalues --   -0.36388  -0.34871  -0.34095  -0.32865  -0.31751
 Alpha  occ. eigenvalues --   -0.30784  -0.28873  -0.27933  -0.27890  -0.27082
 Alpha  occ. eigenvalues --   -0.25535  -0.24554  -0.23836  -0.22624  -0.21348
 Alpha  occ. eigenvalues --   -0.19305  -0.15662  -0.13101  -0.11924   0.04322
 Alpha virt. eigenvalues --    0.06274   0.07212   0.07893   0.08659   0.09056
 Alpha virt. eigenvalues --    0.09775   0.10062   0.10501   0.11042   0.11748
 Alpha virt. eigenvalues --    0.12127   0.12523   0.12929   0.13843   0.14184

  Beta  occ. eigenvalues --  -14.27841 -14.22915 -14.19053 -10.10887 -10.09478
  Beta  occ. eigenvalues --  -10.08883 -10.08626 -10.08469 -10.08284 -10.08076
  Beta  occ. eigenvalues --  -10.07824 -10.07303 -10.06400  -0.94317  -0.79949
  Beta  occ. eigenvalues --   -0.77394  -0.72893  -0.69408  -0.65782  -0.59783
  Beta  occ. eigenvalues --   -0.55302  -0.54095  -0.51635  -0.50619  -0.48306
  Beta  occ. eigenvalues --   -0.45908  -0.41271  -0.40300  -0.38849  -0.36983
  Beta  occ. eigenvalues --   -0.36348  -0.34830  -0.34064  -0.32826  -0.31711
  Beta  occ. eigenvalues --   -0.30750  -0.28839  -0.27911  -0.27862  -0.27048
  Beta  occ. eigenvalues --   -0.25489  -0.24508  -0.23810  -0.22601  -0.21328
  Beta  occ. eigenvalues --   -0.19278  -0.15633  -0.13078  -0.11907
  Beta virt. eigenvalues --    0.06670   0.07416   0.07908   0.08443   0.09174
  Beta virt. eigenvalues --    0.09505   0.10039   0.10500   0.10768   0.11540
  Beta virt. eigenvalues --    0.12071   0.12410   0.12946   0.13259   0.13847

 Mulliken charges and spin densities:
               1          2
     1  C    0.723673  -1.145693
     2  N   -0.191335   0.009527
     3  C   -1.086121   0.561954
     4  C    1.328649  -1.630233
     5  C   -0.150395  -0.010570
     6  C    0.774658  -1.148140
     7  C    1.236643  -0.931403
     8  C    0.017324  -0.031032
     9  N   -0.282379   0.089095
    10  N   -0.091671   0.160643
    11  C   -1.680141   1.469347
    12  C   -0.290665  -0.316286
    13  C    0.564188  -1.046265
    14  H   -0.177841   0.322279
    15  H   -0.253366   0.375741
    16  H   -0.245571   0.376105
    17  H    0.482978  -0.169184
    18  H    0.114342   0.048862
    19  H   -0.163042   0.319391
    20  H   -0.454733   0.601020
    21  H   -0.176425   0.351145
    22  H   -0.760142   0.974827
    23  H    0.012203   0.151860
    24  H    0.095768   0.064562
    25  H   -0.120410   0.449848
    26  H   -0.248894   0.531596
    27  H    0.078114   0.066287
    28  H    0.092094   0.094373
    29  H    0.152294  -0.044419
    30  H   -0.299799   0.454763
 Sum of Mulliken charges =  -1.00000   1.00000

 Dipole moment (field-independent basis, Debye):
    X=             -3.6991    Y=              2.9147    Z=             -3.1212  Tot=              5.6499
 Quadrupole moment (field-independent basis, Debye-Ang):
   XX=           -134.2767   YY=           -141.2683   ZZ=           -116.4549
   XY=             -1.8762   XZ=             -3.2779   YZ=             -0.7118

 Summary of Natural Population Analysis:

                                       Natural Population
                Natural  -----------------------------------------------
    Atom  No    Charge         Core      Valence    Rydberg      Total
 -----------------------------------------------------------------------
      C    1   -0.18037      0.99966     2.17216    0.00855     3.18037
      N    2   -0.34628      0.99975     2.83472    0.01181     3.84628
      C    3   -0.08793      0.99962     2.07621    0.01209     3.08793
      C    4   -0.19514      0.99962     2.18611    0.00941     3.19514
      C    5   -0.21196      0.99959     2.20169    0.01068     3.21196
      C    6    0.08766      0.99949     1.89932    0.01353     2.91234
      C    7   -0.07883      0.99944     2.06834    0.01105     3.07883
      C    8   -0.01319      0.99958     2.00062    0.01300     3.01319
      N    9   -0.15711      0.99974     2.64439    0.01298     3.65711
      N   10   -0.16772      0.99964     2.65479    0.01329     3.66772
      C   11   -0.12449      0.99957     2.11293    0.01199     3.12449
      C   12   -0.19951      0.99962     2.19191    0.00798     3.19951
      C   13   -0.19224      0.99962     2.18454    0.00808     3.19224
      H   14    0.09011      0.00000     0.40878    0.00111     0.40989
      H   15    0.08047      0.00000     0.41788    0.00165     0.41953
      H   16    0.09403      0.00000     0.40487    0.00110     0.40597
      H   17    0.17833      0.00000     0.31668    0.00499     0.32167
      H   18    0.09447      0.00000     0.40407    0.00146     0.40553
      H   19    0.09067      0.00000     0.40830    0.00103     0.40933
      H   20    0.09926      0.00000     0.39842    0.00232     0.40074
      H   21    0.10066      0.00000     0.39747    0.00187     0.39934
      H   22    0.11240      0.00000     0.38491    0.00270     0.38760
      H   23    0.10670      0.00000     0.39114    0.00216     0.39330
      H   24    0.09434      0.00000     0.40461    0.00105     0.40566
      H   25    0.20213      0.00000     0.29328    0.00460     0.29787
      H   26    0.11108      0.00000     0.38727    0.00165     0.38892
      H   27    0.10458      0.00000     0.39428    0.00114     0.39542
      H   28    0.10417      0.00000     0.39483    0.00100     0.39583
      H   29    0.09963      0.00000     0.39949    0.00088     0.40037
      H   30    0.10409      0.00000     0.39487    0.00104     0.39591
 =======================================================================
   * Total *   -0.00000     12.99497    35.82886    0.17617    49.00000

 Normal termination of Gaussian 16 at Mon Dec 14 17:41:22 2020.
