 Gaussian 16, Revision A.03,

 -----------------------------------------------------------
 # opt freq B3LYP/6-31G(d) empiricaldispersion=gd3bj scf=xqc
 -----------------------------------------------------------

 ------------------------------
 CID_17758473_JID_7027_neutraal
 ------------------------------
 Symbolic Z-matrix:
 Charge =  0 Multiplicity = 1

 SCF Done:  E(RB3LYP) =  -1073.16190799     A.U. after   15 cycles
 SCF Done:  E(RB3LYP) =  -1073.16657696     A.U. after   13 cycles
 SCF Done:  E(RB3LYP) =  -1073.16232918     A.U. after   14 cycles
 SCF Done:  E(RB3LYP) =  -1073.16507001     A.U. after   14 cycles
 SCF Done:  E(RB3LYP) =  -1073.16804769     A.U. after   11 cycles
 SCF Done:  E(RB3LYP) =  -1073.16729166     A.U. after   13 cycles
 SCF Done:  E(RB3LYP) =  -1073.16883882     A.U. after   13 cycles
 SCF Done:  E(RB3LYP) =  -1073.16914104     A.U. after   12 cycles
 SCF Done:  E(RB3LYP) =  -1073.16922532     A.U. after   12 cycles
 SCF Done:  E(RB3LYP) =  -1073.16927258     A.U. after   10 cycles
 SCF Done:  E(RB3LYP) =  -1073.16930793     A.U. after    8 cycles
 SCF Done:  E(RB3LYP) =  -1073.16930942     A.U. after    8 cycles
 SCF Done:  E(RB3LYP) =  -1073.16931012     A.U. after    8 cycles
 SCF Done:  E(RB3LYP) =  -1073.16931048     A.U. after    8 cycles
 SCF Done:  E(RB3LYP) =  -1073.16931051     A.U. after    7 cycles
 Optimization completed.
    -- Stationary point found.
 Normal termination of Gaussian 16 at Sun Dec 13 12:34:00 2020.

 --------------------------------------------------------------------
 #N Geom=AllCheck Guess=TCheck SCRF=Check GenChk RB3LYP/6-31G(d) Freq
 --------------------------------------------------------------------

 Structure from the checkpoint file:  "JID_7027.chk"
 ------------------------------
 CID_17758473_JID_7027_neutraal
 ------------------------------
 Charge =  0 Multiplicity = 1

 SCF Done:  E(RB3LYP) =  -1073.16931051     A.U. after    1 cycles

  Exact polarizability: 203.402   3.326 165.836 -16.373   1.261 122.103
 Approx polarizability: 263.405   2.834 292.416 -31.083   4.973 195.721

                      1                      2                      3
                      A                      A                      A
 Frequencies --     22.3483                40.9228                47.3380
 Red. masses --      4.7078                 4.2855                 5.0553
 Frc consts  --      0.0014                 0.0042                 0.0067
 IR Inten    --      0.0893                 0.5853                 1.5897

                      4                      5                      6
                      A                      A                      A
 Frequencies --     70.2057               102.0330               110.5272
 Red. masses --      4.0602                 2.5674                 3.4871
 Frc consts  --      0.0118                 0.0157                 0.0251
 IR Inten    --      0.3760                 0.1771                 1.6590

                      7                      8                      9
                      A                      A                      A
 Frequencies --    121.3949               130.5011               175.2495
 Red. masses --      4.2527                 3.0859                 2.9223
 Frc consts  --      0.0369                 0.0310                 0.0529
 IR Inten    --      0.8405                 0.2907                 1.1198

                     10                     11                     12
                      A                      A                      A
 Frequencies --    185.9182               198.5524               246.1845
 Red. masses --      4.7549                 1.9116                 1.1273
 Frc consts  --      0.0968                 0.0444                 0.0403
 IR Inten    --      0.7047                 2.8940                 0.3528

                     13                     14                     15
                      A                      A                      A
 Frequencies --    263.5346               291.1227               300.5622
 Red. masses --      3.5896                 3.3547                 2.2681
 Frc consts  --      0.1469                 0.1675                 0.1207
 IR Inten    --      0.7751                 2.0121                 1.1060

                     16                     17                     18
                      A                      A                      A
 Frequencies --    324.7100               335.6616               350.4421
 Red. masses --      2.0063                 2.2106                 3.3097
 Frc consts  --      0.1246                 0.1467                 0.2395
 IR Inten    --      1.2484                 0.5665                 1.6522

                     19                     20                     21
                      A                      A                      A
 Frequencies --    414.6611               418.5292               437.2360
 Red. masses --      4.5486                 3.6760                 3.8314
 Frc consts  --      0.4608                 0.3794                 0.4316
 IR Inten    --      2.0378                 0.1880                 6.7394

                     22                     23                     24
                      A                      A                      A
 Frequencies --    478.2189               527.0455               577.4528
 Red. masses --      3.7553                 1.2568                 4.9095
 Frc consts  --      0.5060                 0.2057                 0.9645
 IR Inten    --      1.5260               174.5701                 2.0331

                     25                     26                     27
                      A                      A                      A
 Frequencies --    581.7396               635.1610               674.7777
 Red. masses --      3.1704                 6.2418                 3.6457
 Frc consts  --      0.6322                 1.4836                 0.9780
 IR Inten    --      4.0794                 0.8057                 5.0727

                     28                     29                     30
                      A                      A                      A
 Frequencies --    682.5179               713.1687               718.3053
 Red. masses --      4.5091                 3.0740                 2.1525
 Frc consts  --      1.2376                 0.9212                 0.6543
 IR Inten    --     10.9917                26.7064                17.1646

                     31                     32                     33
                      A                      A                      A
 Frequencies --    748.5365               769.0087               778.4069
 Red. masses --      2.6285                 2.0952                 1.9146
 Frc consts  --      0.8677                 0.7300                 0.6835
 IR Inten    --     14.3305                 1.7545                14.1339

                     34                     35                     36
                      A                      A                      A
 Frequencies --    809.1175               825.9045               840.7430
 Red. masses --      1.2014                 4.1856                 2.6344
 Frc consts  --      0.4634                 1.6821                 1.0971
 IR Inten    --      5.4675                 2.0259                14.2071

                     37                     38                     39
                      A                      A                      A
 Frequencies --    863.8949               885.4890               922.2808
 Red. masses --      1.2509                 1.7474                 2.7515
 Frc consts  --      0.5500                 0.8072                 1.3789
 IR Inten    --      0.7870                 9.5446                 2.7521

                     40                     41                     42
                      A                      A                      A
 Frequencies --    935.9703               967.5186               974.4700
 Red. masses --      1.4540                 1.9198                 1.3543
 Frc consts  --      0.7505                 1.0588                 0.7577
 IR Inten    --      6.2407                 3.8470                 0.4685

                     43                     44                     45
                      A                      A                      A
 Frequencies --    987.9083               999.2335              1022.5534
 Red. masses --      2.0863                 1.2667                 5.6797
 Frc consts  --      1.1997                 0.7452                 3.4990
 IR Inten    --      3.3494                 0.6453                 2.1772

                     46                     47                     48
                      A                      A                      A
 Frequencies --   1025.1468              1052.5840              1060.9766
 Red. masses --      2.7099                 2.1824                 2.2351
 Frc consts  --      1.6779                 1.4246                 1.4824
 IR Inten    --     31.0572                 3.8658                 2.1013

                     49                     50                     51
                      A                      A                      A
 Frequencies --   1069.2974              1099.5200              1113.9940
 Red. masses --      1.8838                 1.8760                 1.5879
 Frc consts  --      1.2690                 1.3363                 1.1610
 IR Inten    --      7.9243                 3.2714                 4.7656

                     52                     53                     54
                      A                      A                      A
 Frequencies --   1155.9381              1164.1570              1194.3200
 Red. masses --      1.7990                 1.9534                 1.1062
 Frc consts  --      1.4163                 1.5597                 0.9296
 IR Inten    --     37.4893                 2.5559                 0.0051

                     55                     56                     57
                      A                      A                      A
 Frequencies --   1196.9826              1210.6018              1218.8077
 Red. masses --      1.1285                 2.5591                 1.1534
 Frc consts  --      0.9527                 2.2097                 1.0095
 IR Inten    --      8.9274                34.4210                 0.4009

                     58                     59                     60
                      A                      A                      A
 Frequencies --   1235.1814              1244.3375              1280.2416
 Red. masses --      2.7335                 2.3875                 1.7249
 Frc consts  --      2.4571                 2.1780                 1.6657
 IR Inten    --      0.8426                 0.1005                42.4771

                     61                     62                     63
                      A                      A                      A
 Frequencies --   1285.8089              1325.2259              1331.4821
 Red. masses --      1.3503                 1.2300                 1.3415
 Frc consts  --      1.3153                 1.2728                 1.4012
 IR Inten    --     15.4294                 6.1501                 0.8250

                     64                     65                     66
                      A                      A                      A
 Frequencies --   1347.5707              1362.9362              1372.3049
 Red. masses --      1.3052                 4.2893                 1.8019
 Frc consts  --      1.3965                 4.6945                 1.9993
 IR Inten    --     20.3651                 1.8849                39.9531

                     67                     68                     69
                      A                      A                      A
 Frequencies --   1374.0255              1380.6592              1404.7258
 Red. masses --      1.3285                 1.6057                 1.5278
 Frc consts  --      1.4778                 1.8034                 1.7762
 IR Inten    --      0.0857                12.9450                 1.2387

                     70                     71                     72
                      A                      A                      A
 Frequencies --   1442.1644              1443.5636              1488.6613
 Red. masses --      1.2403                 1.2345                 1.1817
 Frc consts  --      1.5198                 1.5157                 1.5429
 IR Inten    --     10.0912                 3.5070                 3.2540

                     73                     74                     75
                      A                      A                      A
 Frequencies --   1505.0266              1513.3809              1522.3104
 Red. masses --      1.9417                 1.0641                 1.0580
 Frc consts  --      2.5913                 1.4359                 1.4446
 IR Inten    --      9.6396                 1.1875                 5.5689

                     76                     77                     78
                      A                      A                      A
 Frequencies --   1530.3937              1536.6952              1538.5494
 Red. masses --      1.0590                 1.0416                 1.0486
 Frc consts  --      1.4613                 1.4491                 1.4624
 IR Inten    --      8.3146                 4.5333                 4.7630

                     79                     80                     81
                      A                      A                      A
 Frequencies --   1548.0892              1548.9788              1646.0083
 Red. masses --      2.1884                 1.0707                 5.4689
 Frc consts  --      3.0901                 1.5136                 8.7300
 IR Inten    --      9.3476                 0.5536                 1.0594

                     82                     83                     84
                      A                      A                      A
 Frequencies --   1665.2954              1875.1205              3048.5066
 Red. masses --      5.4954                11.3107                 1.0636
 Frc consts  --      8.9791                23.4314                 5.8237
 IR Inten    --      3.1125               360.3040                17.9636

                     85                     86                     87
                      A                      A                      A
 Frequencies --   3051.4974              3058.0077              3069.1566
 Red. masses --      1.0379                 1.0369                 1.0668
 Frc consts  --      5.6942                 5.7128                 5.9205
 IR Inten    --     18.8240                26.5739                13.6007

                     88                     89                     90
                      A                      A                      A
 Frequencies --   3077.2110              3080.7919              3087.8999
 Red. masses --      1.0647                 1.0861                 1.0976
 Frc consts  --      5.9399                 6.0736                 6.1660
 IR Inten    --      9.1979                25.3751                13.2286

                     91                     92                     93
                      A                      A                      A
 Frequencies --   3107.7436              3116.8929              3124.3584
 Red. masses --      1.0976                 1.1011                 1.1002
 Frc consts  --      6.2459                 6.3024                 6.3278
 IR Inten    --      8.4313                34.9075                77.6936

                     94                     95                     96
                      A                      A                      A
 Frequencies --   3127.4688              3138.4698              3140.8789
 Red. masses --      1.1020                 1.1015                 1.1006
 Frc consts  --      6.3504                 6.3925                 6.3971
 IR Inten    --     12.6611                15.2693                15.6627

                     97                     98                     99
                      A                      A                      A
 Frequencies --   3183.2186              3188.0056              3195.7972
 Red. masses --      1.0852                 1.0877                 1.0909
 Frc consts  --      6.4785                 6.5134                 6.5644
 IR Inten    --      2.5568                 0.0655                11.3320

                    100                    101                    102
                      A                      A                      A
 Frequencies --   3203.7306              3213.4904              3590.6041
 Red. masses --      1.0943                 1.0981                 1.0789
 Frc consts  --      6.6177                 6.6809                 8.1957
 IR Inten    --     26.9153                19.7416                34.8523

 - Thermochemistry -
 -------------------
 Temperature   298.150 Kelvin.  Pressure   1.00000 Atm.
 Atom     1 has atomic number  6 and mass  12.00000

 Molecular mass:   249.11874 amu.
 Principal axes and moments of inertia in atomic units:
                           1         2         3
     Eigenvalues --  2155.766316947.083817656.64580
           X            0.99998   0.00365  -0.00419
           Y           -0.00351   0.99939   0.03488
           Z            0.00432  -0.03486   0.99938
 This molecule is an asymmetric top.
 Rotational symmetry number  1.
 Warning -- assumption of classical behavior for rotation
           may cause significant error
 Rotational temperatures (Kelvin)      0.04018     0.01247     0.01131
 Rotational constants (GHZ):           0.83717     0.25978     0.23571
 Zero-point vibrational energy     805217.5 (Joules/Mol)
                                  192.45160 (Kcal/Mol)
 Warning -- explicit consideration of  25 degrees of freedom as
           vibrations may cause significant error
 Vibrational temperatures:     32.15    58.88    68.11   101.01   146.80
          (Kelvin)            159.02   174.66   187.76   252.14   267.49
                              285.67   354.20   379.17   418.86   432.44
                              467.19   482.94   504.21   596.60   602.17
                              629.09   688.05   758.30   830.83   836.99
                              913.85   970.85   981.99  1026.09  1033.48
                             1076.98  1106.43  1119.95  1164.14  1188.29
                             1209.64  1242.95  1274.02  1326.96  1346.65
                             1392.04  1402.05  1421.38  1437.67  1471.23
                             1474.96  1514.43  1526.51  1538.48  1581.96
                             1602.79  1663.14  1674.96  1718.36  1722.19
                             1741.79  1753.59  1777.15  1790.32  1841.98
                             1849.99  1906.70  1915.71  1938.85  1960.96
                             1974.44  1976.92  1986.46  2021.09  2074.95
                             2076.97  2141.85  2165.40  2177.42  2190.27
                             2201.90  2210.96  2213.63  2227.36  2228.63
                             2368.24  2395.99  2697.88  4386.12  4390.42
                             4399.79  4415.83  4427.42  4432.57  4442.80
                             4471.35  4484.51  4495.25  4499.73  4515.56
                             4519.02  4579.94  4586.83  4598.04  4609.45
                             4623.50  5166.08

 Zero-point correction=                           0.306691 (Hartree/Particle)
 Thermal correction to Energy=                    0.324001
 Thermal correction to Enthalpy=                  0.324946
 Thermal correction to Gibbs Free Energy=         0.260474
 Sum of electronic and zero-point Energies=          -1072.862619
 Sum of electronic and thermal Energies=             -1072.845309
 Sum of electronic and thermal Enthalpies=           -1072.844365
 Sum of electronic and thermal Free Energies=        -1072.908837

                     E (Thermal)             CV                S
                      KCal/Mol        Cal/Mol-Kelvin    Cal/Mol-Kelvin
 Total                  203.314             65.621            135.692
 Electronic               0.000              0.000              0.000
 Translational            0.889              2.981             42.439
 Rotational               0.889              2.981             33.105
 Vibrational            201.537             59.659             60.148
 Vibration     1          0.593              1.985              6.414
 Vibration     2          0.594              1.981              5.214
 Vibration     3          0.595              1.979              4.926
 Vibration     4          0.598              1.968              4.148
 Vibration     5          0.604              1.948              3.415
 Vibration     6          0.606              1.941              3.260
 Vibration     7          0.609              1.931              3.078
 Vibration     8          0.612              1.923              2.939
 Vibration     9          0.627              1.873              2.378
 Vibration    10          0.632              1.859              2.268
 Vibration    11          0.637              1.842              2.146
 Vibration    12          0.661              1.769              1.758
 Vibration    13          0.670              1.740              1.638
 Vibration    14          0.687              1.690              1.467
 Vibration    15          0.693              1.673              1.414
 Vibration    16          0.709              1.626              1.286
 Vibration    17          0.717              1.604              1.233
 Vibration    18          0.727              1.574              1.164
 Vibration    19          0.778              1.438              0.910
 Vibration    20          0.781              1.430              0.897
 Vibration    21          0.798              1.389              0.835
 Vibration    22          0.835              1.298              0.715
 Vibration    23          0.882              1.190              0.594
 Vibration    24          0.934              1.080              0.490
 Vibration    25          0.938              1.071              0.482

 Optimization completed.
    -- Stationary point found.
 Normal termination of Gaussian 16 at Sun Dec 13 12:48:09 2020.

 ----------------------------------------------------------------------
 # B3LYP/6-311++G(d,p) empiricaldispersion=gd3bj scf=xqc pop=npa geom=c
 heck
 ----------------------------------------------------------------------

 --------------------------------------
 CID_17758473_JID_7027_Energie_neutraal
 --------------------------------------
 Structure from the checkpoint file:  "JID_7027.chk"
 Charge =  0 Multiplicity = 1

 SCF Done:  E(RB3LYP) =  -1073.38199632     A.U. after   16 cycles
 Normal termination of Gaussian 16 at Sun Dec 13 12:56:15 2020.

 ----------------------------------------------------------------------
 # B3LYP/6-311++G(d,p) empiricaldispersion=gd3bj scf=xqc pop=npa geom=c
 heck
 ----------------------------------------------------------------------

 ------------------------------------
 CID_17758473_JID_7027_Energie_kation
 ------------------------------------
 Structure from the checkpoint file:  "JID_7027.chk"
 Charge =  1 Multiplicity = 2

 SCF Done:  E(UB3LYP) =  -1073.08138744     A.U. after   26 cycles
 Normal termination of Gaussian 16 at Sun Dec 13 13:14:47 2020.
 Gaussian 16:  ES64L-G16RevA.03 25-Dec-2016

 ----------------------------------------------------------------------
 # B3LYP/6-311++G(d,p) empiricaldispersion=gd3bj scf=xqc pop=npa geom=c
 heck
 ----------------------------------------------------------------------

 -----------------------------------
 CID_17758473_JID_7027_Energie_anion
 -----------------------------------
 Structure from the checkpoint file:  "JID_7027.chk"
 Charge = -1 Multiplicity = 2

                         Standard orientation:
 ---------------------------------------------------------------------
 Center     Atomic      Atomic             Coordinates (Angstroms)
 Number     Number       Type             X           Y           Z
 ---------------------------------------------------------------------
      1          6           0       -3.367375    1.089124    1.756965
      2          6           0       -2.459395   -0.032270    1.238946
      3          6           0       -2.048805    0.157933   -0.222146
      4          6           0       -0.920879   -0.781944   -0.811769
      5          7           0       -0.187410    0.427457   -1.160702
      6          6           0       -1.020004    1.290651   -0.480710
      7          8           0       -0.926887    2.465984   -0.201352
      8         16           0       -0.037514   -1.990921    0.257493
      9          6           0        1.034262   -0.921957    1.319311
     10          6           0        2.247667   -0.334124    0.641070
     11          6           0        2.409319    1.054934    0.565699
     12          6           0        3.532570    1.606706   -0.053350
     13          6           0        4.510240    0.774882   -0.599310
     14          6           0        4.356694   -0.611793   -0.526766
     15          6           0        3.232480   -1.160933    0.086525
     16          6           0       -3.242150    0.262120   -1.190786
     17          6           0       -4.196226   -0.934137   -1.135239
     18          1           0       -2.904417    2.066243    1.588114
     19          1           0       -3.543949    0.971259    2.831366
     20          1           0       -4.343486    1.086818    1.260506
     21          1           0       -1.565489   -0.077561    1.866755
     22          1           0       -2.945908   -1.008212    1.349980
     23          1           0       -1.239573   -1.378767   -1.672182
     24          1           0        0.785150    0.537855   -1.424554
     25          1           0        0.432983   -0.134419    1.777584
     26          1           0        1.332843   -1.604538    2.122234
     27          1           0        1.639071    1.708931    0.966556
     28          1           0        3.637992    2.686281   -0.110587
     29          1           0        5.384634    1.202599   -1.081393
     30          1           0        5.112798   -1.266084   -0.951704
     31          1           0        3.106203   -2.239537    0.125936
     32          1           0       -3.788706    1.187841   -0.978552
     33          1           0       -2.847834    0.370866   -2.209266
     34          1           0       -4.704026   -1.003655   -0.167947
     35          1           0       -4.966884   -0.847384   -1.908499
     36          1           0       -3.664583   -1.879046   -1.299146
 ---------------------------------------------------------------------

 SCF Done:  E(UB3LYP) =  -1073.37044625     A.U. after   33 cycles
 SCF Done:  E(UB3LYP) =  -1073.37044625     a.u. after    1 cycles

 The electronic state is 2-A.
 Alpha  occ. eigenvalues --  -88.74475 -19.01156 -14.24781 -10.18200 -10.14939
 Alpha  occ. eigenvalues --  -10.10731 -10.10340 -10.08248 -10.07900 -10.07827
 Alpha  occ. eigenvalues --  -10.07738 -10.07541 -10.07397 -10.07096 -10.07065
 Alpha  occ. eigenvalues --  -10.06763 -10.06651  -7.83103  -5.79507  -5.79118
 Alpha  occ. eigenvalues --   -5.78462  -0.95658  -0.87218  -0.76224  -0.72389
 Alpha  occ. eigenvalues --   -0.70173  -0.66059  -0.65183  -0.64764  -0.61773
 Alpha  occ. eigenvalues --   -0.58637  -0.53839  -0.52989  -0.51808  -0.50837
 Alpha  occ. eigenvalues --   -0.48015  -0.43487  -0.41753  -0.40939  -0.38806
 Alpha  occ. eigenvalues --   -0.38018  -0.37434  -0.36159  -0.35626  -0.34268
 Alpha  occ. eigenvalues --   -0.32743  -0.32579  -0.32228  -0.31960  -0.31203
 Alpha  occ. eigenvalues --   -0.30041  -0.29281  -0.28271  -0.27368  -0.26718
 Alpha  occ. eigenvalues --   -0.26385  -0.25824  -0.25606  -0.24635  -0.24115
 Alpha  occ. eigenvalues --   -0.23422  -0.22249  -0.18060  -0.16638  -0.16089
 Alpha  occ. eigenvalues --   -0.15110  -0.13189   0.04340
 Alpha virt. eigenvalues --    0.05874   0.06617   0.07005   0.07679   0.08096
 Alpha virt. eigenvalues --    0.08185   0.08549   0.08883   0.09563   0.10053
 Alpha virt. eigenvalues --    0.10243   0.10950   0.10989   0.11241   0.11933

  Beta  occ. eigenvalues --  -88.74457 -19.01155 -14.24776 -10.18201 -10.14925
  Beta  occ. eigenvalues --  -10.10719 -10.10341 -10.08238 -10.07887 -10.07754
  Beta  occ. eigenvalues --  -10.07681 -10.07513 -10.07399 -10.07038 -10.06933
  Beta  occ. eigenvalues --  -10.06749 -10.06605  -7.83082  -5.79471  -5.79104
  Beta  occ. eigenvalues --   -5.78447  -0.95655  -0.87207  -0.76051  -0.72370
  Beta  occ. eigenvalues --   -0.70033  -0.66026  -0.65055  -0.64628  -0.61721
  Beta  occ. eigenvalues --   -0.58545  -0.53791  -0.52930  -0.51652  -0.50787
  Beta  occ. eigenvalues --   -0.47861  -0.43461  -0.41676  -0.40909  -0.38775
  Beta  occ. eigenvalues --   -0.37970  -0.37400  -0.36033  -0.35563  -0.34236
  Beta  occ. eigenvalues --   -0.32673  -0.32538  -0.32146  -0.31921  -0.31149
  Beta  occ. eigenvalues --   -0.29950  -0.29137  -0.28234  -0.27313  -0.26595
  Beta  occ. eigenvalues --   -0.26309  -0.25793  -0.25443  -0.24573  -0.24063
  Beta  occ. eigenvalues --   -0.23378  -0.22183  -0.17996  -0.16625  -0.15792
  Beta  occ. eigenvalues --   -0.14539  -0.13065
  Beta virt. eigenvalues --    0.06381   0.06709   0.07383   0.07514   0.08066
  Beta virt. eigenvalues --    0.08184   0.08406   0.08948   0.09287   0.09695
  Beta virt. eigenvalues --    0.10286   0.10361   0.11084   0.11170   0.11430

 Mulliken charges and spin densities:
               1          2
     1  C   -0.266416  -0.444967
     2  C   -0.086405   0.068015
     3  C    0.442217   0.270059
     4  C   -0.070386  -0.341629
     5  N   -0.212507   0.014913
     6  C   -0.240272  -0.271768
     7  O   -0.315494   0.015580
     8  S    0.862190  -0.796950
     9  C    0.749112  -1.510448
    10  C    0.054005   0.857774
    11  C   -0.469551   0.367750
    12  C   -0.234776  -0.058938
    13  C    0.107398  -0.380733
    14  C   -0.242689  -0.070871
    15  C   -0.582232   0.287357
    16  C   -1.132885   0.875246
    17  C    1.204066  -1.846920
    18  H    0.136049   0.046583
    19  H   -0.076065   0.220986
    20  H    0.023906   0.113928
    21  H    0.451400  -0.349569
    22  H   -0.162344   0.350921
    23  H   -0.052019   0.392635
    24  H    0.359078  -0.020823
    25  H   -0.089754   0.237077
    26  H   -0.230083   0.515585
    27  H    0.140045   0.053672
    28  H    0.070546   0.090405
    29  H   -0.013597   0.138986
    30  H   -0.160433   0.321902
    31  H   -0.116389   0.236753
    32  H    0.084144   0.081926
    33  H   -0.006444   0.163881
    34  H   -0.131288   0.286308
    35  H   -0.539360   0.690283
    36  H   -0.252769   0.395091
 Sum of Mulliken charges =  -1.00000   1.00000

 Dipole moment (field-independent basis, Debye):
    X=              2.8062    Y=              2.3220    Z=              0.4586  Tot=              3.6711
 Quadrupole moment (field-independent basis, Debye-Ang):
   XX=           -201.1863   YY=           -155.1742   ZZ=           -143.3922
   XY=             -4.4148   XZ=             -9.6503   YZ=             -0.1253

 Summary of Natural Population Analysis:

                                       Natural Population
                Natural  -----------------------------------------------
    Atom  No    Charge         Core      Valence    Rydberg      Total
 -----------------------------------------------------------------------
      C    1   -0.28941      0.99966     2.28408    0.00567     3.28941
      C    2   -0.19566      0.99959     2.18581    0.01026     3.19566
      C    3   -0.06632      0.99948     2.05224    0.01459     3.06632
      C    4   -0.06144      0.99955     2.04444    0.01745     3.06144
      N    5   -0.32601      0.99966     2.81689    0.00945     3.82601
      C    6    0.35354      0.99961     1.62143    0.02542     2.64646
      O    7   -0.30946      0.99987     3.30402    0.00558     4.30946
      S    8    0.09988      4.99962     2.88507    0.01544     7.90012
      C    9   -0.25396      0.99953     2.24287    0.01156     3.25396
      C   10   -0.01253      0.99949     2.00238    0.01065     3.01253
      C   11   -0.11006      0.99951     2.10057    0.00998     3.11006
      C   12   -0.10060      0.99957     2.09128    0.00975     3.10060
      C   13   -0.08730      0.99956     2.07789    0.00985     3.08730
      C   14   -0.10574      0.99957     2.09664    0.00953     3.10574
      C   15   -0.08971      0.99951     2.08017    0.01004     3.08971
      C   16   -0.19060      0.99960     2.18060    0.01041     3.19060
      C   17   -0.28797      0.99966     2.28255    0.00575     3.28797
      H   18    0.10627      0.00000     0.39280    0.00092     0.39373
      H   19    0.09819      0.00000     0.40116    0.00064     0.40181
      H   20    0.09667      0.00000     0.40247    0.00086     0.40333
      H   21    0.10024      0.00000     0.39821    0.00154     0.39976
      H   22    0.10546      0.00000     0.39313    0.00141     0.39454
      H   23    0.10084      0.00000     0.39779    0.00136     0.39916
      H   24    0.20445      0.00000     0.29346    0.00209     0.29555
      H   25    0.10305      0.00000     0.39493    0.00202     0.39695
      H   26    0.11571      0.00000     0.38254    0.00175     0.38429
      H   27    0.10506      0.00000     0.39338    0.00156     0.39494
      H   28    0.09842      0.00000     0.40074    0.00084     0.40158
      H   29    0.09594      0.00000     0.40328    0.00078     0.40406
      H   30    0.09802      0.00000     0.40108    0.00090     0.40198
      H   31    0.10227      0.00000     0.39646    0.00128     0.39773
      H   32    0.10279      0.00000     0.39603    0.00118     0.39721
      H   33    0.09919      0.00000     0.39929    0.00152     0.40081
      H   34    0.09867      0.00000     0.40011    0.00123     0.40133
      H   35    0.10305      0.00000     0.39552    0.00143     0.39695
      H   36    0.09904      0.00000     0.39925    0.00171     0.40096
 =======================================================================
   * Total *   -0.00000     20.99304    45.79058    0.21639    67.00000

 Normal termination of Gaussian 16 at Sun Dec 13 13:39:18 2020.
