 Gaussian 16, Revision A.03,

 -----------------------------------------------------------
 # opt freq B3LYP/6-31G(d) empiricaldispersion=gd3bj scf=xqc
 -----------------------------------------------------------

 ------------------------------
 CID_82888329_JID_6979_neutraal
 ------------------------------
 Symbolic Z-matrix:
 Charge =  0 Multiplicity = 1

 SCF Done:  E(RB3LYP) =  -1019.02639797     A.U. after   14 cycles
 SCF Done:  E(RB3LYP) =  -1019.02944595     A.U. after   11 cycles
 SCF Done:  E(RB3LYP) =  -1019.02966615     A.U. after   11 cycles
 SCF Done:  E(RB3LYP) =  -1019.02968907     A.U. after    9 cycles
 SCF Done:  E(RB3LYP) =  -1019.02969347     A.U. after    9 cycles
 SCF Done:  E(RB3LYP) =  -1019.02969476     A.U. after    8 cycles
 SCF Done:  E(RB3LYP) =  -1019.02969519     A.U. after    7 cycles
 SCF Done:  E(RB3LYP) =  -1019.02969535     A.U. after    7 cycles
 SCF Done:  E(RB3LYP) =  -1019.02969536     A.U. after    7 cycles
 Optimization completed.
    -- Stationary point found.
 Normal termination of Gaussian 16 at Fri Dec 11 00:14:33 2020.

 --------------------------------------------------------------------
 #N Geom=AllCheck Guess=TCheck SCRF=Check GenChk RB3LYP/6-31G(d) Freq
 --------------------------------------------------------------------

 Structure from the checkpoint file:  "JID_6979.chk"
 ------------------------------
 CID_82888329_JID_6979_neutraal
 ------------------------------
 Charge =  0 Multiplicity = 1

 SCF Done:  E(RB3LYP) =  -1019.02969536     A.U. after    1 cycles

  Exact polarizability: 216.009  -1.454 164.833  -5.136  -0.945 113.798
 Approx polarizability: 281.823  -1.426 271.789 -16.190   4.731 177.813

                      1                      2                      3
                      A                      A                      A
 Frequencies --     31.2250                46.7931                83.6649
 Red. masses --      3.0959                 3.4376                 4.4725
 Frc consts  --      0.0018                 0.0044                 0.0184
 IR Inten    --      0.0252                 0.3356                 1.2597

                      4                      5                      6
                      A                      A                      A
 Frequencies --    118.7602               130.3194               138.2277
 Red. masses --      3.4898                 4.0085                 4.2221
 Frc consts  --      0.0290                 0.0401                 0.0475
 IR Inten    --      1.1282                 0.8071                 2.1229

                      7                      8                      9
                      A                      A                      A
 Frequencies --    170.2949               219.1911               236.0507
 Red. masses --      2.8797                 2.2201                 1.1090
 Frc consts  --      0.0492                 0.0628                 0.0364
 IR Inten    --      0.8892                 0.2721                 0.1592

                     10                     11                     12
                      A                      A                      A
 Frequencies --    244.1127               258.7596               270.6649
 Red. masses --      1.2993                 1.1813                 3.0296
 Frc consts  --      0.0456                 0.0466                 0.1308
 IR Inten    --      0.1940                 0.0713                 0.5333

                     13                     14                     15
                      A                      A                      A
 Frequencies --    280.2494               293.7354               310.0594
 Red. masses --      2.4043                 3.3843                 3.1333
 Frc consts  --      0.1113                 0.1720                 0.1775
 IR Inten    --      0.3657                 0.0565                11.1248

                     16                     17                     18
                      A                      A                      A
 Frequencies --    340.5059               360.0715               376.3663
 Red. masses --      3.2575                 1.3862                 2.1505
 Frc consts  --      0.2225                 0.1059                 0.1795
 IR Inten    --      0.2520                96.2101                35.4706

                     19                     20                     21
                      A                      A                      A
 Frequencies --    408.3291               436.3707               441.3519
 Red. masses --      3.8835                 3.4270                 3.1337
 Frc consts  --      0.3815                 0.3845                 0.3596
 IR Inten    --      0.5324                 0.5132                 5.8227

                     22                     23                     24
                      A                      A                      A
 Frequencies --    479.2324               497.5567               528.2544
 Red. masses --      3.1729                 3.0042                 3.0679
 Frc consts  --      0.4293                 0.4382                 0.5044
 IR Inten    --      6.7918                 2.9264                 4.6884

                     25                     26                     27
                      A                      A                      A
 Frequencies --    561.0105               602.5110               658.3627
 Red. masses --      3.2135                 4.0034                 3.5405
 Frc consts  --      0.5959                 0.8563                 0.9042
 IR Inten    --      3.4816                 5.0431                 1.1253

                     28                     29                     30
                      A                      A                      A
 Frequencies --    665.8022               693.1844               723.0400
 Red. masses --      4.4773                 3.5954                 5.1187
 Frc consts  --      1.1694                 1.0179                 1.5767
 IR Inten    --      1.3908                 5.2727                 4.5474

                     31                     32                     33
                      A                      A                      A
 Frequencies --    779.0144               802.1564               847.7035
 Red. masses --      3.6151                 3.7220                 1.4699
 Frc consts  --      1.2926                 1.4110                 0.6223
 IR Inten    --      0.3563                 5.3915                10.7014

                     34                     35                     36
                      A                      A                      A
 Frequencies --    878.7922               898.7654               913.0550
 Red. masses --      2.9691                 1.7915                 1.4475
 Frc consts  --      1.3510                 0.8526                 0.7110
 IR Inten    --      3.9176                 3.2884                 4.2764

                     37                     38                     39
                      A                      A                      A
 Frequencies --    923.8119               934.6567               942.4684
 Red. masses --      2.3409                 1.7466                 1.1818
 Frc consts  --      1.1770                 0.8990                 0.6185
 IR Inten    --      7.4370                 1.9024                 0.5560

                     40                     41                     42
                      A                      A                      A
 Frequencies --    953.8299               971.0394               974.9411
 Red. masses --      1.3275                 2.0847                 1.5001
 Frc consts  --      0.7116                 1.1581                 0.8401
 IR Inten    --      0.0723                 2.0475                 0.1671

                     43                     44                     45
                      A                      A                      A
 Frequencies --   1012.5298              1048.4444              1080.1781
 Red. masses --      3.3714                 1.7279                 3.1632
 Frc consts  --      2.0364                 1.1191                 2.1745
 IR Inten    --     25.9323                 2.4963                49.4811

                     46                     47                     48
                      A                      A                      A
 Frequencies --   1102.1509              1110.8473              1135.4143
 Red. masses --      2.0528                 1.8591                 2.2968
 Frc consts  --      1.4692                 1.3516                 1.7445
 IR Inten    --     28.8749                15.0125                 0.7411

                     49                     50                     51
                      A                      A                      A
 Frequencies --   1141.5301              1144.7628              1168.6450
 Red. masses --      2.0728                 1.7478                 1.8706
 Frc consts  --      1.5914                 1.3495                 1.5052
 IR Inten    --      7.4345                 6.6996                 3.8851

                     52                     53                     54
                      A                      A                      A
 Frequencies --   1195.8128              1207.9405              1215.3132
 Red. masses --      1.2988                 1.3302                 1.4197
 Frc consts  --      1.0943                 1.1436                 1.2355
 IR Inten    --      4.1379                 7.7067                12.7801

                     55                     56                     57
                      A                      A                      A
 Frequencies --   1242.2247              1263.3695              1270.0693
 Red. masses --      1.7879                 1.4533                 1.8947
 Frc consts  --      1.6255                 1.3667                 1.8007
 IR Inten    --      1.5816                21.5300                 2.6865

                     58                     59                     60
                      A                      A                      A
 Frequencies --   1288.9135              1309.3322              1320.8649
 Red. masses --      1.3779                 1.5630                 1.4151
 Frc consts  --      1.3487                 1.5788                 1.4547
 IR Inten    --     34.1176                13.1992                 5.2400

                     61                     62                     63
                      A                      A                      A
 Frequencies --   1350.2331              1356.0554              1363.4028
 Red. masses --      1.2870                 2.0688                 1.3286
 Frc consts  --      1.3825                 2.2414                 1.4551
 IR Inten    --     11.9821                 3.4857                 2.4954

                     64                     65                     66
                      A                      A                      A
 Frequencies --   1368.1858              1391.5270              1402.1949
 Red. masses --      1.5376                 1.9868                 1.5414
 Frc consts  --      1.6958                 2.2667                 1.7855
 IR Inten    --      5.7739                 8.0051                 1.2856

                     67                     68                     69
                      A                      A                      A
 Frequencies --   1426.1470              1439.2577              1441.4418
 Red. masses --      1.2296                 1.2244                 1.2240
 Frc consts  --      1.4734                 1.4944                 1.4984
 IR Inten    --      2.8978                 4.8293                33.5069

                     70                     71                     72
                      A                      A                      A
 Frequencies --   1445.9496              1473.4329              1499.1035
 Red. masses --      1.2403                 2.4173                 1.1259
 Frc consts  --      1.5278                 3.0920                 1.4908
 IR Inten    --      0.1579                 8.1888                14.8354

                     73                     74                     75
                      A                      A                      A
 Frequencies --   1505.0817              1517.4545              1521.2998
 Red. masses --      1.0928                 1.0441                 1.0487
 Frc consts  --      1.4585                 1.4165                 1.4299
 IR Inten    --      2.3140                 0.1086                 1.9038

                     76                     77                     78
                      A                      A                      A
 Frequencies --   1523.2003              1530.7585              1532.5026
 Red. masses --      1.0431                 1.0485                 1.0597
 Frc consts  --      1.4259                 1.4476                 1.4664
 IR Inten    --      9.2371                 4.2029                 8.1723

                     79                     80                     81
                      A                      A                      A
 Frequencies --   1536.5710              1548.8765              1634.7198
 Red. masses --      1.1785                 2.1520                 6.3438
 Frc consts  --      1.6394                 3.0418                 9.9881
 IR Inten    --      0.3887                18.1424                 1.0723

                     82                     83                     84
                      A                      A                      A
 Frequencies --   1672.8011              3030.5910              3033.4722
 Red. masses --      6.0064                 1.0591                 1.0843
 Frc consts  --      9.9027                 5.7312                 5.8784
 IR Inten    --      5.8433                20.6632                18.2624

                     85                     86                     87
                      A                      A                      A
 Frequencies --   3035.4337              3044.4335              3047.1525
 Red. masses --      1.0844                 1.0347                 1.0841
 Frc consts  --      5.8869                 5.6503                 5.9310
 IR Inten    --      9.0304                24.7560                19.9838

                     88                     89                     90
                      A                      A                      A
 Frequencies --   3048.6519              3053.1924              3058.6196
 Red. masses --      1.0353                 1.0356                 1.0655
 Frc consts  --      5.6692                 5.6879                 5.8732
 IR Inten    --     32.1488                31.6729                26.2090

                     91                     92                     93
                      A                      A                      A
 Frequencies --   3083.1121              3108.7820              3115.3255
 Red. masses --      1.1033                 1.1025                 1.1018
 Frc consts  --      6.1791                 6.2780                 6.3001
 IR Inten    --     27.4845                 1.2351                90.5277

                     94                     95                     96
                      A                      A                      A
 Frequencies --   3120.0149              3121.2282              3123.2986
 Red. masses --      1.1023                 1.1028                 1.1023
 Frc consts  --      6.3223                 6.3301                 6.3356
 IR Inten    --     26.1179                26.1114                27.8974

                     97                     98                     99
                      A                      A                      A
 Frequencies --   3123.5175              3132.6128              3172.4883
 Red. masses --      1.0998                 1.1027                 1.0867
 Frc consts  --      6.3220                 6.3757                 6.4439
 IR Inten    --      9.7008                18.4117                13.4460

                    100                    101                    102
                      A                      A                      A
 Frequencies --   3190.2171              3211.0465              3724.1232
 Red. masses --      1.0943                 1.0877                 1.0660
 Frc consts  --      6.5619                 6.6075                 8.7109
 IR Inten    --     28.2537                 9.0078                 9.8379

 - Thermochemistry -
 -------------------
 Temperature   298.150 Kelvin.  Pressure   1.00000 Atm.
 Atom     1 has atomic number  6 and mass  12.00000

 Molecular mass:   236.12349 amu.
 Principal axes and moments of inertia in atomic units:
                           1         2         3
     Eigenvalues --  2039.973696584.319247637.70014
           X            0.99998  -0.00614  -0.00300
           Y            0.00604   0.99941  -0.03390
           Z            0.00321   0.03388   0.99942
 This molecule is an asymmetric top.
 Rotational symmetry number  1.
 Warning -- assumption of classical behavior for rotation
           may cause significant error
 Rotational temperatures (Kelvin)      0.04246     0.01315     0.01134
 Rotational constants (GHZ):           0.88469     0.27410     0.23629
 Zero-point vibrational energy     823869.0 (Joules/Mol)
                                  196.90943 (Kcal/Mol)
 Warning -- explicit consideration of  26 degrees of freedom as
           vibrations may cause significant error
 Vibrational temperatures:     44.93    67.32   120.38   170.87   187.50
          (Kelvin)            198.88   245.02   315.37   339.62   351.22
                              372.30   389.43   403.22   422.62   446.11
                              489.91   518.06   541.51   587.49   627.84
                              635.01   689.51   715.87   760.04   807.17
                              866.88   947.24   957.94   997.34  1040.29
                             1120.83  1154.12  1219.66  1264.39  1293.12
                             1313.68  1329.16  1344.76  1356.00  1372.35
                             1397.11  1402.72  1456.80  1508.48  1554.14
                             1585.75  1598.26  1633.61  1642.41  1647.06
                             1681.42  1720.51  1737.96  1748.56  1787.28
                             1817.71  1827.35  1854.46  1883.84  1900.43
                             1942.68  1951.06  1961.63  1968.51  2002.10
                             2017.45  2051.91  2070.77  2073.91  2080.40
                             2119.94  2156.88  2165.48  2183.28  2188.81
                             2191.55  2202.42  2204.93  2210.78  2228.49
                             2352.00  2406.79  4360.34  4364.49  4367.31
                             4380.26  4384.17  4386.33  4392.86  4400.67
                             4435.91  4472.84  4482.26  4489.01  4490.75
                             4493.73  4494.05  4507.13  4564.50  4590.01
                             4619.98  5358.18

 Zero-point correction=                           0.313795 (Hartree/Particle)
 Thermal correction to Energy=                    0.330031
 Thermal correction to Enthalpy=                  0.330975
 Thermal correction to Gibbs Free Energy=         0.270457
 Sum of electronic and zero-point Energies=          -1018.715900
 Sum of electronic and thermal Energies=             -1018.699664
 Sum of electronic and thermal Enthalpies=           -1018.698720
 Sum of electronic and thermal Free Energies=        -1018.759238

                     E (Thermal)             CV                S
                      KCal/Mol        Cal/Mol-Kelvin    Cal/Mol-Kelvin
 Total                  207.098             63.590            127.371
 Electronic               0.000              0.000              0.000
 Translational            0.889              2.981             42.279
 Rotational               0.889              2.981             32.995
 Vibrational            205.320             57.628             52.097
 Vibration     1          0.594              1.983              5.750
 Vibration     2          0.595              1.979              4.949
 Vibration     3          0.601              1.960              3.803
 Vibration     4          0.609              1.934              3.120
 Vibration     5          0.612              1.923              2.941
 Vibration     6          0.614              1.915              2.828
 Vibration     7          0.625              1.879              2.432
 Vibration     8          0.647              1.812              1.966
 Vibration     9          0.655              1.786              1.832
 Vibration    10          0.659              1.773              1.773
 Vibration    11          0.668              1.748              1.670
 Vibration    12          0.674              1.727              1.592
 Vibration    13          0.680              1.710              1.532
 Vibration    14          0.689              1.685              1.452
 Vibration    15          0.699              1.655              1.362
 Vibration    16          0.720              1.595              1.210
 Vibration    17          0.735              1.555              1.122
 Vibration    18          0.747              1.520              1.054
 Vibration    19          0.773              1.452              0.933
 Vibration    20          0.797              1.391              0.838
 Vibration    21          0.801              1.380              0.822
 Vibration    22          0.836              1.296              0.712
 Vibration    23          0.853              1.255              0.664
 Vibration    24          0.883              1.187              0.591
 Vibration    25          0.917              1.116              0.522
 Vibration    26          0.961              1.026              0.445

                           ! Non-Optimized Parameters !
 Normal termination of Gaussian 16 at Fri Dec 11 00:27:08 2020.

 ----------------------------------------------------------------------
 # B3LYP/6-311++G(d,p) empiricaldispersion=gd3bj scf=xqc pop=npa geom=c
 heck
 ----------------------------------------------------------------------

 --------------------------------------
 CID_82888329_JID_6979_Energie_neutraal
 --------------------------------------
 Structure from the checkpoint file:  "JID_6979.chk"
 Charge =  0 Multiplicity = 1

 SCF Done:  E(RB3LYP) =  -1019.22919512     A.U. after   15 cycles
 Normal termination of Gaussian 16 at Fri Dec 11 00:33:23 2020.

 ----------------------------------------------------------------------
 # B3LYP/6-311++G(d,p) empiricaldispersion=gd3bj scf=xqc pop=npa geom=c
 heck
 ----------------------------------------------------------------------

 ------------------------------------
 CID_82888329_JID_6979_Energie_kation
 ------------------------------------
 Structure from the checkpoint file:  "JID_6979.chk"
 Charge =  1 Multiplicity = 2

 SCF Done:  E(UB3LYP) =  -1018.94243802     A.U. after   26 cycles
 Normal termination of Gaussian 16 at Fri Dec 11 00:48:40 2020.
 Gaussian 16:  ES64L-G16RevA.03 25-Dec-2016

 ----------------------------------------------------------------------
 # B3LYP/6-311++G(d,p) empiricaldispersion=gd3bj scf=xqc pop=npa geom=c
 heck
 ----------------------------------------------------------------------

 -----------------------------------
 CID_82888329_JID_6979_Energie_anion
 -----------------------------------
 Structure from the checkpoint file:  "JID_6979.chk"
 Charge = -1 Multiplicity = 2

                         Standard orientation:
 ---------------------------------------------------------------------
 Center     Atomic      Atomic             Coordinates (Angstroms)
 Number     Number       Type             X           Y           Z
 ---------------------------------------------------------------------
      1          6           0        4.331359   -0.990966    1.023640
      2          6           0        3.218643   -0.534521    0.076538
      3          6           0        1.984868   -1.434067    0.209191
      4          6           0        0.862749   -1.267382   -0.842052
      5          6           0       -0.129778   -0.153323   -0.521560
      6          6           0        0.263641    1.199637   -0.531835
      7          6           0        1.666067    1.616715   -0.877731
      8         16           0        2.912849    1.246420    0.427127
      9          6           0       -0.678105    2.176538   -0.202705
     10          6           0       -1.989018    1.839304    0.128973
     11          6           0       -2.397901    0.505645    0.124959
     12          6           0       -1.451560   -0.471000   -0.211562
     13          6           0       -3.829345    0.123393    0.458684
     14          6           0       -4.538302   -0.510879   -0.749990
     15          6           0       -3.898816   -0.800524    1.686009
     16          8           0        0.212241   -2.524705   -1.030660
     17          1           0        5.226812   -0.372367    0.909740
     18          1           0        4.601911   -2.031680    0.812417
     19          1           0        4.003581   -0.930342    2.067365
     20          1           0        3.585579   -0.593761   -0.956805
     21          1           0        2.336721   -2.468188    0.094622
     22          1           0        1.563088   -1.334633    1.217798
     23          1           0        1.326868   -1.063818   -1.815615
     24          1           0        1.713122    2.699515   -1.020103
     25          1           0        2.017354    1.155759   -1.808379
     26          1           0       -0.377018    3.221506   -0.206958
     27          1           0       -2.700724    2.621036    0.383196
     28          1           0       -1.759487   -1.509350   -0.265344
     29          1           0       -4.362896    1.049943    0.709633
     30          1           0       -4.052098   -1.448279   -1.043836
     31          1           0       -5.584567   -0.735774   -0.512097
     32          1           0       -4.517748    0.160280   -1.614963
     33          1           0       -3.413206   -0.341449    2.553615
     34          1           0       -4.940408   -1.018798    1.948720
     35          1           0       -3.398406   -1.755747    1.488358
     36          1           0       -0.059008   -2.840345   -0.153471
 ---------------------------------------------------------------------

 SCF Done:  E(UB3LYP) =  -1019.21508740     A.U. after   33 cycles
 SCF Done:  E(UB3LYP) =  -1019.21508740     a.u. after    1 cycles

 The electronic state is 2-A.
 Alpha  occ. eigenvalues --  -88.75029 -19.03432 -10.14340 -10.12348 -10.11992
 Alpha  occ. eigenvalues --  -10.09464 -10.09194 -10.08693 -10.08631 -10.08560
 Alpha  occ. eigenvalues --  -10.08491 -10.08306 -10.07990 -10.07674 -10.06526
 Alpha  occ. eigenvalues --  -10.06237  -7.83673  -5.80058  -5.79718  -5.79025
 Alpha  occ. eigenvalues --   -0.93956  -0.78041  -0.74625  -0.71703  -0.68638
 Alpha  occ. eigenvalues --   -0.67425  -0.64059  -0.62097  -0.58988  -0.56598
 Alpha  occ. eigenvalues --   -0.56028  -0.52071  -0.49912  -0.48528  -0.47111
 Alpha  occ. eigenvalues --   -0.42399  -0.40332  -0.39209  -0.38008  -0.36557
 Alpha  occ. eigenvalues --   -0.36313  -0.34986  -0.34224  -0.33975  -0.32489
 Alpha  occ. eigenvalues --   -0.32405  -0.31885  -0.31674  -0.29888  -0.29241
 Alpha  occ. eigenvalues --   -0.28656  -0.27787  -0.26683  -0.26443  -0.25756
 Alpha  occ. eigenvalues --   -0.24852  -0.23914  -0.23630  -0.23244  -0.22217
 Alpha  occ. eigenvalues --   -0.19331  -0.16094  -0.15348  -0.13576   0.04179
 Alpha virt. eigenvalues --    0.05597   0.06119   0.06760   0.07146   0.07347
 Alpha virt. eigenvalues --    0.07630   0.08276   0.08499   0.09038   0.09635
 Alpha virt. eigenvalues --    0.09961   0.10396   0.10751   0.11227   0.11625

  Beta  occ. eigenvalues --  -88.75027 -19.03403 -10.14335 -10.12339 -10.11986
  Beta  occ. eigenvalues --  -10.09463 -10.09195 -10.08696 -10.08609 -10.08549
  Beta  occ. eigenvalues --  -10.08486 -10.08279 -10.07978 -10.07653 -10.06502
  Beta  occ. eigenvalues --  -10.06204  -7.83671  -5.80056  -5.79715  -5.79022
  Beta  occ. eigenvalues --   -0.93896  -0.78028  -0.74604  -0.71681  -0.68615
  Beta  occ. eigenvalues --   -0.67400  -0.64030  -0.62066  -0.58930  -0.56570
  Beta  occ. eigenvalues --   -0.55982  -0.52034  -0.49870  -0.48490  -0.47077
  Beta  occ. eigenvalues --   -0.42365  -0.40298  -0.39181  -0.37975  -0.36532
  Beta  occ. eigenvalues --   -0.36276  -0.34959  -0.34195  -0.33953  -0.32455
  Beta  occ. eigenvalues --   -0.32377  -0.31850  -0.31635  -0.29860  -0.29210
  Beta  occ. eigenvalues --   -0.28627  -0.27760  -0.26645  -0.26417  -0.25729
  Beta  occ. eigenvalues --   -0.24823  -0.23885  -0.23605  -0.23206  -0.22200
  Beta  occ. eigenvalues --   -0.19303  -0.16069  -0.15335  -0.13566
  Beta virt. eigenvalues --    0.06024   0.06360   0.06694   0.07033   0.07367
  Beta virt. eigenvalues --    0.07688   0.08092   0.08691   0.08808   0.09522
  Beta virt. eigenvalues --    0.09914   0.10419   0.10589   0.10942   0.11173

 Mulliken charges and spin densities:
               1          2
     1  C    0.822134  -1.577018
     2  C   -0.568948   0.810155
     3  C   -0.606201  -0.190716
     4  C   -0.117002   0.582128
     5  C    0.529656   0.023179
     6  C    0.530089   0.307824
     7  C    0.201602  -1.105611
     8  S    0.263888  -0.453701
     9  C   -0.393764  -0.279014
    10  C   -0.542605   0.036322
    11  C    1.716124  -1.273304
    12  C   -0.287773  -0.292393
    13  C   -2.302304   2.413031
    14  C    0.673096  -1.368831
    15  C    0.897007  -1.584368
    16  O   -0.147823  -0.038686
    17  H   -0.094669   0.244325
    18  H   -0.314450   0.451407
    19  H   -0.038801   0.197991
    20  H    0.081619   0.130641
    21  H   -0.022500   0.216505
    22  H    0.060433   0.104153
    23  H    0.053534   0.160712
    24  H    0.094524   0.168774
    25  H    0.170528  -0.027527
    26  H   -0.106224   0.234565
    27  H   -0.309579   0.455131
    28  H    0.551617  -0.437821
    29  H   -0.350748   0.538075
    30  H   -0.207656   0.362068
    31  H   -0.288543   0.437124
    32  H    0.046119   0.083591
    33  H    0.032050   0.103333
    34  H   -0.405000   0.556989
    35  H   -0.400210   0.551719
    36  H   -0.219222   0.459246
 Sum of Mulliken charges =  -1.00000   1.00000

 Dipole moment (field-independent basis, Debye):
    X=              4.1676    Y=              3.9691    Z=             -2.7464  Tot=              6.3769
 Quadrupole moment (field-independent basis, Debye-Ang):
   XX=           -211.3045   YY=           -158.1930   ZZ=           -138.9319
   XY=              1.6944   XZ=              1.7021   YZ=             -0.8501

 Summary of Natural Population Analysis:

                                       Natural Population
                Natural  -----------------------------------------------
    Atom  No    Charge         Core      Valence    Rydberg      Total
 -----------------------------------------------------------------------
      C    1   -0.28906      0.99964     2.28258    0.00685     3.28906
      C    2   -0.16523      0.99957     2.15239    0.01326     3.16523
      C    3   -0.20623      0.99956     2.19577    0.01089     3.20623
      C    4    0.06143      0.99952     1.92476    0.01429     2.93857
      C    5   -0.01878      0.99945     2.00857    0.01076     3.01878
      C    6   -0.03111      0.99946     2.02156    0.01009     3.03111
      C    7   -0.25411      0.99954     2.24466    0.00990     3.25411
      S    8    0.09257      4.99960     2.89206    0.01577     7.90743
      C    9   -0.09277      0.99952     2.08378    0.00947     3.09277
      C   10   -0.09859      0.99951     2.08991    0.00917     3.09859
      C   11   -0.00376      0.99950     1.99263    0.01164     3.00376
      C   12   -0.09819      0.99946     2.08943    0.00930     3.09819
      C   13   -0.11896      0.99958     2.10861    0.01078     3.11896
      C   14   -0.28003      0.99965     2.27436    0.00602     3.28003
      C   15   -0.28002      0.99965     2.27445    0.00592     3.28002
      O   16   -0.36504      0.99990     3.35877    0.00636     4.36504
      H   17    0.10350      0.00000     0.39525    0.00125     0.39650
      H   18    0.10531      0.00000     0.39340    0.00129     0.39469
      H   19    0.10187      0.00000     0.39711    0.00102     0.39813
      H   20    0.09573      0.00000     0.40256    0.00170     0.40427
      H   21    0.10835      0.00000     0.38999    0.00166     0.39165
      H   22    0.10330      0.00000     0.39503    0.00167     0.39670
      H   23    0.08903      0.00000     0.40879    0.00219     0.41097
      H   24    0.10992      0.00000     0.38903    0.00105     0.39008
      H   25    0.10464      0.00000     0.39386    0.00149     0.39536
      H   26    0.09711      0.00000     0.40128    0.00160     0.40289
      H   27    0.10030      0.00000     0.39808    0.00162     0.39970
      H   28    0.10684      0.00000     0.39152    0.00165     0.39316
      H   29    0.09603      0.00000     0.40187    0.00210     0.40397
      H   30    0.09840      0.00000     0.40056    0.00105     0.40160
      H   31    0.09990      0.00000     0.39907    0.00103     0.40010
      H   32    0.09939      0.00000     0.39975    0.00086     0.40061
      H   33    0.10082      0.00000     0.39808    0.00109     0.39918
      H   34    0.09990      0.00000     0.39885    0.00126     0.40010
      H   35    0.09837      0.00000     0.40013    0.00150     0.40163
      H   36    0.22918      0.00000     0.26654    0.00429     0.27082
 =======================================================================
   * Total *   -0.00000     19.99311    43.81503    0.19187    64.00000

 Normal termination of Gaussian 16 at Fri Dec 11 01:07:30 2020.
