 Gaussian 16, Revision A.03,

 -----------------------------------------------------------
 # opt freq B3LYP/6-31G(d) empiricaldispersion=gd3bj scf=xqc
 -----------------------------------------------------------

 -------------------------------
 CID_128730471_JID_8753_neutraal
 -------------------------------
 Symbolic Z-matrix:
 Charge =  0 Multiplicity = 1

 SCF Done:  E(RB3LYP) =  -1106.19840468     A.U. after   15 cycles
 SCF Done:  E(RB3LYP) =  -1106.20798342     A.U. after   13 cycles
 SCF Done:  E(RB3LYP) =  -1106.20953096     A.U. after   12 cycles
 SCF Done:  E(RB3LYP) =  -1106.21033260     A.U. after   12 cycles
 SCF Done:  E(RB3LYP) =  -1106.21071199     A.U. after   12 cycles
 SCF Done:  E(RB3LYP) =  -1106.21090022     A.U. after   12 cycles
 SCF Done:  E(RB3LYP) =  -1106.21094893     A.U. after   10 cycles
 SCF Done:  E(RB3LYP) =  -1106.21096762     A.U. after   11 cycles
 SCF Done:  E(RB3LYP) =  -1106.21097705     A.U. after   11 cycles
 SCF Done:  E(RB3LYP) =  -1106.21097857     A.U. after    9 cycles
 SCF Done:  E(RB3LYP) =  -1106.21097903     A.U. after    8 cycles
 SCF Done:  E(RB3LYP) =  -1106.21097914     A.U. after    7 cycles
 Optimization completed.
    -- Stationary point found.
 Normal termination of Gaussian 16 at Mon Dec 14 16:43:22 2020.

 --------------------------------------------------------------------
 #N Geom=AllCheck Guess=TCheck SCRF=Check GenChk RB3LYP/6-31G(d) Freq
 --------------------------------------------------------------------

 Structure from the checkpoint file:  "JID_8753.chk"
 -------------------------------
 CID_128730471_JID_8753_neutraal
 -------------------------------
 Charge =  0 Multiplicity = 1

 SCF Done:  E(RB3LYP) =  -1106.21097914     A.U. after    1 cycles

  Exact polarizability: 265.316 -13.497 168.549 -20.907  -5.139 120.025
 Approx polarizability: 360.499 -33.773 276.190 -46.180 -11.423 197.973

                      1                      2                      3
                      A                      A                      A
 Frequencies --     24.2643                64.1764                74.9240
 Red. masses --      6.0860                 4.6928                 5.4696
 Frc consts  --      0.0021                 0.0114                 0.0181
 IR Inten    --      0.5547                 1.6638                 0.4380

                      4                      5                      6
                      A                      A                      A
 Frequencies --     79.4932               112.1131               122.8424
 Red. masses --      4.5916                 3.7774                 3.2010
 Frc consts  --      0.0171                 0.0280                 0.0285
 IR Inten    --      1.4551                 0.9055                 2.0251

                      7                      8                      9
                      A                      A                      A
 Frequencies --    146.4628               189.6255               220.3819
 Red. masses --      3.6955                 5.9897                 3.3588
 Frc consts  --      0.0467                 0.1269                 0.0961
 IR Inten    --      2.1966                 5.8344                 0.9317

                     10                     11                     12
                      A                      A                      A
 Frequencies --    237.2565               267.2804               276.4150
 Red. masses --      3.9912                 2.5186                 5.4565
 Frc consts  --      0.1324                 0.1060                 0.2456
 IR Inten    --      0.8868                 2.9129                 0.0705

                     13                     14                     15
                      A                      A                      A
 Frequencies --    300.8353               349.6557               363.2485
 Red. masses --      2.8367                 2.9038                 2.9384
 Frc consts  --      0.1513                 0.2092                 0.2284
 IR Inten    --      0.2995                 1.0942                 0.7420

                     16                     17                     18
                      A                      A                      A
 Frequencies --    394.8742               403.6131               423.9368
 Red. masses --      2.9645                 3.6749                 3.8724
 Frc consts  --      0.2723                 0.3527                 0.4100
 IR Inten    --      3.2220                 1.9060                 2.9097

                     19                     20                     21
                      A                      A                      A
 Frequencies --    483.4681               501.2991               519.1929
 Red. masses --      3.2427                 4.0452                 3.2721
 Frc consts  --      0.4466                 0.5989                 0.5197
 IR Inten    --      0.8326                 1.8963                 3.8257

                     22                     23                     24
                      A                      A                      A
 Frequencies --    540.5863               558.2868               567.5125
 Red. masses --      4.0791                 3.3643                 4.1316
 Frc consts  --      0.7023                 0.6178                 0.7840
 IR Inten    --      6.5994                 2.1546                 3.9724

                     25                     26                     27
                      A                      A                      A
 Frequencies --    572.8579               650.5570               663.0137
 Red. masses --      4.5101                 2.4374                 3.1841
 Frc consts  --      0.8720                 0.6078                 0.8247
 IR Inten    --      2.9536                 1.5298                 0.7173

                     28                     29                     30
                      A                      A                      A
 Frequencies --    674.6998               696.4986               762.9471
 Red. masses --      4.6822                 3.5624                 3.9987
 Frc consts  --      1.2558                 1.0182                 1.3714
 IR Inten    --      1.2899                 1.4744                 3.3838

                     31                     32                     33
                      A                      A                      A
 Frequencies --    778.8513               799.9588               806.0715
 Red. masses --      1.8700                 2.5831                 1.6340
 Frc consts  --      0.6683                 0.9739                 0.6255
 IR Inten    --      5.0447                 7.7240                 3.6268

                     34                     35                     36
                      A                      A                      A
 Frequencies --    824.4220               873.7433               880.1529
 Red. masses --      1.7710                 1.8898                 2.2767
 Frc consts  --      0.7092                 0.8500                 1.0392
 IR Inten    --     30.1633                 1.8750                 5.3924

                     37                     38                     39
                      A                      A                      A
 Frequencies --    895.4799               955.2302               960.5125
 Red. masses --      2.2492                 2.2009                 2.1069
 Frc consts  --      1.0626                 1.1832                 1.1452
 IR Inten    --      1.5934                12.4626                 5.6337

                     40                     41                     42
                      A                      A                      A
 Frequencies --    961.1731               974.0697               978.5015
 Red. masses --      1.4529                 2.5874                 1.3190
 Frc consts  --      0.7908                 1.4464                 0.7441
 IR Inten    --      4.5864                 1.6983                 0.8919

                     43                     44                     45
                      A                      A                      A
 Frequencies --    984.5773               997.5661              1030.1568
 Red. masses --      2.6619                 1.9074                 3.0581
 Frc consts  --      1.5204                 1.1183                 1.9121
 IR Inten    --      1.4304                12.9641                11.9975

                     46                     47                     48
                      A                      A                      A
 Frequencies --   1036.9201              1075.9293              1088.3449
 Red. masses --      2.7437                 1.5007                 1.4563
 Frc consts  --      1.7381                 1.0236                 1.0163
 IR Inten    --      5.4374                 0.3112                 3.3542

                     49                     50                     51
                      A                      A                      A
 Frequencies --   1104.0574              1131.8638              1182.1995
 Red. masses --      3.0865                 2.4192                 1.6329
 Frc consts  --      2.2167                 1.8260                 1.3446
 IR Inten    --      2.0530                15.9489                15.9715

                     52                     53                     54
                      A                      A                      A
 Frequencies --   1198.7644              1210.4076              1222.0916
 Red. masses --      2.1604                 1.6363                 1.4315
 Frc consts  --      1.8291                 1.4125                 1.2597
 IR Inten    --      2.9613                22.7888                 4.0671

                     55                     56                     57
                      A                      A                      A
 Frequencies --   1242.5429              1249.4465              1255.9011
 Red. masses --      1.3937                 1.8409                 1.8805
 Frc consts  --      1.2678                 1.6932                 1.7476
 IR Inten    --     35.6739                79.3441                 2.4725

                     58                     59                     60
                      A                      A                      A
 Frequencies --   1271.6473              1274.9124              1281.8070
 Red. masses --      1.3236                 1.3044                 1.6326
 Frc consts  --      1.2611                 1.2492                 1.5805
 IR Inten    --      7.5908                 2.3547                16.5139

                     61                     62                     63
                      A                      A                      A
 Frequencies --   1298.6653              1314.9719              1315.4641
 Red. masses --      1.4264                 1.7069                 1.6028
 Frc consts  --      1.4174                 1.7390                 1.6341
 IR Inten    --      2.4083                 0.7949                 3.5624

                     64                     65                     66
                      A                      A                      A
 Frequencies --   1345.3043              1351.5173              1364.0398
 Red. masses --      2.1672                 1.2480                 1.5339
 Frc consts  --      2.3109                 1.3431                 1.6815
 IR Inten    --      0.6955                61.2641                59.8801

                     67                     68                     69
                      A                      A                      A
 Frequencies --   1395.3290              1416.2723              1433.7392
 Red. masses --      1.6008                 1.2449                 1.7005
 Frc consts  --      1.8363                 1.4713                 2.0595
 IR Inten    --     14.1591                38.7925                36.0323

                     70                     71                     72
                      A                      A                      A
 Frequencies --   1450.7424              1469.6351              1489.5406
 Red. masses --      2.1784                 2.5005                 1.1287
 Frc consts  --      2.7012                 3.1820                 1.4755
 IR Inten    --      4.7610               178.9646                 9.7911

                     73                     74                     75
                      A                      A                      A
 Frequencies --   1498.9288              1506.4004              1510.8125
 Red. masses --      1.0891                 1.0886                 1.0835
 Frc consts  --      1.4418                 1.4555                 1.4572
 IR Inten    --      4.4934                 0.4895                 3.9479

                     76                     77                     78
                      A                      A                      A
 Frequencies --   1514.4122              1527.1466              1534.4453
 Red. masses --      1.2002                 1.1127                 1.1267
 Frc consts  --      1.6217                 1.5290                 1.5630
 IR Inten    --     38.8405                74.9067                 4.5614

                     79                     80                     81
                      A                      A                      A
 Frequencies --   1556.4666              1591.1884              1668.0203
 Red. masses --      2.6737                 4.6734                 5.8386
 Frc consts  --      3.8163                 6.9715                 9.5712
 IR Inten    --    154.9709               172.7404               488.9911

                     82                     83                     84
                      A                      A                      A
 Frequencies --   2341.6543              2985.5194              3029.5935
 Red. masses --     12.6721                 1.0729                 1.0698
 Frc consts  --     40.9396                 5.6345                 5.7854
 IR Inten    --    112.8961                68.4871                25.6661

                     85                     86                     87
                      A                      A                      A
 Frequencies --   3061.3243              3070.8467              3073.5752
 Red. masses --      1.0609                 1.0598                 1.0669
 Frc consts  --      5.8581                 5.8884                 5.9382
 IR Inten    --     29.5720                22.2384                14.2311

                     88                     89                     90
                      A                      A                      A
 Frequencies --   3083.7872              3091.2084              3112.8869
 Red. masses --      1.0619                 1.0600                 1.0944
 Frc consts  --      5.9500                 5.9677                 6.2483
 IR Inten    --     43.7659                48.8543                 6.6329

                     91                     92                     93
                      A                      A                      A
 Frequencies --   3114.1467              3115.8908              3120.3270
 Red. masses --      1.0970                 1.1001                 1.1069
 Frc consts  --      6.2681                 6.2928                 6.3497
 IR Inten    --     18.0065                11.0487                 8.6545

                     94                     95                     96
                      A                      A                      A
 Frequencies --   3131.7231              3145.7944              3149.9155
 Red. masses --      1.1003                 1.1084                 1.0974
 Frc consts  --      6.3583                 6.4623                 6.4151
 IR Inten    --     18.7357                39.5326                 6.1128

                     97                     98                     99
                      A                      A                      A
 Frequencies --   3183.2392              3214.6127              3245.2742
 Red. masses --      1.0915                 1.0906                 1.0925
 Frc consts  --      6.5167                 6.6400                 6.7794
 IR Inten    --     15.8069                 4.7186                 8.1933

 - Thermochemistry -
 -------------------
 Temperature   298.150 Kelvin.  Pressure   1.00000 Atm.
 Atom     1 has atomic number  6 and mass  12.00000

 Molecular mass:   259.11432 amu.
 Principal axes and moments of inertia in atomic units:
                           1         2         3
     Eigenvalues --  1859.126209881.96698**********
           X            0.99992   0.01205  -0.00237
           Y           -0.01205   0.99992   0.00326
           Z            0.00241  -0.00323   0.99999
 This molecule is an asymmetric top.
 Rotational symmetry number  1.
 Warning -- assumption of classical behavior for rotation
           may cause significant error
 Rotational temperatures (Kelvin)      0.04659     0.00876     0.00813
 Rotational constants (GHZ):           0.97075     0.18263     0.16933
 Zero-point vibrational energy     769162.8 (Joules/Mol)
                                  183.83433 (Kcal/Mol)
 Warning -- explicit consideration of  25 degrees of freedom as
           vibrations may cause significant error
 Vibrational temperatures:     34.91    92.34   107.80   114.37   161.31
          (Kelvin)            176.74   210.73   272.83   317.08   341.36
                              384.56   397.70   432.83   503.08   522.63
                              568.14   580.71   609.95   695.60   721.26
                              747.00   777.78   803.25   816.52   824.21
                              936.01   953.93   970.74  1002.11  1097.71
                             1120.59  1150.96  1159.76  1186.16  1257.12
                             1266.34  1288.40  1374.36  1381.96  1382.91
                             1401.47  1407.85  1416.59  1435.28  1482.17
                             1491.90  1548.02  1565.89  1588.49  1628.50
                             1700.92  1724.75  1741.51  1758.32  1787.74
                             1797.67  1806.96  1829.62  1834.31  1844.23
                             1868.49  1891.95  1892.66  1935.59  1944.53
                             1962.55  2007.57  2037.70  2062.83  2087.29
                             2114.48  2143.12  2156.62  2167.37  2173.72
                             2178.90  2197.22  2207.72  2239.41  2289.37
                             2399.91  3369.12  4295.50  4358.91  4404.56
                             4418.26  4422.19  4436.88  4447.56  4478.75
                             4480.56  4483.07  4489.45  4505.85  4526.10
                             4532.03  4579.97  4625.11  4669.23

 Zero-point correction=                           0.292959 (Hartree/Particle)
 Thermal correction to Energy=                    0.308866
 Thermal correction to Enthalpy=                  0.309810
 Thermal correction to Gibbs Free Energy=         0.248923
 Sum of electronic and zero-point Energies=          -1105.918020
 Sum of electronic and thermal Energies=             -1105.902113
 Sum of electronic and thermal Enthalpies=           -1105.901169
 Sum of electronic and thermal Free Energies=        -1105.962056

                     E (Thermal)             CV                S
                      KCal/Mol        Cal/Mol-Kelvin    Cal/Mol-Kelvin
 Total                  193.816             62.729            128.147
 Electronic               0.000              0.000              0.000
 Translational            0.889              2.981             42.556
 Rotational               0.889              2.981             33.637
 Vibrational            192.039             56.767             51.954
 Vibration     1          0.593              1.985              6.250
 Vibration     2          0.597              1.971              4.324
 Vibration     3          0.599              1.966              4.020
 Vibration     4          0.600              1.963              3.903
 Vibration     5          0.607              1.939              3.232
 Vibration     6          0.610              1.930              3.055
 Vibration     7          0.617              1.907              2.718
 Vibration     8          0.633              1.854              2.231
 Vibration     9          0.647              1.810              1.956
 Vibration    10          0.656              1.784              1.823
 Vibration    11          0.672              1.733              1.614
 Vibration    12          0.678              1.717              1.556
 Vibration    13          0.693              1.672              1.412
 Vibration    14          0.727              1.576              1.168
 Vibration    15          0.737              1.548              1.108
 Vibration    16          0.762              1.481              0.982
 Vibration    17          0.769              1.462              0.949
 Vibration    18          0.786              1.418              0.879
 Vibration    19          0.840              1.287              0.701
 Vibration    20          0.857              1.247              0.655
 Vibration    21          0.874              1.207              0.612
 Vibration    22          0.896              1.160              0.564
 Vibration    23          0.914              1.122              0.527
 Vibration    24          0.923              1.102              0.509
 Vibration    25          0.929              1.090              0.499

 Optimization completed.
    -- Stationary point found.
 Normal termination of Gaussian 16 at Mon Dec 14 17:00:59 2020.

 ----------------------------------------------------------------------
 # B3LYP/6-311++G(d,p) empiricaldispersion=gd3bj scf=xqc pop=npa geom=c
 heck
 ----------------------------------------------------------------------

 ---------------------------------------
 CID_128730471_JID_8753_Energie_neutraal
 ---------------------------------------
 Structure from the checkpoint file:  "JID_8753.chk"
 Charge =  0 Multiplicity = 1

 SCF Done:  E(RB3LYP) =  -1106.41999062     A.U. after   15 cycles
 Normal termination of Gaussian 16 at Mon Dec 14 17:09:02 2020.

 ----------------------------------------------------------------------
 # B3LYP/6-311++G(d,p) empiricaldispersion=gd3bj scf=xqc pop=npa geom=c
 heck
 ----------------------------------------------------------------------

 -------------------------------------
 CID_128730471_JID_8753_Energie_kation
 -------------------------------------
 Structure from the checkpoint file:  "JID_8753.chk"
 Charge =  1 Multiplicity = 2

 SCF Done:  E(UB3LYP) =  -1106.13706591     A.U. after   26 cycles
 Normal termination of Gaussian 16 at Mon Dec 14 17:29:16 2020.
 Gaussian 16:  ES64L-G16RevA.03 25-Dec-2016

 ----------------------------------------------------------------------
 # B3LYP/6-311++G(d,p) empiricaldispersion=gd3bj scf=xqc pop=npa geom=c
 heck
 ----------------------------------------------------------------------

 ------------------------------------
 CID_128730471_JID_8753_Energie_anion
 ------------------------------------
 Structure from the checkpoint file:  "JID_8753.chk"
 Charge = -1 Multiplicity = 2

                         Standard orientation:
 ---------------------------------------------------------------------
 Center     Atomic      Atomic             Coordinates (Angstroms)
 Number     Number       Type             X           Y           Z
 ---------------------------------------------------------------------
      1          6           0       -4.764790   -1.221543   -0.324769
      2          6           0       -3.446954   -1.726750   -0.962609
      3          6           0       -2.656352   -0.681984   -0.118409
      4          6           0       -3.929810   -0.510470    0.769466
      5          6           0       -1.390726   -1.185194    0.565537
      6          6           0       -0.673794   -0.174874    1.474033
      7          7           0        0.144540    0.798058    0.746960
      8          6           0       -0.416589    2.087355    0.366883
      9          6           0       -1.911969    2.043635    0.047224
     10         16           0       -2.373597    0.788863   -1.199672
     11          6           0        1.438325    0.474539    0.438421
     12          7           0        1.810864   -0.802573    0.684685
     13          6           0        3.047820   -1.181250    0.392560
     14          6           0        4.015243   -0.335091   -0.169060
     15          6           0        3.637933    1.001922   -0.400627
     16          6           0        2.359770    1.417700   -0.092873
     17          6           0        5.323496   -0.812367   -0.470401
     18          7           0        6.391989   -1.205266   -0.715106
     19          1           0       -5.284057   -0.508679   -0.969614
     20          1           0       -5.476483   -1.980255    0.011380
     21          1           0       -3.190644   -2.743522   -0.646289
     22          1           0       -3.348618   -1.667638   -2.050712
     23          1           0       -4.226516    0.504819    1.047285
     24          1           0       -3.846749   -1.110941    1.682871
     25          1           0       -1.672515   -2.051294    1.181402
     26          1           0       -0.675523   -1.545248   -0.180168
     27          1           0       -0.010988   -0.717556    2.147952
     28          1           0       -1.392156    0.374712    2.091294
     29          1           0        0.097612    2.427897   -0.534116
     30          1           0       -0.244292    2.842296    1.152424
     31          1           0       -2.199805    3.017373   -0.361155
     32          1           0       -2.520393    1.888796    0.942764
     33          1           0        3.297998   -2.217714    0.609462
     34          1           0        4.359338    1.703862   -0.806391
     35          1           0        2.089974    2.455990   -0.231672
 ---------------------------------------------------------------------

 SCF Done:  E(UB3LYP) =  -1106.42083684     A.U. after   33 cycles
 SCF Done:  E(UB3LYP) =  -1106.42083684     a.u. after    1 cycles

 The electronic state is 2-A.
 Alpha  occ. eigenvalues --  -88.74406 -14.23423 -14.19513 -14.19071 -10.13275
 Alpha  occ. eigenvalues --  -10.12149 -10.11447 -10.11194 -10.10789 -10.10431
 Alpha  occ. eigenvalues --  -10.09330 -10.09018 -10.08636 -10.08539 -10.08397
 Alpha  occ. eigenvalues --  -10.07879 -10.07582 -10.07305  -7.83046  -5.79435
 Alpha  occ. eigenvalues --   -5.79080  -5.78409  -0.87706  -0.81827  -0.78988
 Alpha  occ. eigenvalues --   -0.77813  -0.71020  -0.70003  -0.68312  -0.65750
 Alpha  occ. eigenvalues --   -0.60519  -0.59009  -0.57958  -0.55008  -0.52921
 Alpha  occ. eigenvalues --   -0.50823  -0.48456  -0.45038  -0.43933  -0.43015
 Alpha  occ. eigenvalues --   -0.40705  -0.39980  -0.38554  -0.37219  -0.36541
 Alpha  occ. eigenvalues --   -0.35007  -0.33977  -0.32024  -0.31680  -0.31520
 Alpha  occ. eigenvalues --   -0.31323  -0.30350  -0.29211  -0.28575  -0.27656
 Alpha  occ. eigenvalues --   -0.27025  -0.26282  -0.25359  -0.25237  -0.24499
 Alpha  occ. eigenvalues --   -0.22714  -0.22500  -0.22019  -0.20739  -0.18774
 Alpha  occ. eigenvalues --   -0.18562  -0.15863  -0.13476  -0.10816   0.03634
 Alpha virt. eigenvalues --    0.05698   0.06168   0.07282   0.07304   0.07560
 Alpha virt. eigenvalues --    0.08624   0.08704   0.08926   0.09839   0.09972
 Alpha virt. eigenvalues --    0.10692   0.11026   0.11505   0.12278   0.12551

  Beta  occ. eigenvalues --  -88.74404 -14.23394 -14.19461 -14.18939 -10.13044
  Beta  occ. eigenvalues --  -10.12149 -10.11430 -10.11200 -10.10752 -10.10419
  Beta  occ. eigenvalues --  -10.09318 -10.09016 -10.08629 -10.08443 -10.08372
  Beta  occ. eigenvalues --  -10.07627 -10.07576 -10.07381  -7.83044  -5.79431
  Beta  occ. eigenvalues --   -5.79079  -5.78408  -0.87521  -0.81698  -0.78790
  Beta  occ. eigenvalues --   -0.77797  -0.70803  -0.69843  -0.68233  -0.65601
  Beta  occ. eigenvalues --   -0.60432  -0.58964  -0.57902  -0.54825  -0.52760
  Beta  occ. eigenvalues --   -0.50748  -0.48293  -0.44929  -0.43884  -0.42924
  Beta  occ. eigenvalues --   -0.40622  -0.39947  -0.38474  -0.37109  -0.36465
  Beta  occ. eigenvalues --   -0.34940  -0.33923  -0.31966  -0.31563  -0.31483
  Beta  occ. eigenvalues --   -0.31103  -0.30022  -0.29131  -0.28495  -0.27583
  Beta  occ. eigenvalues --   -0.26954  -0.26156  -0.25123  -0.24963  -0.24258
  Beta  occ. eigenvalues --   -0.22686  -0.22416  -0.21972  -0.20708  -0.18207
  Beta  occ. eigenvalues --   -0.17810  -0.15776  -0.13458  -0.10374
  Beta virt. eigenvalues --    0.05903   0.06720   0.07491   0.07546   0.07701
  Beta virt. eigenvalues --    0.07891   0.08686   0.08934   0.09333   0.09881
  Beta virt. eigenvalues --    0.10131   0.10829   0.11055   0.11669   0.12423

 Mulliken charges and spin densities:
               1          2
     1  C   -0.043722  -0.112828
     2  C   -0.225479  -0.203855
     3  C    0.339128   0.498221
     4  C    0.219461  -0.860272
     5  C   -0.463592   0.103755
     6  C   -0.162093  -0.444841
     7  N    0.281496   0.079003
     8  C    0.213946  -0.388652
     9  C    0.113502  -0.539065
    10  S    0.130802  -0.260343
    11  C   -0.377642   0.004111
    12  N   -0.004559   0.030370
    13  C   -0.525897   0.045534
    14  C    2.003914   0.021125
    15  C   -0.273479   0.312269
    16  C    0.015898  -0.119411
    17  C   -1.933939  -0.035361
    18  N   -0.272856   0.070068
    19  H    0.095819   0.015950
    20  H    0.038698   0.120742
    21  H    0.105023   0.023288
    22  H    0.150608   0.019272
    23  H   -0.133124   0.293461
    24  H   -0.108361   0.252053
    25  H   -0.023812   0.156540
    26  H    0.202964   0.014398
    27  H    0.187870   0.045143
    28  H   -0.241863   0.424731
    29  H    0.233209  -0.165610
    30  H   -0.438883   0.627064
    31  H   -0.450632   0.702029
    32  H    0.068951   0.061155
    33  H    0.156767   0.015055
    34  H    0.163838   0.002804
    35  H   -0.041960   0.192096
 Sum of Mulliken charges =  -1.00000   1.00000

 Dipole moment (field-independent basis, Debye):
    X=             -5.7985    Y=             -1.5605    Z=             -1.1817  Tot=              6.1200
 Quadrupole moment (field-independent basis, Debye-Ang):
   XX=           -231.0718   YY=           -148.5406   ZZ=           -142.7476
   XY=             21.7896   XZ=             12.6619   YZ=             -5.0407

 Summary of Natural Population Analysis:

                                       Natural Population
                Natural  -----------------------------------------------
    Atom  No    Charge         Core      Valence    Rydberg      Total
 -----------------------------------------------------------------------
      C    1   -0.19287      0.99965     2.18452    0.00870     3.19287
      C    2   -0.18697      0.99959     2.17952    0.00786     3.18697
      C    3   -0.08736      0.99953     2.07192    0.01591     3.08736
      C    4   -0.19285      0.99957     2.18321    0.01006     3.19285
      C    5   -0.20223      0.99953     2.19155    0.01114     3.20223
      C    6   -0.08816      0.99960     2.07605    0.01250     3.08816
      N    7   -0.24276      0.99963     2.73187    0.01125     3.74276
      C    8   -0.08211      0.99959     2.07110    0.01142     3.08211
      C    9   -0.26358      0.99959     2.25238    0.01161     3.26358
      S   10    0.09767      4.99954     2.88692    0.01587     7.90233
      C   11    0.25486      0.99953     1.73216    0.01346     2.74514
      N   12   -0.26345      0.99968     2.75465    0.00912     3.76345
      C   13    0.06226      0.99957     1.92490    0.01326     2.93774
      C   14   -0.12906      0.99942     2.12072    0.00892     3.12906
      C   15   -0.00898      0.99955     2.00096    0.00847     3.00898
      C   16   -0.16519      0.99954     2.15681    0.00884     3.16519
      C   17    0.15231      0.99964     1.83033    0.01771     2.84769
      N   18   -0.18545      0.99979     2.67483    0.01083     3.68545
      H   19    0.10037      0.00000     0.39852    0.00111     0.39963
      H   20    0.09448      0.00000     0.40463    0.00089     0.40552
      H   21    0.09917      0.00000     0.39979    0.00104     0.40083
      H   22    0.10020      0.00000     0.39890    0.00090     0.39980
      H   23    0.10244      0.00000     0.39635    0.00121     0.39756
      H   24    0.09934      0.00000     0.39922    0.00144     0.40066
      H   25    0.09819      0.00000     0.40053    0.00128     0.40181
      H   26    0.11304      0.00000     0.38575    0.00121     0.38696
      H   27    0.11389      0.00000     0.38467    0.00144     0.38611
      H   28    0.09635      0.00000     0.40217    0.00147     0.40365
      H   29    0.09909      0.00000     0.39921    0.00170     0.40091
      H   30    0.09696      0.00000     0.40057    0.00247     0.40304
      H   31    0.11312      0.00000     0.38562    0.00126     0.38688
      H   32    0.10573      0.00000     0.39186    0.00242     0.39427
      H   33    0.08894      0.00000     0.41003    0.00104     0.41106
      H   34    0.09858      0.00000     0.40062    0.00080     0.40142
      H   35    0.10402      0.00000     0.39493    0.00105     0.39598
 =======================================================================
   * Total *   -0.00000     21.99253    46.77778    0.22968    69.00000

 Normal termination of Gaussian 16 at Mon Dec 14 17:54:37 2020.
