 Gaussian 16, Revision A.03,

 -----------------------------------------------------------
 # opt freq B3LYP/6-31G(d) empiricaldispersion=gd3bj scf=xqc
 -----------------------------------------------------------

 -------------------------------
 CID_28809628_JID_10146_neutraal
 -------------------------------
 Symbolic Z-matrix:
 Charge =  0 Multiplicity = 1

 SCF Done:  E(RB3LYP) =  -839.620195216     A.U. after   16 cycles
 SCF Done:  E(RB3LYP) =  -839.629416188     A.U. after   13 cycles
 SCF Done:  E(RB3LYP) =  -839.631357464     A.U. after   12 cycles
 SCF Done:  E(RB3LYP) =  -839.632238197     A.U. after   12 cycles
 SCF Done:  E(RB3LYP) =  -839.632462177     A.U. after   12 cycles
 SCF Done:  E(RB3LYP) =  -839.632615380     A.U. after   11 cycles
 SCF Done:  E(RB3LYP) =  -839.632685094     A.U. after   11 cycles
 SCF Done:  E(RB3LYP) =  -839.632708856     A.U. after   10 cycles
 SCF Done:  E(RB3LYP) =  -839.632721439     A.U. after   10 cycles
 SCF Done:  E(RB3LYP) =  -839.632734463     A.U. after    9 cycles
 SCF Done:  E(RB3LYP) =  -839.632753450     A.U. after   10 cycles
 SCF Done:  E(RB3LYP) =  -839.632765560     A.U. after   10 cycles
 SCF Done:  E(RB3LYP) =  -839.632769611     A.U. after    9 cycles
 SCF Done:  E(RB3LYP) =  -839.632769961     A.U. after    8 cycles
 Optimization completed.
    -- Stationary point found.
 Normal termination of Gaussian 16 at Mon Dec 14 17:31:09 2020.

 --------------------------------------------------------------------
 #N Geom=AllCheck Guess=TCheck SCRF=Check GenChk RB3LYP/6-31G(d) Freq
 --------------------------------------------------------------------

 Structure from the checkpoint file:  "JID_10146.chk"
 -------------------------------
 CID_28809628_JID_10146_neutraal
 -------------------------------
 Charge =  0 Multiplicity = 1

 SCF Done:  E(RB3LYP) =  -839.632769961     A.U. after    1 cycles

  Exact polarizability: 310.473  25.830 212.496   0.935  -2.699 102.994
 Approx polarizability: 454.280  61.264 351.428  -3.516  -8.890 161.346

                      1                      2                      3
                      A                      A                      A
 Frequencies --     37.9293                47.4059                54.1764
 Red. masses --      4.3853                 3.4515                 4.9954
 Frc consts  --      0.0037                 0.0046                 0.0086
 IR Inten    --      1.2100                 1.8632                 0.6054

                      4                      5                      6
                      A                      A                      A
 Frequencies --     81.7625                94.8726               128.6839
 Red. masses --      1.5934                 1.8688                 5.6200
 Frc consts  --      0.0063                 0.0099                 0.0548
 IR Inten    --      1.2042                 0.5869                 1.7290

                      7                      8                      9
                      A                      A                      A
 Frequencies --    154.9814               162.4857               171.2362
 Red. masses --      4.5573                 1.4966                 2.5790
 Frc consts  --      0.0645                 0.0233                 0.0446
 IR Inten    --      7.2152                 2.5242                 1.8820

                     10                     11                     12
                      A                      A                      A
 Frequencies --    202.8807               222.7944               241.2267
 Red. masses --      2.3500                 3.0854                 3.8121
 Frc consts  --      0.0570                 0.0902                 0.1307
 IR Inten    --      0.9886                 1.7557                 1.7864

                     13                     14                     15
                      A                      A                      A
 Frequencies --    260.3000               277.5773               300.8939
 Red. masses --      2.4840                 2.6456                 3.6147
 Frc consts  --      0.0992                 0.1201                 0.1928
 IR Inten    --      2.4119                 2.7495                 6.3447

                     16                     17                     18
                      A                      A                      A
 Frequencies --    305.4133               338.2913               375.1189
 Red. masses --      3.7057                 4.2717                 5.7638
 Frc consts  --      0.2037                 0.2880                 0.4779
 IR Inten    --      2.7850                 1.6010                 0.4875

                     19                     20                     21
                      A                      A                      A
 Frequencies --    408.0291               426.1801               446.2597
 Red. masses --      2.5006                 2.8783                 3.8147
 Frc consts  --      0.2453                 0.3080                 0.4476
 IR Inten    --     17.1367                 7.0316                 0.3916

                     22                     23                     24
                      A                      A                      A
 Frequencies --    472.6679               479.7992               512.0285
 Red. masses --      4.1877                 2.8578                 4.0192
 Frc consts  --      0.5512                 0.3876                 0.6208
 IR Inten    --      3.7701                 1.9312                 0.4298

                     25                     26                     27
                      A                      A                      A
 Frequencies --    539.8848               542.6032               573.5219
 Red. masses --      5.1785                 4.4820                 4.2666
 Frc consts  --      0.8893                 0.7775                 0.8269
 IR Inten    --      2.8702                 2.6219                 1.5356

                     28                     29                     30
                      A                      A                      A
 Frequencies --    576.6030               598.3111               611.4139
 Red. masses --      5.0857                 2.2582                 3.1567
 Frc consts  --      0.9962                 0.4763                 0.6953
 IR Inten    --      0.0605                 3.3118                 0.9241

                     31                     32                     33
                      A                      A                      A
 Frequencies --    671.9226               690.3421               724.7579
 Red. masses --      5.7637                 8.1976                 3.8591
 Frc consts  --      1.5332                 2.3018                 1.1943
 IR Inten    --      3.3938                 2.2733                 8.6867

                     34                     35                     36
                      A                      A                      A
 Frequencies --    745.9799               788.2606               819.4752
 Red. masses --      6.7468                 4.5459                 2.1646
 Frc consts  --      2.2121                 1.6642                 0.8565
 IR Inten    --      4.9904                 1.6186               179.9737

                     37                     38                     39
                      A                      A                      A
 Frequencies --    849.4994               852.0310               877.0705
 Red. masses --      1.5962                 3.9452                 1.3053
 Frc consts  --      0.6787                 1.6875                 0.5916
 IR Inten    --      0.5200                 4.7694                12.9789

                     40                     41                     42
                      A                      A                      A
 Frequencies --    883.4034               907.5052               935.2248
 Red. masses --      2.0734                 1.4170                 2.3166
 Frc consts  --      0.9534                 0.6876                 1.1938
 IR Inten    --     74.5006                 2.3820                 0.2804

                     43                     44                     45
                      A                      A                      A
 Frequencies --    946.8765               950.2247               988.3670
 Red. masses --      1.4256                 2.7416                 4.6755
 Frc consts  --      0.7531                 1.4585                 2.6910
 IR Inten    --     14.9133                 6.7120                 3.6897

                     46                     47                     48
                      A                      A                      A
 Frequencies --    999.9295              1037.4069              1042.5338
 Red. masses --      1.8357                 2.2726                 1.5907
 Frc consts  --      1.0814                 1.4410                 1.0187
 IR Inten    --      6.2474                 4.2939                 6.1316

                     49                     50                     51
                      A                      A                      A
 Frequencies --   1048.6737              1057.1274              1075.4594
 Red. masses --      1.4882                 2.3862                 1.5374
 Frc consts  --      0.9642                 1.5711                 1.0477
 IR Inten    --     10.4317                 9.1941                 6.2559

                     52                     53                     54
                      A                      A                      A
 Frequencies --   1077.2872              1110.0010              1151.8050
 Red. masses --      1.5151                 2.3895                 3.8668
 Frc consts  --      1.0360                 1.7346                 3.0225
 IR Inten    --      0.0915                 2.7244                32.7298

                     55                     56                     57
                      A                      A                      A
 Frequencies --   1167.0524              1178.3739              1194.7375
 Red. masses --      2.3929                 2.5362                 2.8988
 Frc consts  --      1.9202                 2.0749                 2.4379
 IR Inten    --     20.7084                14.9149                 9.6067

                     58                     59                     60
                      A                      A                      A
 Frequencies --   1207.8971              1221.2051              1257.9060
 Red. masses --      2.2126                 1.2611                 1.9069
 Frc consts  --      1.9020                 1.1081                 1.7778
 IR Inten    --     17.7640                 6.6432                32.9852

                     61                     62                     63
                      A                      A                      A
 Frequencies --   1284.6460              1293.1582              1299.6746
 Red. masses --      1.5650                 1.5376                 1.8395
 Frc consts  --      1.5217                 1.5149                 1.8307
 IR Inten    --    146.0732                20.2221                40.3079

                     64                     65                     66
                      A                      A                      A
 Frequencies --   1355.3240              1359.2424              1371.3420
 Red. masses --      3.9606                 1.4268                 1.2862
 Frc consts  --      4.2864                 1.5531                 1.4251
 IR Inten    --      4.5133                31.3461                 0.8869

                     67                     68                     69
                      A                      A                      A
 Frequencies --   1377.1548              1390.3361              1402.9695
 Red. masses --      1.7047                 1.5820                 2.8787
 Frc consts  --      1.9049                 1.8017                 3.3385
 IR Inten    --     52.2314                 3.2211                11.5042

                     70                     71                     72
                      A                      A                      A
 Frequencies --   1419.4774              1423.7569              1431.4164
 Red. masses --      1.3927                 1.6213                 2.6978
 Frc consts  --      1.6533                 1.9363                 3.2568
 IR Inten    --      1.1583                39.8430                78.7932

                     73                     74                     75
                      A                      A                      A
 Frequencies --   1442.2973              1445.7877              1472.4724
 Red. masses --      1.3430                 1.4259                 3.4263
 Frc consts  --      1.6461                 1.7561                 4.3770
 IR Inten    --      6.8189                 7.7500               176.8659

                     76                     77                     78
                      A                      A                      A
 Frequencies --   1483.5061              1499.1127              1504.3537
 Red. masses --      2.8677                 1.0797                 1.1568
 Frc consts  --      3.7185                 1.4296                 1.5424
 IR Inten    --     44.2507                 0.2318                10.9415

                     79                     80                     81
                      A                      A                      A
 Frequencies --   1510.6339              1512.3959              1515.4939
 Red. masses --      1.1452                 1.0445                 1.0445
 Frc consts  --      1.5398                 1.4076                 1.4135
 IR Inten    --     19.0857                 8.0636                 6.3260

                     82                     83                     84
                      A                      A                      A
 Frequencies --   1518.5411              1519.4744              1525.8658
 Red. masses --      1.1957                 1.4289                 1.2271
 Frc consts  --      1.6245                 1.9437                 1.6832
 IR Inten    --     11.8513               101.6919                 5.8403

                     85                     86                     87
                      A                      A                      A
 Frequencies --   1533.3553              1538.8296              1610.4971
 Red. masses --      1.3580                 1.7582                 7.1913
 Frc consts  --      1.8813                 2.4531                10.9895
 IR Inten    --     12.8970                77.0140                61.7681

                     88                     89                     90
                      A                      A                      A
 Frequencies --   1651.5930              1681.1885              2334.9917
 Red. masses --      6.2699                 5.9734                12.6736
 Frc consts  --     10.0767                 9.9472                40.7118
 IR Inten    --    315.6524                87.8212                66.0285

                     91                     92                     93
                      A                      A                      A
 Frequencies --   2963.0186              2983.7711              3043.7943
 Red. masses --      1.0748                 1.0737                 1.0386
 Frc consts  --      5.5597                 5.6322                 5.6692
 IR Inten    --     59.5893                61.9490                26.4493

                     94                     95                     96
                      A                      A                      A
 Frequencies --   3044.5787              3051.7649              3060.6204
 Red. masses --      1.0380                 1.0607                 1.0608
 Frc consts  --      5.6689                 5.8203                 5.8549
 IR Inten    --     29.6007                41.4385                33.6797

                     97                     98                     99
                      A                      A                      A
 Frequencies --   3094.5489              3095.7075              3100.9700
 Red. masses --      1.1006                 1.1005                 1.1051
 Frc consts  --      6.2098                 6.2140                 6.2609
 IR Inten    --     15.0413                18.8472                37.6197

                    100                    101                    102
                      A                      A                      A
 Frequencies --   3108.7112              3135.0947              3135.2481
 Red. masses --      1.1062                 1.0998                 1.1006
 Frc consts  --      6.2987                 6.3691                 6.3740
 IR Inten    --     37.4649                12.8094                18.0126

                    103                    104                    105
                      A                      A                      A
 Frequencies --   3145.3607              3174.0437              3177.1899
 Red. masses --      1.0895                 1.0876                 1.0899
 Frc consts  --      6.3506                 6.4557                 6.4824
 IR Inten    --     10.6931                 5.4177                22.2263

                    106                    107                    108
                      A                      A                      A
 Frequencies --   3209.8292              3221.4624              3460.7006
 Red. masses --      1.0912                 1.0911                 1.0735
 Frc consts  --      6.6238                 6.6713                 7.5751
 IR Inten    --      7.4780                 2.7788                 2.8281

 - Thermochemistry -
 -------------------
 Temperature   298.150 Kelvin.  Pressure   1.00000 Atm.
 Atom     1 has atomic number  6 and mass  12.00000

 Molecular mass:   266.15315 amu.
 Principal axes and moments of inertia in atomic units:
                           1         2         3
     Eigenvalues --  2720.172159059.03379**********
           X            0.99997  -0.00786   0.00195
           Y            0.00785   0.99995   0.00670
           Z           -0.00201  -0.00668   0.99998
 This molecule is an asymmetric top.
 Rotational symmetry number  1.
 Warning -- assumption of classical behavior for rotation
           may cause significant error
 Rotational temperatures (Kelvin)      0.03184     0.00956     0.00754
 Rotational constants (GHZ):           0.66347     0.19922     0.15702
 Zero-point vibrational energy     837499.4 (Joules/Mol)
                                  200.16717 (Kcal/Mol)
 Warning -- explicit consideration of  30 degrees of freedom as
           vibrations may cause significant error
 Vibrational temperatures:     54.57    68.21    77.95   117.64   136.50
          (Kelvin)            185.15   222.98   233.78   246.37   291.90
                              320.55   347.07   374.51   399.37   432.92
                              439.42   486.73   539.71   587.06   613.18
                              642.07   680.06   690.32   736.69   776.77
                              780.68   825.17   829.60   860.84   879.69
                              966.75   993.25  1042.77  1073.30  1134.13
                             1179.04  1222.24  1225.88  1261.91  1271.02
                             1305.70  1345.58  1362.34  1367.16  1422.04
                             1438.68  1492.60  1499.97  1508.81  1520.97
                             1547.35  1549.98  1597.04  1657.19  1679.13
                             1695.42  1718.96  1737.89  1757.04  1809.85
                             1848.32  1860.57  1869.94  1950.01  1955.65
                             1973.06  1981.42  2000.38  2018.56  2042.31
                             2048.47  2059.49  2075.14  2080.17  2118.56
                             2134.43  2156.89  2164.43  2173.47  2176.00
                             2180.46  2184.84  2186.18  2195.38  2206.16
                             2214.03  2317.15  2376.27  2418.86  3359.53
                             4263.12  4292.98  4379.34  4380.47  4390.81
                             4403.55  4452.37  4454.03  4461.60  4472.74
                             4510.70  4510.92  4525.47  4566.74  4571.27
                             4618.23  4634.97  4979.18

 Zero-point correction=                           0.318987 (Hartree/Particle)
 Thermal correction to Energy=                    0.336665
 Thermal correction to Enthalpy=                  0.337609
 Thermal correction to Gibbs Free Energy=         0.273241
 Sum of electronic and zero-point Energies=           -839.313783
 Sum of electronic and thermal Energies=              -839.296105
 Sum of electronic and thermal Enthalpies=            -839.295161
 Sum of electronic and thermal Free Energies=         -839.359529

                     E (Thermal)             CV                S
                      KCal/Mol        Cal/Mol-Kelvin    Cal/Mol-Kelvin
 Total                  211.260             68.930            135.473
 Electronic               0.000              0.000              0.000
 Translational            0.889              2.981             42.636
 Rotational               0.889              2.981             34.004
 Vibrational            209.483             62.969             58.834
 Vibration     1          0.594              1.982              5.364
 Vibration     2          0.595              1.979              4.923
 Vibration     3          0.596              1.976              4.659
 Vibration     4          0.600              1.962              3.848
 Vibration     5          0.603              1.953              3.557
 Vibration     6          0.611              1.925              2.966
 Vibration     7          0.620              1.897              2.610
 Vibration     8          0.623              1.888              2.521
 Vibration     9          0.626              1.878              2.422
 Vibration    10          0.639              1.836              2.107
 Vibration    11          0.648              1.806              1.936
 Vibration    12          0.658              1.777              1.794
 Vibration    13          0.668              1.745              1.660
 Vibration    14          0.679              1.715              1.549
 Vibration    15          0.693              1.672              1.412
 Vibration    16          0.696              1.663              1.387
 Vibration    17          0.719              1.599              1.220
 Vibration    18          0.746              1.523              1.059
 Vibration    19          0.773              1.453              0.934
 Vibration    20          0.788              1.413              0.871
 Vibration    21          0.806              1.369              0.807
 Vibration    22          0.830              1.311              0.730
 Vibration    23          0.836              1.295              0.711
 Vibration    24          0.867              1.223              0.629
 Vibration    25          0.895              1.162              0.566
 Vibration    26          0.898              1.156              0.560
 Vibration    27          0.930              1.089              0.498
 Vibration    28          0.933              1.082              0.492
 Vibration    29          0.956              1.035              0.453
 Vibration    30          0.971              1.008              0.430

 Optimization completed.
    -- Stationary point found.
 Normal termination of Gaussian 16 at Mon Dec 14 17:49:27 2020.

 ----------------------------------------------------------------------
 # B3LYP/6-311++G(d,p) empiricaldispersion=gd3bj scf=xqc pop=npa geom=c
 heck
 ----------------------------------------------------------------------

 ---------------------------------------
 CID_28809628_JID_10146_Energie_neutraal
 ---------------------------------------
 Structure from the checkpoint file:  "JID_10146.chk"
 Charge =  0 Multiplicity = 1

 SCF Done:  E(RB3LYP) =  -839.848318824     A.U. after   16 cycles
 Normal termination of Gaussian 16 at Mon Dec 14 17:57:14 2020.

 ----------------------------------------------------------------------
 # B3LYP/6-311++G(d,p) empiricaldispersion=gd3bj scf=xqc pop=npa geom=c
 heck
 ----------------------------------------------------------------------

 -------------------------------------
 CID_28809628_JID_10146_Energie_kation
 -------------------------------------
 Structure from the checkpoint file:  "JID_10146.chk"
 Charge =  1 Multiplicity = 2

 SCF Done:  E(UB3LYP) =  -839.574280168     A.U. after   27 cycles
 Normal termination of Gaussian 16 at Mon Dec 14 18:15:34 2020.
 Gaussian 16:  ES64L-G16RevA.03 25-Dec-2016

 ----------------------------------------------------------------------
 # B3LYP/6-311++G(d,p) empiricaldispersion=gd3bj scf=xqc pop=npa geom=c
 heck
 ----------------------------------------------------------------------

 ------------------------------------
 CID_28809628_JID_10146_Energie_anion
 ------------------------------------
 Structure from the checkpoint file:  "JID_10146.chk"
 Charge = -1 Multiplicity = 2

                         Standard orientation:
 ---------------------------------------------------------------------
 Center     Atomic      Atomic             Coordinates (Angstroms)
 Number     Number       Type             X           Y           Z
 ---------------------------------------------------------------------
      1          6           0       -4.728652   -2.568820    0.040852
      2          6           0       -3.726243   -1.443531    0.030203
      3          6           0       -4.188501   -0.098437    0.040513
      4          6           0       -3.328556    0.977440    0.029998
      5          6           0       -1.921752    0.724331    0.010673
      6          6           0       -0.946462    1.740934   -0.046666
      7          6           0        0.400451    1.427931   -0.067510
      8          6           0        0.792358    0.036864    0.014808
      9          7           0       -0.112940   -0.925266    0.028575
     10          6           0       -1.438655   -0.621078    0.008323
     11          6           0       -2.370025   -1.688472    0.012870
     12          7           0        2.130026   -0.321936   -0.000161
     13          6           0        2.450534   -1.732469   -0.233578
     14          6           0        3.884861   -1.839178   -0.766430
     15          7           0        4.890758   -1.192434    0.078956
     16          6           0        4.501563    0.186286    0.381215
     17          6           0        3.077641    0.310419    0.930308
     18          6           0        1.343084    2.476653   -0.285565
     19          7           0        2.096371    3.343425   -0.479421
     20          6           0       -3.854579    2.390412    0.034893
     21          1           0       -5.364304   -2.522176    0.933824
     22          1           0       -4.235145   -3.544574    0.026545
     23          1           0       -5.394660   -2.511592   -0.829041
     24          1           0       -5.261002    0.081882    0.056173
     25          1           0       -1.241371    2.782357   -0.115146
     26          1           0       -1.976836   -2.700139    0.010371
     27          1           0        2.342223   -2.312818    0.698760
     28          1           0        1.733672   -2.138381   -0.948682
     29          1           0        3.927839   -1.366873   -1.755970
     30          1           0        4.152944   -2.894243   -0.891189
     31          1           0        4.966513   -1.710921    0.954739
     32          1           0        4.571453    0.773293   -0.542570
     33          1           0        5.213175    0.608219    1.099030
     34          1           0        2.824031    1.358070    1.081715
     35          1           0        3.011901   -0.196983    1.909748
     36          1           0       -3.492204    2.954544    0.902944
     37          1           0       -3.542714    2.941226   -0.861288
     38          1           0       -4.947426    2.396866    0.064948
 ---------------------------------------------------------------------

 SCF Done:  E(UB3LYP) =  -839.874854561     A.U. after   23 cycles

 The electronic state is 2-A.
 Alpha  occ. eigenvalues --  -14.21298 -14.20946 -14.16125 -14.15365 -10.11562
 Alpha  occ. eigenvalues --  -10.09969 -10.09745 -10.09455 -10.09007 -10.06585
 Alpha  occ. eigenvalues --  -10.06559 -10.05848 -10.05328 -10.04957 -10.04432
 Alpha  occ. eigenvalues --  -10.04252 -10.03974 -10.03612 -10.02757 -10.02496
 Alpha  occ. eigenvalues --   -0.85867  -0.81793  -0.77891  -0.76417  -0.71894
 Alpha  occ. eigenvalues --   -0.67929  -0.66642  -0.65087  -0.63299  -0.59172
 Alpha  occ. eigenvalues --   -0.57079  -0.56550  -0.54505  -0.51031  -0.49731
 Alpha  occ. eigenvalues --   -0.47328  -0.44901  -0.42666  -0.41404  -0.38506
 Alpha  occ. eigenvalues --   -0.37279  -0.36152  -0.35541  -0.34989  -0.34550
 Alpha  occ. eigenvalues --   -0.33023  -0.31914  -0.31362  -0.30416  -0.30203
 Alpha  occ. eigenvalues --   -0.29555  -0.28588  -0.28188  -0.27457  -0.26834
 Alpha  occ. eigenvalues --   -0.26011  -0.25827  -0.25659  -0.24978  -0.23255
 Alpha  occ. eigenvalues --   -0.22898  -0.22222  -0.21666  -0.20087  -0.19324
 Alpha  occ. eigenvalues --   -0.16254  -0.15491  -0.13367  -0.12491  -0.10000
 Alpha  occ. eigenvalues --   -0.08801   0.02780
 Alpha virt. eigenvalues --    0.06859   0.07620   0.08581   0.08754   0.09400
 Alpha virt. eigenvalues --    0.09865   0.10178   0.10883   0.11243   0.11523
 Alpha virt. eigenvalues --    0.11951   0.12317   0.12651   0.12935   0.13254

  Beta  occ. eigenvalues --  -14.21300 -14.20944 -14.15920 -14.15136 -10.11613
  Beta  occ. eigenvalues --  -10.09969 -10.09744 -10.09454 -10.09007 -10.06562
  Beta  occ. eigenvalues --  -10.06487 -10.05867 -10.05347 -10.04751 -10.04160
  Beta  occ. eigenvalues --  -10.04087 -10.03996 -10.03682 -10.02463 -10.02246
  Beta  occ. eigenvalues --   -0.85813  -0.81688  -0.77694  -0.76104  -0.71571
  Beta  occ. eigenvalues --   -0.67377  -0.66583  -0.64674  -0.63077  -0.59076
  Beta  occ. eigenvalues --   -0.56923  -0.56413  -0.54480  -0.50989  -0.49145
  Beta  occ. eigenvalues --   -0.47213  -0.44607  -0.42485  -0.41152  -0.38361
  Beta  occ. eigenvalues --   -0.37241  -0.36123  -0.35507  -0.34888  -0.34466
  Beta  occ. eigenvalues --   -0.32923  -0.31822  -0.31023  -0.30150  -0.30079
  Beta  occ. eigenvalues --   -0.29450  -0.28443  -0.28040  -0.26963  -0.26620
  Beta  occ. eigenvalues --   -0.25963  -0.25743  -0.25500  -0.24956  -0.22980
  Beta  occ. eigenvalues --   -0.22084  -0.21987  -0.21504  -0.19502  -0.19172
  Beta  occ. eigenvalues --   -0.15190  -0.14431  -0.13176  -0.12235  -0.08541
  Beta  occ. eigenvalues --   -0.08158
  Beta virt. eigenvalues --    0.06846   0.07596   0.08554   0.08642   0.08733
  Beta virt. eigenvalues --    0.09408   0.09980   0.10234   0.10878   0.11280
  Beta virt. eigenvalues --    0.11630   0.11949   0.12323   0.12764   0.12951

 Mulliken charges and spin densities:
               1          2
     1  C   -0.339924  -0.008143
     2  C    0.716956   0.176728
     3  C   -0.790157  -0.070961
     4  C    0.720903   0.171879
     5  C    1.011450  -0.064577
     6  C    0.161961   0.454473
     7  C    1.400022   0.146193
     8  C   -1.058232  -0.082782
     9  N   -0.055898   0.100426
    10  C   -0.882429   0.059427
    11  C   -1.011776   0.001808
    12  N    0.369952   0.009803
    13  C   -0.082491   0.005647
    14  C   -0.581528  -0.003641
    15  N   -0.100598   0.000360
    16  C   -0.506391   0.000090
    17  C   -0.195857   0.001611
    18  C   -1.359400  -0.015081
    19  N   -0.305400   0.108315
    20  C   -0.658089  -0.026321
    21  H    0.133239   0.008689
    22  H    0.130267   0.000571
    23  H    0.132461   0.009548
    24  H    0.047521   0.003225
    25  H    0.144113  -0.031804
    26  H    0.105617  -0.003994
    27  H    0.135373  -0.000201
    28  H    0.168218  -0.000167
    29  H    0.169962  -0.000795
    30  H    0.154129   0.002450
    31  H    0.208998   0.001724
    32  H    0.189524   0.000737
    33  H    0.154101  -0.000497
    34  H    0.158878   0.000777
    35  H    0.133894  -0.000415
    36  H    0.125611   0.024005
    37  H    0.128107   0.020182
    38  H    0.126911   0.000711
 Sum of Mulliken charges =  -1.00000   1.00000

 Dipole moment (field-independent basis, Debye):
    X=              0.2181    Y=             -4.6471    Z=              1.5740  Tot=              4.9112
 Quadrupole moment (field-independent basis, Debye-Ang):
   XX=           -168.8737   YY=           -153.4065   ZZ=           -127.6318
   XY=            -15.2017   XZ=              7.2578   YZ=              3.5252

 Summary of Natural Population Analysis:

                                       Natural Population
                Natural  -----------------------------------------------
    Atom  No    Charge         Core      Valence    Rydberg      Total
 -----------------------------------------------------------------------
      C    1   -0.29144      0.99965     2.28726    0.00454     3.29144
      C    2    0.03062      0.99952     1.96176    0.00810     2.96938
      C    3   -0.13349      0.99948     2.12573    0.00828     3.13349
      C    4    0.03243      0.99955     1.95488    0.01314     2.96757
      C    5   -0.01695      0.99946     2.00804    0.00945     3.01695
      C    6    0.03648      0.99957     1.94976    0.01419     2.96352
      C    7   -0.10076      0.99937     2.09101    0.01038     3.10076
      C    8    0.22084      0.99952     1.76239    0.01725     2.77916
      N    9   -0.24293      0.99964     2.73329    0.01000     3.74293
      C   10    0.10173      0.99955     1.88318    0.01554     2.89827
      C   11   -0.10904      0.99948     2.10102    0.00854     3.10904
      N   12   -0.26831      0.99963     2.75482    0.01385     3.76831
      C   13   -0.09256      0.99963     2.08389    0.00904     3.09256
      C   14   -0.09332      0.99963     2.08329    0.01040     3.09332
      N   15   -0.33711      0.99977     2.82541    0.01193     3.83711
      C   16   -0.09347      0.99963     2.08366    0.01017     3.09347
      C   17   -0.09156      0.99961     2.08283    0.00912     3.09156
      C   18    0.15005      0.99965     1.83091    0.01939     2.84995
      N   19   -0.18727      0.99979     2.67638    0.01110     3.68727
      C   20   -0.29566      0.99965     2.29153    0.00449     3.29566
      H   21    0.09750      0.00000     0.40141    0.00108     0.40250
      H   22    0.09659      0.00000     0.40254    0.00088     0.40341
      H   23    0.09757      0.00000     0.40134    0.00109     0.40243
      H   24    0.08693      0.00000     0.41197    0.00111     0.41307
      H   25    0.09263      0.00000     0.40636    0.00101     0.40737
      H   26    0.09394      0.00000     0.40449    0.00157     0.40606
      H   27    0.08050      0.00000     0.41637    0.00312     0.41950
      H   28    0.11378      0.00000     0.38523    0.00098     0.38622
      H   29    0.09194      0.00000     0.40672    0.00134     0.40806
      H   30    0.08956      0.00000     0.40935    0.00109     0.41044
      H   31    0.16508      0.00000     0.33311    0.00181     0.33492
      H   32    0.09757      0.00000     0.40113    0.00130     0.40243
      H   33    0.09111      0.00000     0.40791    0.00098     0.40889
      H   34    0.11579      0.00000     0.38297    0.00124     0.38421
      H   35    0.07481      0.00000     0.42254    0.00265     0.42519
      H   36    0.10247      0.00000     0.39641    0.00112     0.39753
      H   37    0.10240      0.00000     0.39649    0.00112     0.39760
      H   38    0.09457      0.00000     0.40449    0.00094     0.40543
 =======================================================================
   * Total *    0.00299     19.99176    50.76191    0.24333    70.99701

 Normal termination of Gaussian 16 at Mon Dec 14 18:31:04 2020.
