 Gaussian 16, Revision A.03,

 -----------------------------------------------------------
 # opt freq B3LYP/6-31G(d) empiricaldispersion=gd3bj scf=xqc
 -----------------------------------------------------------

 -------------------------------
 CID_116606835_JID_5199_neutraal
 -------------------------------
 Symbolic Z-matrix:
 Charge =  0 Multiplicity = 1

 SCF Done:  E(RB3LYP) =  -638.026074768     A.U. after   14 cycles
 SCF Done:  E(RB3LYP) =  -638.030920354     A.U. after   13 cycles
 SCF Done:  E(RB3LYP) =  -638.031154891     A.U. after   12 cycles
 SCF Done:  E(RB3LYP) =  -638.031143587     A.U. after   12 cycles
 SCF Done:  E(RB3LYP) =  -638.031286577     A.U. after   13 cycles
 SCF Done:  E(RB3LYP) =  -638.032069977     A.U. after   12 cycles
 SCF Done:  E(RB3LYP) =  -638.032060040     A.U. after   12 cycles
 SCF Done:  E(RB3LYP) =  -638.032569995     A.U. after   13 cycles
 SCF Done:  E(RB3LYP) =  -638.032661682     A.U. after   13 cycles
 SCF Done:  E(RB3LYP) =  -638.032701439     A.U. after   12 cycles
 SCF Done:  E(RB3LYP) =  -638.032728617     A.U. after    8 cycles
 SCF Done:  E(RB3LYP) =  -638.032729193     A.U. after   10 cycles
 SCF Done:  E(RB3LYP) =  -638.032729341     A.U. after    8 cycles
 SCF Done:  E(RB3LYP) =  -638.032729376     A.U. after    7 cycles
 SCF Done:  E(RB3LYP) =  -638.032729374     A.U. after    6 cycles
 Optimization completed.
    -- Stationary point found.
 Normal termination of Gaussian 16 at Thu Dec 10 15:05:24 2020.

 --------------------------------------------------------------------
 #N Geom=AllCheck Guess=TCheck SCRF=Check GenChk RB3LYP/6-31G(d) Freq
 --------------------------------------------------------------------

 Structure from the checkpoint file:  "JID_5199.chk"
 -------------------------------
 CID_116606835_JID_5199_neutraal
 -------------------------------
 Charge =  0 Multiplicity = 1

 SCF Done:  E(RB3LYP) =  -638.032729374     A.U. after    1 cycles

  Exact polarizability: 143.054  -6.183 142.638   3.034   4.070 121.334
 Approx polarizability: 179.391 -12.840 216.169   1.241  17.055 189.769

                      1                      2                      3
                      A                      A                      A
 Frequencies --     16.8514                31.8343                47.8510
 Red. masses --      3.7304                 4.1972                 3.5370
 Frc consts  --      0.0006                 0.0025                 0.0048
 IR Inten    --      0.0591                 0.5368                 0.4536

                      4                      5                      6
                      A                      A                      A
 Frequencies --     62.0857                86.6596               102.3748
 Red. masses --      3.2397                 2.7218                 3.9762
 Frc consts  --      0.0074                 0.0120                 0.0246
 IR Inten    --      1.3233                 0.1521                 0.4989

                      7                      8                      9
                      A                      A                      A
 Frequencies --    119.3901               212.9225               223.8879
 Red. masses --      2.9923                 2.4398                 3.4752
 Frc consts  --      0.0251                 0.0652                 0.1026
 IR Inten    --      1.0540                 2.7285                 0.5982

                     10                     11                     12
                      A                      A                      A
 Frequencies --    252.3592               293.1478               311.5580
 Red. masses --      1.1998                 2.1118                 2.3258
 Frc consts  --      0.0450                 0.1069                 0.1330
 IR Inten    --     42.7683                 5.4049                 4.0495

                     13                     14                     15
                      A                      A                      A
 Frequencies --    326.2362               362.0753               394.0402
 Red. masses --      2.3850                 3.1551                 2.2774
 Frc consts  --      0.1496                 0.2437                 0.2083
 IR Inten    --      8.6569                 6.6967                 2.8743

                     16                     17                     18
                      A                      A                      A
 Frequencies --    409.3345               448.4137               465.8349
 Red. masses --      2.4421                 2.2600                 1.9620
 Frc consts  --      0.2411                 0.2677                 0.2508
 IR Inten    --      2.2686                 2.3731                 2.4789

                     19                     20                     21
                      A                      A                      A
 Frequencies --    506.4981               539.9533               600.3116
 Red. masses --      3.1359                 3.1810                 2.4778
 Frc consts  --      0.4740                 0.5464                 0.5261
 IR Inten    --      8.3840                 0.9403                 1.2275

                     22                     23                     24
                      A                      A                      A
 Frequencies --    655.0556               682.8785               753.8880
 Red. masses --      2.8680                 2.1806                 2.8231
 Frc consts  --      0.7251                 0.5991                 0.9453
 IR Inten    --     13.3030                 4.7600                 8.3288

                     25                     26                     27
                      A                      A                      A
 Frequencies --    769.8379               773.8952               816.4342
 Red. masses --      3.3938                 3.4628                 2.2656
 Frc consts  --      1.1851                 1.2219                 0.8898
 IR Inten    --      0.9407                 2.5640                 0.1299

                     28                     29                     30
                      A                      A                      A
 Frequencies --    831.5751               846.9364               881.3565
 Red. masses --      1.6178                 2.4166                 2.1586
 Frc consts  --      0.6592                 1.0213                 0.9879
 IR Inten    --      0.0562                 0.7985                 0.5324

                     31                     32                     33
                      A                      A                      A
 Frequencies --    907.7172               923.9392               937.1348
 Red. masses --      1.9831                 1.5673                 2.8052
 Frc consts  --      0.9627                 0.7883                 1.4515
 IR Inten    --      0.4024                63.7110                13.6332

                     34                     35                     36
                      A                      A                      A
 Frequencies --    944.4957               949.0932               967.7296
 Red. masses --      1.3994                 1.9916                 1.8818
 Frc consts  --      0.7355                 1.0570                 1.0383
 IR Inten    --     35.6953                13.8773                 6.4515

                     37                     38                     39
                      A                      A                      A
 Frequencies --    971.9092               975.4189               982.2866
 Red. masses --      1.8807                 2.0549                 1.5887
 Frc consts  --      1.0467                 1.1519                 0.9032
 IR Inten    --     51.0989                 8.3521                 2.0760

                     40                     41                     42
                      A                      A                      A
 Frequencies --    985.8939              1013.6914              1024.3223
 Red. masses --      1.8072                 3.0443                 1.9894
 Frc consts  --      1.0350                 1.8431                 1.2298
 IR Inten    --      3.4572                64.1403                 6.8410

                     43                     44                     45
                      A                      A                      A
 Frequencies --   1046.7513              1064.7333              1081.2111
 Red. masses --      1.1043                 1.8610                 1.5640
 Frc consts  --      0.7129                 1.2430                 1.0773
 IR Inten    --     18.1077                 3.8428                 0.8572

                     46                     47                     48
                      A                      A                      A
 Frequencies --   1099.0973              1116.0970              1128.6986
 Red. masses --      1.7962                 1.4686                 1.8267
 Frc consts  --      1.2785                 1.0778                 1.3711
 IR Inten    --      3.2274                11.1193                 7.3178

                     49                     50                     51
                      A                      A                      A
 Frequencies --   1150.6274              1158.8161              1169.0275
 Red. masses --      1.0761                 1.4954                 1.6342
 Frc consts  --      0.8394                 1.1832                 1.3159
 IR Inten    --      2.9368                25.0843                19.2206

                     52                     53                     54
                      A                      A                      A
 Frequencies --   1197.7059              1208.6091              1225.5478
 Red. masses --      1.4525                 1.9615                 1.6050
 Frc consts  --      1.2276                 1.6882                 1.4203
 IR Inten    --     14.3922                 0.8525                 8.8023

                     55                     56                     57
                      A                      A                      A
 Frequencies --   1237.1712              1258.4658              1268.1517
 Red. masses --      1.4791                 1.3157                 1.2733
 Frc consts  --      1.3339                 1.2277                 1.2065
 IR Inten    --      3.1448                 5.3349                 6.3212

                     58                     59                     60
                      A                      A                      A
 Frequencies --   1287.9943              1292.3368              1306.6188
 Red. masses --      1.3275                 1.4675                 1.4431
 Frc consts  --      1.2975                 1.4440                 1.4516
 IR Inten    --      3.8464                 1.6401                 1.2220

                     61                     62                     63
                      A                      A                      A
 Frequencies --   1313.7173              1329.9356              1336.8278
 Red. masses --      1.4358                 1.3847                 1.2536
 Frc consts  --      1.4600                 1.4430                 1.3200
 IR Inten    --      0.9402                 0.2120                 1.5809

                     64                     65                     66
                      A                      A                      A
 Frequencies --   1347.9546              1351.1384              1361.8344
 Red. masses --      1.5989                 1.4032                 1.5144
 Frc consts  --      1.7117                 1.5093                 1.6548
 IR Inten    --      0.2930                 6.0456                 1.3210

                     67                     68                     69
                      A                      A                      A
 Frequencies --   1363.2559              1365.2878              1385.4110
 Red. masses --      1.4322                 1.4954                 1.4362
 Frc consts  --      1.5682                 1.6424                 1.6241
 IR Inten    --      1.6212                 0.5012                 2.6770

                     70                     71                     72
                      A                      A                      A
 Frequencies --   1415.1684              1440.2738              1472.0998
 Red. masses --      1.4188                 1.3037                 1.1794
 Frc consts  --      1.6741                 1.5933                 1.5059
 IR Inten    --      0.8035                 5.2320                 1.9717

                     73                     74                     75
                      A                      A                      A
 Frequencies --   1486.9228              1516.6131              1519.3648
 Red. masses --      1.0841                 1.1095                 1.0837
 Frc consts  --      1.4122                 1.5036                 1.4739
 IR Inten    --     10.5626                 4.6411                 0.2516

                     76                     77                     78
                      A                      A                      A
 Frequencies --   1525.3783              1532.0080              1552.4775
 Red. masses --      1.0963                 1.0920                 1.1016
 Frc consts  --      1.5029                 1.5101                 1.5643
 IR Inten    --      5.2324                 3.9353                 3.2035

                     79                     80                     81
                      A                      A                      A
 Frequencies --   1709.9253              1729.5314              1791.3881
 Red. masses --      1.0899                 4.3110                11.1695
 Frc consts  --      1.8775                 7.5978                21.1184
 IR Inten    --     23.0491                 8.0605               141.3246

                     82                     83                     84
                      A                      A                      A
 Frequencies --   3043.1592              3046.8578              3047.4193
 Red. masses --      1.0654                 1.0644                 1.0613
 Frc consts  --      5.8129                 5.8221                 5.8068
 IR Inten    --     11.6619                14.9662                33.0270

                     85                     86                     87
                      A                      A                      A
 Frequencies --   3055.8275              3059.1172              3061.2014
 Red. masses --      1.0813                 1.0607                 1.0619
 Frc consts  --      5.9494                 5.8486                 5.8628
 IR Inten    --     17.4489                34.3686                21.2926

                     88                     89                     90
                      A                      A                      A
 Frequencies --   3071.4084              3087.2625              3096.7831
 Red. masses --      1.0670                 1.1045                 1.1030
 Frc consts  --      5.9307                 6.2027                 6.2321
 IR Inten    --     33.6025                24.7664                 4.6051

                     91                     92                     93
                      A                      A                      A
 Frequencies --   3099.3329              3100.4864              3106.3808
 Red. masses --      1.0859                 1.0871                 1.1063
 Frc consts  --      6.1459                 6.1573                 6.2900
 IR Inten    --     68.1434                17.6187                14.2605

                     94                     95                     96
                      A                      A                      A
 Frequencies --   3110.1117              3110.7127              3114.2661
 Red. masses --      1.0909                 1.0965                 1.0957
 Frc consts  --      6.2173                 6.2515                 6.2613
 IR Inten    --     24.1636                71.1272                16.7772

                     97                     98                     99
                      A                      A                      A
 Frequencies --   3122.9718              3151.6281              3159.4960
 Red. masses --      1.0990                 1.0681                 1.0820
 Frc consts  --      6.3152                 6.2509                 6.3636
 IR Inten    --     51.8854                20.1412                 4.9270

                    100                    101                    102
                      A                      A                      A
 Frequencies --   3237.3384              3447.0917              3527.0288
 Red. masses --      1.1156                 1.0502                 1.0903
 Frc consts  --      6.8889                 7.3522                 7.9914
 IR Inten    --     16.1647                 2.2793                 2.1680

 - Thermochemistry -
 -------------------
 Temperature   298.150 Kelvin.  Pressure   1.00000 Atm.
 Atom     1 has atomic number  6 and mass  12.00000

 Molecular mass:   207.16231 amu.
 Principal axes and moments of inertia in atomic units:
                           1         2         3
     Eigenvalues --  1909.420004841.250755544.94434
           X            0.99993   0.01016   0.00566
           Y           -0.01003   0.99969  -0.02266
           Z           -0.00589   0.02260   0.99973
 This molecule is an asymmetric top.
 Rotational symmetry number  1.
 Warning -- assumption of classical behavior for rotation
           may cause significant error
 Rotational temperatures (Kelvin)      0.04536     0.01789     0.01562
 Rotational constants (GHZ):           0.94518     0.37278     0.32548
 Zero-point vibrational energy     851796.0 (Joules/Mol)
                                  203.58412 (Kcal/Mol)
 Warning -- explicit consideration of  21 degrees of freedom as
           vibrations may cause significant error
 Vibrational temperatures:     24.25    45.80    68.85    89.33   124.68
          (Kelvin)            147.29   171.78   306.35   322.12   363.09
                              421.77   448.26   469.38   520.95   566.94
                              588.94   645.17   670.23   728.74   776.87
                              863.71   942.48   982.51  1084.68  1107.63
                             1113.46  1174.67  1196.45  1218.55  1268.08
                             1306.00  1329.34  1348.33  1358.92  1365.53
                             1392.35  1398.36  1403.41  1413.29  1418.48
                             1458.48  1473.77  1506.04  1531.91  1555.62
                             1581.36  1605.81  1623.95  1655.50  1667.28
                             1681.97  1723.23  1738.92  1763.29  1780.01
                             1810.65  1824.59  1853.14  1859.38  1879.93
                             1890.15  1913.48  1923.40  1939.41  1943.99
                             1959.38  1961.42  1964.34  1993.30  2036.11
                             2072.23  2118.02  2139.35  2182.07  2186.03
                             2194.68  2204.22  2233.67  2460.20  2488.41
                             2577.41  4378.43  4383.75  4384.56  4396.65
                             4401.39  4404.39  4419.07  4441.88  4455.58
                             4459.25  4460.91  4469.39  4474.76  4475.62
                             4480.73  4493.26  4534.49  4545.81  4657.81
                             4959.60  5074.61

 Zero-point correction=                           0.324432 (Hartree/Particle)
 Thermal correction to Energy=                    0.339476
 Thermal correction to Enthalpy=                  0.340420
 Thermal correction to Gibbs Free Energy=         0.280089
 Sum of electronic and zero-point Energies=           -637.708297
 Sum of electronic and thermal Energies=              -637.693254
 Sum of electronic and thermal Enthalpies=            -637.692310
 Sum of electronic and thermal Free Energies=         -637.752640

                     E (Thermal)             CV                S
                      KCal/Mol        Cal/Mol-Kelvin    Cal/Mol-Kelvin
 Total                  213.024             57.838            126.977
 Electronic               0.000              0.000              0.000
 Translational            0.889              2.981             41.889
 Rotational               0.889              2.981             32.305
 Vibrational            211.247             51.876             52.782
 Vibration     1          0.593              1.986              6.974
 Vibration     2          0.594              1.983              5.712
 Vibration     3          0.595              1.978              4.904
 Vibration     4          0.597              1.972              4.390
 Vibration     5          0.601              1.958              3.734
 Vibration     6          0.604              1.947              3.409
 Vibration     7          0.609              1.933              3.110
 Vibration     8          0.644              1.821              2.018
 Vibration     9          0.649              1.805              1.927
 Vibration    10          0.664              1.759              1.714
 Vibration    11          0.688              1.687              1.456
 Vibration    12          0.700              1.652              1.354
 Vibration    13          0.710              1.623              1.279
 Vibration    14          0.736              1.550              1.113
 Vibration    15          0.761              1.483              0.985
 Vibration    16          0.774              1.450              0.929
 Vibration    17          0.807              1.364              0.801
 Vibration    18          0.823              1.326              0.749
 Vibration    19          0.862              1.236              0.642
 Vibration    20          0.895              1.162              0.565
 Vibration    21          0.958              1.031              0.449

 Optimization completed.
    -- Stationary point found.
 Normal termination of Gaussian 16 at Thu Dec 10 15:18:54 2020.

 ----------------------------------------------------------------------
 # B3LYP/6-311++G(d,p) empiricaldispersion=gd3bj scf=xqc pop=npa geom=c
 heck
 ----------------------------------------------------------------------

 ---------------------------------------
 CID_116606835_JID_5199_Energie_neutraal
 ---------------------------------------
 Structure from the checkpoint file:  "JID_5199.chk"
 Charge =  0 Multiplicity = 1

 SCF Done:  E(RB3LYP) =  -638.216517039     A.U. after   14 cycles
 Normal termination of Gaussian 16 at Thu Dec 10 15:25:29 2020.

 ----------------------------------------------------------------------
 # B3LYP/6-311++G(d,p) empiricaldispersion=gd3bj scf=xqc pop=npa geom=c
 heck
 ----------------------------------------------------------------------

 -------------------------------------
 CID_116606835_JID_5199_Energie_kation
 -------------------------------------
 Structure from the checkpoint file:  "JID_5199.chk"
 Charge =  1 Multiplicity = 2

 SCF Done:  E(UB3LYP) =  -637.902233790     A.U. after   24 cycles
 Normal termination of Gaussian 16 at Thu Dec 10 15:41:34 2020.
 Gaussian 16:  ES64L-G16RevA.03 25-Dec-2016

 ----------------------------------------------------------------------
 # B3LYP/6-311++G(d,p) empiricaldispersion=gd3bj scf=xqc pop=npa geom=c
 heck
 ----------------------------------------------------------------------

 ------------------------------------
 CID_116606835_JID_5199_Energie_anion
 ------------------------------------
 Structure from the checkpoint file:  "JID_5199.chk"
 Charge = -1 Multiplicity = 2

                         Standard orientation:
 ---------------------------------------------------------------------
 Center     Atomic      Atomic             Coordinates (Angstroms)
 Number     Number       Type             X           Y           Z
 ---------------------------------------------------------------------
      1          6           0        2.466878    2.817978    0.184452
      2          6           0        2.674967    1.689960   -0.496514
      3          6           0        3.212949    0.420985    0.107814
      4          6           0        2.134399   -0.605147    0.552219
      5          6           0        1.284884   -1.051339   -0.653853
      6          8           0        1.606868   -2.059462   -1.260949
      7          6           0        0.077213   -0.235659   -1.098454
      8          6           0       -0.769581    0.345429    0.036334
      9          6           0       -1.333045   -0.721278    1.035048
     10          6           0       -2.837702   -0.378375    1.113644
     11          6           0       -3.504763   -0.828218   -0.206148
     12          6           0       -2.975592    0.213240   -1.243432
     13          6           0       -2.047041    1.111864   -0.397290
     14          6           0       -2.815623    1.155782    0.940582
     15          7           0        2.807718   -1.728270    1.202903
     16          1           0        2.702901    2.893437    1.244246
     17          1           0        2.063537    3.708753   -0.289036
     18          1           0        2.436406    1.666669   -1.559601
     19          1           0        3.880951   -0.084261   -0.602286
     20          1           0        3.800626    0.643831    1.003626
     21          1           0        1.497049   -0.111690    1.290966
     22          1           0        0.443223    0.584915   -1.731364
     23          1           0       -0.506403   -0.896784   -1.745932
     24          1           0       -0.147103    1.061806    0.584185
     25          1           0       -1.170826   -1.746247    0.679669
     26          1           0       -0.853377   -0.637333    2.016913
     27          1           0       -3.332676   -0.758116    2.011563
     28          1           0       -3.235975   -1.857314   -0.467621
     29          1           0       -4.596414   -0.786048   -0.126280
     30          1           0       -2.468994   -0.252214   -2.093085
     31          1           0       -3.796976    0.810880   -1.653205
     32          1           0       -1.826589    2.078502   -0.860281
     33          1           0       -3.815536    1.595332    0.850859
     34          1           0       -2.269357    1.675500    1.736112
     35          1           0        2.105654   -2.300904    1.671757
     36          1           0        3.173246   -2.326466    0.459653
 ---------------------------------------------------------------------

 SCF Done:  E(UB3LYP) =  -638.205422219     A.U. after   33 cycles
 SCF Done:  E(UB3LYP) =  -638.205422219     a.u. after    1 cycles

 The electronic state is 2-A.
 Alpha  occ. eigenvalues --  -19.00180 -14.19783 -10.13905 -10.10601 -10.08645
 Alpha  occ. eigenvalues --  -10.08201 -10.07405 -10.06978 -10.06939 -10.06707
 Alpha  occ. eigenvalues --  -10.06609 -10.06095 -10.06030 -10.05938 -10.05545
 Alpha  occ. eigenvalues --   -0.93642  -0.79387  -0.77093  -0.70603  -0.67601
 Alpha  occ. eigenvalues --   -0.62933  -0.62491  -0.60787  -0.57216  -0.53948
 Alpha  occ. eigenvalues --   -0.49740  -0.47249  -0.45165  -0.43336  -0.42227
 Alpha  occ. eigenvalues --   -0.40711  -0.40489  -0.37294  -0.37205  -0.36487
 Alpha  occ. eigenvalues --   -0.36258  -0.33847  -0.32488  -0.31805  -0.31262
 Alpha  occ. eigenvalues --   -0.29953  -0.29235  -0.27396  -0.26287  -0.25995
 Alpha  occ. eigenvalues --   -0.25613  -0.24997  -0.24506  -0.24203  -0.23067
 Alpha  occ. eigenvalues --   -0.22787  -0.20909  -0.20461  -0.19139  -0.17433
 Alpha  occ. eigenvalues --   -0.16578  -0.13702   0.04447
 Alpha virt. eigenvalues --    0.06315   0.06970   0.07472   0.07822   0.08272
 Alpha virt. eigenvalues --    0.08886   0.09258   0.09372   0.09814   0.10472
 Alpha virt. eigenvalues --    0.11144   0.11580   0.11800   0.11979   0.12542

  Beta  occ. eigenvalues --  -19.00045 -14.19774 -10.13718 -10.10610 -10.08628
  Beta  occ. eigenvalues --  -10.08177 -10.07379 -10.06968 -10.06945 -10.06701
  Beta  occ. eigenvalues --  -10.06597 -10.06080 -10.06013 -10.05929 -10.05520
  Beta  occ. eigenvalues --   -0.93363  -0.79355  -0.77060  -0.70556  -0.67523
  Beta  occ. eigenvalues --   -0.62879  -0.62440  -0.60738  -0.57119  -0.53853
  Beta  occ. eigenvalues --   -0.49680  -0.47157  -0.45101  -0.43187  -0.42177
  Beta  occ. eigenvalues --   -0.40630  -0.40426  -0.37240  -0.37164  -0.36405
  Beta  occ. eigenvalues --   -0.36093  -0.33765  -0.32426  -0.31650  -0.31202
  Beta  occ. eigenvalues --   -0.29777  -0.29161  -0.27308  -0.26168  -0.25964
  Beta  occ. eigenvalues --   -0.25571  -0.24876  -0.24312  -0.24072  -0.23023
  Beta  occ. eigenvalues --   -0.22694  -0.20858  -0.20430  -0.19096  -0.17346
  Beta  occ. eigenvalues --   -0.16507  -0.13608
  Beta virt. eigenvalues --    0.06720   0.07442   0.07680   0.07961   0.08176
  Beta virt. eigenvalues --    0.08627   0.09248   0.09465   0.09916   0.10173
  Beta virt. eigenvalues --    0.10864   0.11438   0.11823   0.12047   0.12202

 Mulliken charges and spin densities:
               1          2
     1  C    0.011270  -0.626708
     2  C   -0.499668   0.834474
     3  C    0.629624  -1.037075
     4  C   -0.202075  -0.293310
     5  C   -0.477972   0.480846
     6  O   -0.279408   0.043572
     7  C   -0.559200  -0.084965
     8  C    0.805136  -0.535657
     9  C    0.547048  -1.292569
    10  C   -1.137271   1.550737
    11  C    0.733518  -1.280922
    12  C   -0.125651  -0.498826
    13  C   -0.494509   1.007614
    14  C    0.700528  -1.453404
    15  N   -0.283166   0.074092
    16  H   -0.188324   0.321986
    17  H   -0.087539   0.203642
    18  H    0.010048   0.152043
    19  H    0.171152  -0.029102
    20  H    0.057529   0.142637
    21  H    0.043302   0.214487
    22  H    0.190194  -0.038230
    23  H    0.139590   0.060164
    24  H    0.668288  -0.433500
    25  H    0.221878  -0.055802
    26  H   -0.249065   0.401286
    27  H   -0.463219   0.700257
    28  H    0.011620   0.114760
    29  H   -0.209616   0.369039
    30  H    0.175323  -0.076413
    31  H   -0.287762   0.446225
    32  H   -0.178614   0.425811
    33  H   -0.336123   0.508289
    34  H   -0.461072   0.607954
    35  H    0.170537   0.060926
    36  H    0.233667   0.015643
 Sum of Mulliken charges =  -1.00000   1.00000

 Dipole moment (field-independent basis, Debye):
    X=              4.2909    Y=             -1.8093    Z=             -3.2690  Tot=              5.6896
 Quadrupole moment (field-independent basis, Debye-Ang):
   XX=           -167.9388   YY=           -136.0487   ZZ=           -131.9578
   XY=              6.2626   XZ=              1.3189   YZ=             -6.2933

 Summary of Natural Population Analysis:

                                       Natural Population
                Natural  -----------------------------------------------
    Atom  No    Charge         Core      Valence    Rydberg      Total
 -----------------------------------------------------------------------
      C    1   -0.18610      0.99956     2.17898    0.00757     3.18610
      C    2   -0.08709      0.99957     2.07766    0.00986     3.08709
      C    3   -0.20712      0.99959     2.19595    0.01158     3.20712
      C    4   -0.05524      0.99955     2.04252    0.01317     3.05524
      C    5    0.31802      0.99965     1.66110    0.02123     2.68198
      O    6   -0.29219      0.99988     3.28536    0.00696     4.29219
      C    7   -0.23528      0.99956     2.22652    0.00920     3.23528
      C    8   -0.11522      0.99958     2.10399    0.01164     3.11522
      C    9   -0.19222      0.99961     2.18337    0.00923     3.19222
      C   10   -0.11125      0.99960     2.09904    0.01260     3.11125
      C   11   -0.19144      0.99963     2.18319    0.00861     3.19144
      C   12   -0.19518      0.99963     2.18704    0.00852     3.19518
      C   13   -0.10520      0.99959     2.09370    0.01191     3.10520
      C   14   -0.18863      0.99961     2.17940    0.00961     3.18863
      N   15   -0.41760      0.99977     2.90860    0.00923     3.91760
      H   16    0.09220      0.00000     0.40661    0.00119     0.40780
      H   17    0.09453      0.00000     0.40454    0.00093     0.40547
      H   18    0.09112      0.00000     0.40784    0.00103     0.40888
      H   19    0.10008      0.00000     0.39885    0.00107     0.39992
      H   20    0.10772      0.00000     0.39093    0.00135     0.39228
      H   21    0.10301      0.00000     0.39459    0.00240     0.39699
      H   22    0.11032      0.00000     0.38847    0.00121     0.38968
      H   23    0.10708      0.00000     0.39109    0.00184     0.39292
      H   24    0.10496      0.00000     0.39229    0.00275     0.39504
      H   25    0.09583      0.00000     0.40277    0.00141     0.40417
      H   26    0.10291      0.00000     0.39561    0.00149     0.39709
      H   27    0.10178      0.00000     0.39683    0.00139     0.39822
      H   28    0.09544      0.00000     0.40352    0.00104     0.40456
      H   29    0.09963      0.00000     0.39909    0.00128     0.40037
      H   30    0.09656      0.00000     0.40229    0.00114     0.40344
      H   31    0.10014      0.00000     0.39870    0.00116     0.39986
      H   32    0.10264      0.00000     0.39617    0.00119     0.39736
      H   33    0.09981      0.00000     0.39870    0.00149     0.40019
      H   34    0.10301      0.00000     0.39499    0.00200     0.39699
      H   35    0.17446      0.00000     0.32397    0.00157     0.32554
      H   36    0.17852      0.00000     0.31950    0.00198     0.32148
 =======================================================================
   * Total *   -0.00000     14.99437    41.81378    0.19185    57.00000

 Normal termination of Gaussian 16 at Thu Dec 10 16:03:27 2020.
