 Gaussian 16, Revision A.03,

 -----------------------------------------------------------
 # opt freq B3LYP/6-31G(d) empiricaldispersion=gd3bj scf=xqc
 -----------------------------------------------------------

 ------------------------------
 CID_88036092_JID_1099_neutraal
 ------------------------------
 Symbolic Z-matrix:
 Charge =  0 Multiplicity = 1

 SCF Done:  E(RB3LYP) =  -1271.37426290     A.U. after   15 cycles
 SCF Done:  E(RB3LYP) =  -1271.38328510     A.U. after   13 cycles
 SCF Done:  E(RB3LYP) =  -1271.38418430     A.U. after   13 cycles
 SCF Done:  E(RB3LYP) =  -1271.38551444     A.U. after   12 cycles
 SCF Done:  E(RB3LYP) =  -1271.38578718     A.U. after   12 cycles
 SCF Done:  E(RB3LYP) =  -1271.38653153     A.U. after   12 cycles
 SCF Done:  E(RB3LYP) =  -1271.38708455     A.U. after   12 cycles
 SCF Done:  E(RB3LYP) =  -1271.38762643     A.U. after   12 cycles
 SCF Done:  E(RB3LYP) =  -1271.38797246     A.U. after   11 cycles
 SCF Done:  E(RB3LYP) =  -1271.38820425     A.U. after   12 cycles
 SCF Done:  E(RB3LYP) =  -1271.38960069     A.U. after    7 cycles
 SCF Done:  E(RB3LYP) =  -1271.38960083     A.U. after    8 cycles
 SCF Done:  E(RB3LYP) =  -1271.38960095     A.U. after    8 cycles
 SCF Done:  E(RB3LYP) =  -1271.38960101     A.U. after    7 cycles
 SCF Done:  E(RB3LYP) =  -1271.38960107     A.U. after    7 cycles
 Optimization completed.
    -- Stationary point found.
 Normal termination of Gaussian 16 at Tue Dec  8 19:27:51 2020.

 --------------------------------------------------------------------
 #N Geom=AllCheck Guess=TCheck SCRF=Check GenChk RB3LYP/6-31G(d) Freq
 --------------------------------------------------------------------

 Structure from the checkpoint file:  "JID_1099.chk"
 ------------------------------
 CID_88036092_JID_1099_neutraal
 ------------------------------
 Charge =  0 Multiplicity = 1

 SCF Done:  E(RB3LYP) =  -1271.38960107     A.U. after    1 cycles

  Exact polarizability: 110.041  -4.007 116.907   2.291  -1.500  88.376
 Approx polarizability: 146.719 -10.860 176.467   6.731  -9.496 143.556

                      1                      2                      3
                      A                      A                      A
 Frequencies --      9.3526                16.3297                23.2418
 Red. masses --      5.9561                 6.9351                 5.0729
 Frc consts  --      0.0003                 0.0011                 0.0016
 IR Inten    --      1.4096                 1.2610                 0.8214

                      4                      5                      6
                      A                      A                      A
 Frequencies --     27.6006                38.3353                45.0888
 Red. masses --      4.8205                 6.8679                 4.4884
 Frc consts  --      0.0022                 0.0059                 0.0054
 IR Inten    --      2.2300                 1.2412                 3.2160

                      7                      8                      9
                      A                      A                      A
 Frequencies --     61.2169                80.1994               111.5547
 Red. masses --      9.7770                 3.6634                 1.8688
 Frc consts  --      0.0216                 0.0139                 0.0137
 IR Inten    --      0.5931                 1.8993                 1.6541

                     10                     11                     12
                      A                      A                      A
 Frequencies --    126.1550               134.0641               164.4150
 Red. masses --      2.7805                 2.0354                 1.9914
 Frc consts  --      0.0261                 0.0216                 0.0317
 IR Inten    --      5.3612                 2.1167                 6.1731

                     13                     14                     15
                      A                      A                      A
 Frequencies --    197.0420               229.8586               238.7884
 Red. masses --      1.1752                 2.8316                 3.4271
 Frc consts  --      0.0269                 0.0881                 0.1151
 IR Inten    --      2.1893                 6.1656                 0.1399

                     16                     17                     18
                      A                      A                      A
 Frequencies --    240.8741               330.0445               377.5987
 Red. masses --      1.2105                 1.1216                 3.7428
 Frc consts  --      0.0414                 0.0720                 0.3144
 IR Inten    --      8.3442                17.6123                11.4238

                     19                     20                     21
                      A                      A                      A
 Frequencies --    426.5107               440.1651               441.7115
 Red. masses --      6.4818                 3.2462                 1.1027
 Frc consts  --      0.6947                 0.3706                 0.1268
 IR Inten    --      5.7477                52.7766               146.2026

                     22                     23                     24
                      A                      A                      A
 Frequencies --    454.8090               465.6436               508.2344
 Red. masses --      1.8743                 1.4069                 1.8071
 Frc consts  --      0.2284                 0.1797                 0.2750
 IR Inten    --     60.8909                41.7891                80.0249

                     25                     26                     27
                      A                      A                      A
 Frequencies --    648.1237               653.2963               658.8739
 Red. masses --      7.4837                 6.0706                 3.4633
 Frc consts  --      1.8522                 1.5265                 0.8858
 IR Inten    --     34.9825                32.5298                93.9828

                     28                     29                     30
                      A                      A                      A
 Frequencies --    666.7209               843.4674               906.3396
 Red. masses --      8.2946                 1.1277                 1.1371
 Frc consts  --      2.1724                 0.4727                 0.5504
 IR Inten    --     58.8323                23.4209                18.4618

                     31                     32                     33
                      A                      A                      A
 Frequencies --    915.3622               969.3150              1006.1423
 Red. masses --      1.1647                 1.1554                 1.0555
 Frc consts  --      0.5750                 0.6396                 0.6296
 IR Inten    --     35.2951               150.2016                 9.3051

                     34                     35                     36
                      A                      A                      A
 Frequencies --   1044.8471              1062.4332              1161.2515
 Red. masses --      1.9256                 3.7210                 1.2733
 Frc consts  --      1.2386                 2.4747                 1.0117
 IR Inten    --     71.1897                15.3937                 3.7682

                     37                     38                     39
                      A                      A                      A
 Frequencies --   1183.6658              1205.0784              1207.7220
 Red. masses --      1.8658                 1.4079                 2.1263
 Frc consts  --      1.5402                 1.2046                 1.8273
 IR Inten    --     18.1459                 9.2380                 1.8521

                     40                     41                     42
                      A                      A                      A
 Frequencies --   1306.8070              1315.6577              1369.8908
 Red. masses --      2.8742                 3.0197                 1.3263
 Frc consts  --      2.8920                 3.0796                 1.4664
 IR Inten    --    213.9549               218.6662                 0.4957

                     43                     44                     45
                      A                      A                      A
 Frequencies --   1473.4452              1486.5681              1495.1035
 Red. masses --      1.5763                 1.1580                 1.1791
 Frc consts  --      2.0163                 1.5078                 1.5529
 IR Inten    --     16.3367                 5.6359                12.3853

                     46                     47                     48
                      A                      A                      A
 Frequencies --   1519.6207              1531.0465              1544.9041
 Red. masses --      1.0450                 1.0539                 1.0610
 Frc consts  --      1.4218                 1.4555                 1.4921
 IR Inten    --      8.8043                12.0795                28.5892

                     49                     50                     51
                      A                      A                      A
 Frequencies --   1549.2622              1697.2632              1700.4698
 Red. masses --      1.0345                 1.0926                 1.1370
 Frc consts  --      1.4630                 1.8544                 1.9370
 IR Inten    --      4.8301                35.2776                54.9663

                     52                     53                     54
                      A                      A                      A
 Frequencies --   1821.8951              1844.3065              2725.0906
 Red. masses --      9.6120                10.7983                 1.0383
 Frc consts  --     18.7980                21.6408                 4.5427
 IR Inten    --    367.0577               435.3916                 0.6326

                     55                     56                     57
                      A                      A                      A
 Frequencies --   2725.1726              3010.8701              3045.4446
 Red. masses --      1.0383                 1.0535                 1.0416
 Frc consts  --      4.5433                 5.6267                 5.6916
 IR Inten    --      3.8776               114.0136                26.3651

                     58                     59                     60
                      A                      A                      A
 Frequencies --   3107.5821              3113.6699              3150.6149
 Red. masses --      1.0809                 1.0984                 1.1053
 Frc consts  --      6.1501                 6.2744                 6.4641
 IR Inten    --     19.5694                18.4823                12.7582

                     61                     62                     63
                      A                      A                      A
 Frequencies --   3159.9112              3195.3629              3474.2763
 Red. masses --      1.1015                 1.0765                 1.0502
 Frc consts  --      6.4802                 6.4757                 7.4686
 IR Inten    --     11.4193              1017.1241                21.8551

                     64                     65                     66
                      A                      A                      A
 Frequencies --   3560.1217              3612.2937              3652.7817
 Red. masses --      1.0935                 1.0766                 1.0834
 Frc consts  --      8.1657                 8.2769                 8.5168
 IR Inten    --     25.5549                39.1864                57.4544

 - Thermochemistry -
 -------------------
 Temperature   298.150 Kelvin.  Pressure   1.00000 Atm.
 Atom     1 has atomic number  6 and mass  12.00000

 Molecular mass:   199.04492 amu.
 Principal axes and moments of inertia in atomic units:
                           1         2         3
     Eigenvalues --  1322.034907697.839988141.32064
           X            0.99994  -0.01049   0.00231
           Y            0.01047   0.99990   0.00917
           Z           -0.00241  -0.00915   0.99996
 This molecule is an asymmetric top.
 Rotational symmetry number  1.
 Warning -- assumption of classical behavior for rotation
           may cause significant error
 Rotational temperatures (Kelvin)      0.06552     0.01125     0.01064
 Rotational constants (GHZ):           1.36512     0.23445     0.22168
 Zero-point vibrational energy     493524.8 (Joules/Mol)
                                  117.95526 (Kcal/Mol)
 Warning -- explicit consideration of  24 degrees of freedom as
           vibrations may cause significant error
 Vibrational temperatures:     13.46    23.49    33.44    39.71    55.16
          (Kelvin)             64.87    88.08   115.39   160.50   181.51
                              192.89   236.56   283.50   330.72   343.56
                              346.56   474.86   543.28   613.65   633.30
                              635.52   654.37   669.96   731.24   932.51
                              939.95   947.97   959.26  1213.56  1304.02
                             1317.00  1394.63  1447.61  1503.30  1528.60
                             1670.78  1703.03  1733.84  1737.64  1880.20
                             1892.94  1970.97  2119.96  2138.84  2151.12
                             2186.40  2202.83  2222.77  2229.04  2441.98
                             2446.60  2621.30  2653.55  3920.80  3920.92
                             4331.97  4381.72  4471.12  4479.88  4533.03
                             4546.41  4597.41  4998.71  5122.22  5197.28
                             5255.54

 Zero-point correction=                           0.187974 (Hartree/Particle)
 Thermal correction to Energy=                    0.205717
 Thermal correction to Enthalpy=                  0.206661
 Thermal correction to Gibbs Free Energy=         0.135589
 Sum of electronic and zero-point Energies=          -1271.201627
 Sum of electronic and thermal Energies=             -1271.183884
 Sum of electronic and thermal Enthalpies=           -1271.182940
 Sum of electronic and thermal Free Energies=        -1271.254012

                     E (Thermal)             CV                S
                      KCal/Mol        Cal/Mol-Kelvin    Cal/Mol-Kelvin
 Total                  129.089             56.397            149.584
 Electronic               0.000              0.000              0.000
 Translational            0.889              2.981             41.770
 Rotational               0.889              2.981             32.782
 Vibrational            127.312             50.435             75.032
 Vibration     1          0.593              1.987              8.144
 Vibration     2          0.593              1.986              7.037
 Vibration     3          0.593              1.985              6.336
 Vibration     4          0.593              1.984              5.995
 Vibration     5          0.594              1.982              5.343
 Vibration     6          0.595              1.979              5.022
 Vibration     7          0.597              1.973              4.418
 Vibration     8          0.600              1.963              3.886
 Vibration     9          0.607              1.940              3.242
 Vibration    10          0.611              1.927              3.004
 Vibration    11          0.613              1.919              2.887
 Vibration    12          0.623              1.886              2.498
 Vibration    13          0.636              1.844              2.161
 Vibration    14          0.652              1.795              1.880
 Vibration    15          0.657              1.781              1.812
 Vibration    16          0.658              1.778              1.796
 Vibration    17          0.713              1.615              1.260
 Vibration    18          0.748              1.518              1.049
 Vibration    19          0.788              1.413              0.870
 Vibration    20          0.800              1.383              0.826
 Vibration    21          0.801              1.379              0.821
 Vibration    22          0.813              1.350              0.781
 Vibration    23          0.823              1.326              0.750
 Vibration    24          0.863              1.232              0.638

                           ! Non-Optimized Parameters !
 Normal termination of Gaussian 16 at Tue Dec  8 19:31:46 2020.

 ----------------------------------------------------------------------
 # B3LYP/6-311++G(d,p) empiricaldispersion=gd3bj scf=xqc pop=npa geom=c
 heck
 ----------------------------------------------------------------------

 --------------------------------------
 CID_88036092_JID_1099_Energie_neutraal
 --------------------------------------
 Structure from the checkpoint file:  "JID_1099.chk"
 Charge =  0 Multiplicity = 1

 SCF Done:  E(RB3LYP) =  -1271.62008655     A.U. after   14 cycles
 Normal termination of Gaussian 16 at Tue Dec  8 19:33:46 2020.

 ----------------------------------------------------------------------
 # B3LYP/6-311++G(d,p) empiricaldispersion=gd3bj scf=xqc pop=npa geom=c
 heck
 ----------------------------------------------------------------------

 ------------------------------------
 CID_88036092_JID_1099_Energie_kation
 ------------------------------------
 Structure from the checkpoint file:  "JID_1099.chk"
 Charge =  1 Multiplicity = 2

 SCF Done:  E(UB3LYP) =  -1271.29331989     A.U. after   33 cycles
 SCF Done:  E(UB3LYP) =  -1271.29331989     a.u. after    2 cycles
 Normal termination of Gaussian 16 at Tue Dec  8 19:45:39 2020.
 Gaussian 16:  ES64L-G16RevA.03 25-Dec-2016

 ----------------------------------------------------------------------
 # B3LYP/6-311++G(d,p) empiricaldispersion=gd3bj scf=xqc pop=npa geom=c
 heck
 ----------------------------------------------------------------------

 -----------------------------------
 CID_88036092_JID_1099_Energie_anion
 -----------------------------------
 Structure from the checkpoint file:  "JID_1099.chk"
 Charge = -1 Multiplicity = 2

                         Standard orientation:
 ---------------------------------------------------------------------
 Center     Atomic      Atomic             Coordinates (Angstroms)
 Number     Number       Type             X           Y           Z
 ---------------------------------------------------------------------
      1          6           0        0.030295    0.843916    1.009707
      2          7           0        0.334901    0.345954   -0.339378
      3          6           0       -3.439835    1.784170   -0.554981
      4          7           0       -3.428770    0.885905    0.588604
      5          6           0       -3.130509   -0.439588    0.571447
      6          8           0       -2.977631   -1.128349    1.558005
      7         16           0       -2.972049   -1.117896   -1.130881
      8          6           0        3.862647   -0.613136    0.028481
      9          8           0        4.968639   -1.057733    0.250374
     10          7           0        2.703013   -1.296941   -0.021405
     11         16           0        3.590305    1.191247   -0.303628
     12          1           0       -0.397357    0.028777    1.599598
     13          1           0       -0.676885    1.686886    1.030699
     14          1           0        0.961013    1.164334    1.486202
     15          1           0       -0.496176   -0.049465   -0.777072
     16          1           0        0.658353    1.106281   -0.934471
     17          1           0       -4.110478    1.411161   -1.335214
     18          1           0       -2.438114    1.921712   -0.981808
     19          1           0       -3.815304    2.754482   -0.225030
     20          1           0       -3.432346    1.280696    1.520214
     21          1           0       -2.714810   -2.352731   -0.661777
     22          1           0        1.792924   -0.830646   -0.177610
     23          1           0        2.754619   -2.287314    0.171851
     24          1           0        4.894818    1.484257   -0.153135
 ---------------------------------------------------------------------

 SCF Done:  E(UB3LYP) =  -1271.61831124     A.U. after   28 cycles

 The electronic state is 2-A.
 Alpha  occ. eigenvalues --  -88.76882 -88.76716 -19.01996 -19.01353 -14.25370
 Alpha  occ. eigenvalues --  -14.24274 -14.21298 -10.21772 -10.21118 -10.10939
 Alpha  occ. eigenvalues --  -10.09178  -7.85620  -7.85488  -5.81981  -5.81827
 Alpha  occ. eigenvalues --   -5.81605  -5.81449  -5.81040  -5.80932  -0.97041
 Alpha  occ. eigenvalues --   -0.96638  -0.84291  -0.82733  -0.79340  -0.67039
 Alpha  occ. eigenvalues --   -0.66681  -0.61896  -0.57164  -0.51065  -0.50358
 Alpha  occ. eigenvalues --   -0.45651  -0.41138  -0.40780  -0.38295  -0.38224
 Alpha  occ. eigenvalues --   -0.37103  -0.35141  -0.34073  -0.33564  -0.33211
 Alpha  occ. eigenvalues --   -0.31918  -0.31358  -0.30931  -0.29867  -0.29172
 Alpha  occ. eigenvalues --   -0.28076  -0.19637  -0.18748  -0.18092  -0.17963
 Alpha  occ. eigenvalues --   -0.17595  -0.17496  -0.16520   0.03719
 Alpha virt. eigenvalues --    0.06337   0.07016   0.07672   0.08098   0.08777
 Alpha virt. eigenvalues --    0.09023   0.09389   0.09742   0.09908   0.10819
 Alpha virt. eigenvalues --    0.11177   0.12467   0.12803   0.12994   0.13510

  Beta  occ. eigenvalues --  -88.76875 -88.76693 -19.01995 -19.01347 -14.25333
  Beta  occ. eigenvalues --  -14.24260 -14.21271 -10.21766 -10.21115 -10.10852
  Beta  occ. eigenvalues --  -10.09149  -7.85611  -7.85457  -5.81975  -5.81808
  Beta  occ. eigenvalues --   -5.81599  -5.81423  -5.81033  -5.80909  -0.97036
  Beta  occ. eigenvalues --   -0.96625  -0.84229  -0.82712  -0.79294  -0.66937
  Beta  occ. eigenvalues --   -0.66651  -0.61749  -0.57080  -0.51038  -0.50257
  Beta  occ. eigenvalues --   -0.45634  -0.41108  -0.40633  -0.38262  -0.38217
  Beta  occ. eigenvalues --   -0.37045  -0.35068  -0.34058  -0.33543  -0.33128
  Beta  occ. eigenvalues --   -0.31887  -0.31275  -0.30886  -0.29846  -0.29102
  Beta  occ. eigenvalues --   -0.28048  -0.19627  -0.18731  -0.18054  -0.17913
  Beta  occ. eigenvalues --   -0.17570  -0.17464  -0.16483
  Beta virt. eigenvalues --    0.06111   0.07203   0.07688   0.08171   0.08616
  Beta virt. eigenvalues --    0.08970   0.09296   0.09713   0.09957   0.10135
  Beta virt. eigenvalues --    0.11158   0.11629   0.12572   0.13114   0.13220

 Mulliken charges and spin densities:
               1          2
     1  C    0.237545  -0.618835
     2  N   -0.455074  -0.104926
     3  C    1.839410  -2.255775
     4  N   -0.268925   0.151034
     5  C   -0.643531   0.446630
     6  O   -0.287505   0.018160
     7  S    0.854091  -0.773149
     8  C   -0.135851   0.100314
     9  O   -0.321556  -0.001948
    10  N   -0.345986  -0.043159
    11  S    0.170827  -0.166219
    12  H    0.092089   0.095373
    13  H   -0.221379   0.350260
    14  H   -0.063198   0.198005
    15  H   -0.048247   0.299319
    16  H    0.106359   0.116778
    17  H   -0.348110   0.496313
    18  H   -0.310223   0.490520
    19  H   -1.059966   1.242874
    20  H   -0.113368   0.447860
    21  H   -0.262136   0.344525
    22  H    0.428668  -0.067785
    23  H    0.151425   0.139059
    24  H    0.004642   0.094771
 Sum of Mulliken charges =  -1.00000   1.00000

 Dipole moment (field-independent basis, Debye):
    X=              4.6176    Y=             -3.5479    Z=             -0.7637  Tot=              5.8731
 Quadrupole moment (field-independent basis, Debye-Ang):
   XX=           -176.0990   YY=           -128.2280   ZZ=           -112.6825
   XY=             21.3208   XZ=              1.5723   YZ=              1.2823

 Summary of Natural Population Analysis:

                                       Natural Population
                Natural  -----------------------------------------------
    Atom  No    Charge         Core      Valence    Rydberg      Total
 -----------------------------------------------------------------------
      C    1   -0.18604      0.99967     2.17723    0.00914     3.18604
      N    2   -0.43914      0.99978     2.92806    0.01129     3.93914
      C    3   -0.18679      0.99964     2.17778    0.00937     3.18679
      N    4   -0.32323      0.99966     2.81030    0.01327     3.82323
      C    5    0.28276      0.99968     1.69067    0.02689     2.71724
      O    6   -0.31490      0.99987     3.30692    0.00812     4.31490
      S    7   -0.04466      4.99961     3.03120    0.01386     8.04466
      C    8    0.28266      0.99974     1.69089    0.02671     2.71734
      O    9   -0.31965      0.99986     3.31178    0.00801     4.31965
      N   10   -0.41809      0.99967     2.90917    0.00925     3.91809
      S   11   -0.05453      4.99963     3.04099    0.01391     8.05453
      H   12    0.09759      0.00000     0.40125    0.00116     0.40241
      H   13    0.08743      0.00000     0.41095    0.00162     0.41257
      H   14    0.09316      0.00000     0.40589    0.00096     0.40684
      H   15    0.18721      0.00000     0.30966    0.00313     0.31279
      H   16    0.18182      0.00000     0.31643    0.00175     0.31818
      H   17    0.10157      0.00000     0.39678    0.00165     0.39843
      H   18    0.09758      0.00000     0.39966    0.00276     0.40242
      H   19    0.11284      0.00000     0.37939    0.00777     0.38716
      H   20    0.20320      0.00000     0.29231    0.00449     0.29680
      H   21    0.07781      0.00000     0.41840    0.00379     0.42219
      H   22    0.21868      0.00000     0.27878    0.00254     0.28132
      H   23    0.19425      0.00000     0.30385    0.00190     0.30575
      H   24    0.06849      0.00000     0.42842    0.00309     0.43151
 =======================================================================
   * Total *    0.00000     18.99682    33.81676    0.18642    53.00000

 Normal termination of Gaussian 16 at Tue Dec  8 19:51:45 2020.
