 Gaussian 16, Revision A.03,

 -----------------------------------------------------------
 # opt freq B3LYP/6-31G(d) empiricaldispersion=gd3bj scf=xqc
 -----------------------------------------------------------

 -------------------------------
 CID_130778618_JID_7754_neutraal
 -------------------------------
 Symbolic Z-matrix:
 Charge =  0 Multiplicity = 1

 SCF Done:  E(RB3LYP) =  -747.548678529     A.U. after   14 cycles
 SCF Done:  E(RB3LYP) =  -747.555352069     A.U. after   12 cycles
 SCF Done:  E(RB3LYP) =  -747.554355296     A.U. after   12 cycles
 SCF Done:  E(RB3LYP) =  -747.556489387     A.U. after   11 cycles
 SCF Done:  E(RB3LYP) =  -747.557432193     A.U. after   12 cycles
 SCF Done:  E(RB3LYP) =  -747.557661841     A.U. after   12 cycles
 SCF Done:  E(RB3LYP) =  -747.557767167     A.U. after   11 cycles
 SCF Done:  E(RB3LYP) =  -747.557818348     A.U. after   11 cycles
 SCF Done:  E(RB3LYP) =  -747.557833948     A.U. after   10 cycles
 SCF Done:  E(RB3LYP) =  -747.557842678     A.U. after   10 cycles
 SCF Done:  E(RB3LYP) =  -747.557846007     A.U. after    9 cycles
 SCF Done:  E(RB3LYP) =  -747.557847989     A.U. after    9 cycles
 SCF Done:  E(RB3LYP) =  -747.557848421     A.U. after    9 cycles
 SCF Done:  E(RB3LYP) =  -747.557848534     A.U. after    8 cycles
 SCF Done:  E(RB3LYP) =  -747.557848572     A.U. after    7 cycles
 Optimization completed.
    -- Stationary point found.
 Normal termination of Gaussian 16 at Sun Dec 13 12:31:16 2020.

 --------------------------------------------------------------------
 #N Geom=AllCheck Guess=TCheck SCRF=Check GenChk RB3LYP/6-31G(d) Freq
 --------------------------------------------------------------------

 Structure from the checkpoint file:  "JID_7754.chk"
 -------------------------------
 CID_130778618_JID_7754_neutraal
 -------------------------------
 Charge =  0 Multiplicity = 1

 SCF Done:  E(RB3LYP) =  -747.557848572     A.U. after    1 cycles

  Exact polarizability: 174.701  22.751 161.542 -10.352   9.090 128.662
 Approx polarizability: 227.259  39.888 243.550 -16.894  22.797 207.552

                      1                      2                      3
                      A                      A                      A
 Frequencies --     12.9424                21.1211                28.0149
 Red. masses --      4.4802                 3.8846                 3.9765
 Frc consts  --      0.0004                 0.0010                 0.0018
 IR Inten    --      0.1426                 0.5181                 1.6889

                      4                      5                      6
                      A                      A                      A
 Frequencies --     38.2214                60.3507                74.2536
 Red. masses --      3.6517                 4.1720                 3.8156
 Frc consts  --      0.0031                 0.0090                 0.0124
 IR Inten    --      0.4683                 1.0682                 1.1564

                      7                      8                      9
                      A                      A                      A
 Frequencies --     87.3199               128.7099               170.1765
 Red. masses --      4.1252                 1.1067                 3.1994
 Frc consts  --      0.0185                 0.0108                 0.0546
 IR Inten    --      4.8454                 2.3310                 3.5846

                     10                     11                     12
                      A                      A                      A
 Frequencies --    180.9174               217.5097               230.1570
 Red. masses --      4.0067                 3.5056                 2.6749
 Frc consts  --      0.0773                 0.0977                 0.0835
 IR Inten    --      2.6575                 9.2098                 5.4848

                     13                     14                     15
                      A                      A                      A
 Frequencies --    237.2718               282.4209               313.9221
 Red. masses --      4.5539                 2.1547                 2.0892
 Frc consts  --      0.1511                 0.1013                 0.1213
 IR Inten    --      3.5886                 0.5623                 0.0845

                     16                     17                     18
                      A                      A                      A
 Frequencies --    345.4061               347.8392               376.7524
 Red. masses --      2.5512                 2.1343                 1.1812
 Frc consts  --      0.1793                 0.1521                 0.0988
 IR Inten    --      5.2962                 3.5605                41.5630

                     19                     20                     21
                      A                      A                      A
 Frequencies --    400.1922               417.6476               439.3856
 Red. masses --      2.2539                 3.0101                 2.5894
 Frc consts  --      0.2127                 0.3094                 0.2945
 IR Inten    --      1.1159                 0.2342                11.2323

                     22                     23                     24
                      A                      A                      A
 Frequencies --    475.2040               514.5807               534.7982
 Red. masses --      3.0808                 2.3872                 2.0031
 Frc consts  --      0.4099                 0.3724                 0.3376
 IR Inten    --      5.8854                54.7644                66.8893

                     25                     26                     27
                      A                      A                      A
 Frequencies --    568.0775               627.4886               631.7496
 Red. masses --      2.6352                 1.5973                 4.0292
 Frc consts  --      0.5011                 0.3705                 0.9475
 IR Inten    --      4.5281               196.6633                 9.5166

                     28                     29                     30
                      A                      A                      A
 Frequencies --    637.0416               658.2980               713.7826
 Red. masses --      5.9586                 2.5553                 2.3203
 Frc consts  --      1.4247                 0.6524                 0.6965
 IR Inten    --      0.7754                25.0021                14.0223

                     31                     32                     33
                      A                      A                      A
 Frequencies --    744.5531               750.7552               767.3174
 Red. masses --      3.2521                 1.5474                 1.5372
 Frc consts  --      1.0622                 0.5139                 0.5333
 IR Inten    --    110.7881                32.1868                16.0237

                     34                     35                     36
                      A                      A                      A
 Frequencies --    817.2138               825.6748               865.5094
 Red. masses --      3.1480                 3.3105                 1.2520
 Frc consts  --      1.2387                 1.3297                 0.5526
 IR Inten    --      5.5787                 0.5397                 0.5621

                     37                     38                     39
                      A                      A                      A
 Frequencies --    869.3393               903.7883               923.2578
 Red. masses --      2.9915                 2.0673                 1.4493
 Frc consts  --      1.3320                 0.9949                 0.7279
 IR Inten    --     12.1057                 6.3116                 7.5930

                     40                     41                     42
                      A                      A                      A
 Frequencies --    964.8181               971.0754               995.1813
 Red. masses --      2.1011                 1.3402                 1.2464
 Frc consts  --      1.1524                 0.7446                 0.7273
 IR Inten    --      2.6804                 0.2053                 0.6423

                     43                     44                     45
                      A                      A                      A
 Frequencies --    999.0088              1021.4302              1029.9115
 Red. masses --      1.7138                 5.6624                 2.0508
 Frc consts  --      1.0077                 3.4807                 1.2816
 IR Inten    --      3.4678                 1.4067                12.4944

                     46                     47                     48
                      A                      A                      A
 Frequencies --   1046.4504              1059.5340              1085.2650
 Red. masses --      2.2967                 2.1662                 1.8203
 Frc consts  --      1.4818                 1.4328                 1.2632
 IR Inten    --      7.3206                 4.6519                 6.7754

                     49                     50                     51
                      A                      A                      A
 Frequencies --   1112.9969              1117.9569              1126.8771
 Red. masses --      1.7981                 2.0559                 2.2894
 Frc consts  --      1.3123                 1.5139                 1.7128
 IR Inten    --     19.9222                 4.7963                34.2437

                     52                     53                     54
                      A                      A                      A
 Frequencies --   1128.0812              1146.3500              1157.6480
 Red. masses --      1.3339                 2.8185                 2.2640
 Frc consts  --      1.0002                 2.1822                 1.7877
 IR Inten    --      1.5652               102.2274                66.1179

                     55                     56                     57
                      A                      A                      A
 Frequencies --   1171.2448              1192.5852              1199.4658
 Red. masses --      1.9136                 1.1020                 1.7706
 Frc consts  --      1.5467                 0.9235                 1.5008
 IR Inten    --     22.4771                 0.1523                10.7863

                     58                     59                     60
                      A                      A                      A
 Frequencies --   1208.7368              1229.9731              1238.3593
 Red. masses --      1.1515                 2.4820                 1.4351
 Frc consts  --      0.9912                 2.2123                 1.2967
 IR Inten    --      1.9751                18.0211                22.0196

                     61                     62                     63
                      A                      A                      A
 Frequencies --   1260.4992              1302.8864              1308.1947
 Red. masses --      1.4546                 1.1979                 1.2992
 Frc consts  --      1.3617                 1.1981                 1.3100
 IR Inten    --     31.6862                27.5256                 4.0661

                     64                     65                     66
                      A                      A                      A
 Frequencies --   1347.1334              1353.8830              1354.4266
 Red. masses --      1.4215                 1.7212                 1.4812
 Frc consts  --      1.5200                 1.8589                 1.6009
 IR Inten    --     20.2630                57.7598                28.6673

                     67                     68                     69
                      A                      A                      A
 Frequencies --   1366.3985              1395.4755              1404.0896
 Red. masses --      2.1455                 1.3427                 1.5651
 Frc consts  --      2.3601                 1.5405                 1.8180
 IR Inten    --      0.7639                12.1872                 8.8067

                     70                     71                     72
                      A                      A                      A
 Frequencies --   1417.1126              1428.1048              1450.1719
 Red. masses --      1.3541                 1.4235                 1.4002
 Frc consts  --      1.6022                 1.7105                 1.7349
 IR Inten    --     32.6782                 2.4792                10.7205

                     73                     74                     75
                      A                      A                      A
 Frequencies --   1471.6928              1503.7951              1505.2139
 Red. masses --      1.1918                 2.0986                 1.0966
 Frc consts  --      1.5209                 2.7961                 1.4638
 IR Inten    --     46.6864                 8.6509                 8.1228

                     76                     77                     78
                      A                      A                      A
 Frequencies --   1510.9690              1514.1412              1517.9884
 Red. masses --      1.0993                 1.1039                 1.0944
 Frc consts  --      1.4787                 1.4911                 1.4858
 IR Inten    --     21.7733                 3.2942                 1.2776

                     79                     80                     81
                      A                      A                      A
 Frequencies --   1524.4922              1539.5414              1547.1656
 Red. masses --      1.0506                 1.0464                 2.1865
 Frc consts  --      1.4386                 1.4613                 3.0837
 IR Inten    --      2.9220                 4.1978                 6.4403

                     82                     83                     84
                      A                      A                      A
 Frequencies --   1560.9914              1571.0240              1649.1752
 Red. masses --      1.6884                 1.1196                 5.6063
 Frc consts  --      2.4240                 1.6281                 8.9839
 IR Inten    --    136.9993                22.6619                 0.6124

                     85                     86                     87
                      A                      A                      A
 Frequencies --   1668.7479              1679.6693              1753.3468
 Red. masses --      5.5767                 1.1926                 5.0447
 Frc consts  --      9.1497                 1.9824                 9.1374
 IR Inten    --      1.7544                89.3237               313.6984

                     88                     89                     90
                      A                      A                      A
 Frequencies --   2951.3968              2994.2859              3007.1970
 Red. masses --      1.0519                 1.0676                 1.0916
 Frc consts  --      5.3985                 5.6395                 5.8161
 IR Inten    --    111.7064                50.5319                60.1134

                     91                     92                     93
                      A                      A                      A
 Frequencies --   3018.0966              3018.6097              3045.6463
 Red. masses --      1.0622                 1.0691                 1.0696
 Frc consts  --      5.7008                 5.7394                 5.8454
 IR Inten    --     20.4370                50.1699                64.2849

                     94                     95                     96
                      A                      A                      A
 Frequencies --   3049.8451              3067.1830              3069.9753
 Red. masses --      1.0694                 1.0949                 1.0976
 Frc consts  --      5.8608                 6.0690                 6.0951
 IR Inten    --     33.5536                35.4967                17.3656

                     97                     98                     99
                      A                      A                      A
 Frequencies --   3084.4910              3097.7208              3105.5933
 Red. masses --      1.0997                 1.0953                 1.0913
 Frc consts  --      6.1641                 6.1926                 6.2013
 IR Inten    --     19.2231                47.2597                36.4965

                    100                    101                    102
                      A                      A                      A
 Frequencies --   3155.4618              3172.3015              3181.9273
 Red. masses --      1.0913                 1.0863                 1.0866
 Frc consts  --      6.4023                 6.4410                 6.4818
 IR Inten    --      5.7245                 8.4528                 0.5331

                    103                    104                    105
                      A                      A                      A
 Frequencies --   3192.1525              3203.4702              3210.4695
 Red. masses --      1.0910                 1.0936                 1.0967
 Frc consts  --      6.5502                 6.6122                 6.6600
 IR Inten    --     27.0829                32.4536                14.8417

                    106                    107                    108
                      A                      A                      A
 Frequencies --   3548.4735              3568.3262              3653.7705
 Red. masses --      1.0498                 1.0747                 1.0955
 Frc consts  --      7.7881                 8.0623                 8.6168
 IR Inten    --     11.9723                 6.3066                12.1899

 - Thermochemistry -
 -------------------
 Temperature   298.150 Kelvin.  Pressure   1.00000 Atm.
 Atom     1 has atomic number  6 and mass  12.00000

 Molecular mass:   235.16846 amu.
 Principal axes and moments of inertia in atomic units:
                           1         2         3
     Eigenvalues --  2150.075099180.12644**********
           X            1.00000   0.00020   0.00034
           Y           -0.00020   0.99996   0.00934
           Z           -0.00034  -0.00934   0.99996
 This molecule is an asymmetric top.
 Rotational symmetry number  1.
 Warning -- assumption of classical behavior for rotation
           may cause significant error
 Rotational temperatures (Kelvin)      0.04028     0.00943     0.00841
 Rotational constants (GHZ):           0.83939     0.19659     0.17528
 Zero-point vibrational energy     877727.8 (Joules/Mol)
                                  209.78199 (Kcal/Mol)
 Warning -- explicit consideration of  25 degrees of freedom as
           vibrations may cause significant error
 Vibrational temperatures:     18.62    30.39    40.31    54.99    86.83
          (Kelvin)            106.83   125.63   185.18   244.85   260.30
                              312.95   331.14   341.38   406.34   451.66
                              496.96   500.46   542.06   575.79   600.90
                              632.18   683.71   740.37   769.46   817.34
                              902.82   908.95   916.56   947.14  1026.97
                             1071.25  1080.17  1104.00  1175.79  1187.96
                             1245.27  1250.79  1300.35  1328.36  1388.16
                             1397.16  1431.84  1437.35  1469.61  1481.81
                             1505.61  1524.43  1561.45  1601.35  1608.49
                             1621.32  1623.06  1649.34  1665.60  1685.16
                             1715.86  1725.76  1739.10  1769.66  1781.72
                             1813.58  1874.56  1882.20  1938.22  1947.94
                             1948.72  1965.94  2007.78  2020.17  2038.91
                             2054.72  2086.47  2117.44  2163.63  2165.67
                             2173.95  2178.51  2184.05  2193.40  2215.06
                             2226.03  2245.92  2260.35  2372.80  2400.96
                             2416.67  2522.67  4246.40  4308.11  4326.69
                             4342.37  4343.11  4382.01  4388.05  4412.99
                             4417.01  4437.89  4456.93  4468.26  4540.01
                             4564.23  4578.08  4592.80  4609.08  4619.15
                             5105.46  5134.03  5256.96

 Zero-point correction=                           0.334309 (Hartree/Particle)
 Thermal correction to Energy=                    0.352125
 Thermal correction to Enthalpy=                  0.353069
 Thermal correction to Gibbs Free Energy=         0.284849
 Sum of electronic and zero-point Energies=           -747.223540
 Sum of electronic and thermal Energies=              -747.205723
 Sum of electronic and thermal Enthalpies=            -747.204779
 Sum of electronic and thermal Free Energies=         -747.273000

                     E (Thermal)             CV                S
                      KCal/Mol        Cal/Mol-Kelvin    Cal/Mol-Kelvin
 Total                  220.962             66.386            143.582
 Electronic               0.000              0.000              0.000
 Translational            0.889              2.981             42.267
 Rotational               0.889              2.981             33.674
 Vibrational            219.184             60.424             67.641
 Vibration     1          0.593              1.987              7.499
 Vibration     2          0.593              1.985              6.526
 Vibration     3          0.593              1.984              5.965
 Vibration     4          0.594              1.982              5.349
 Vibration     5          0.597              1.973              4.446
 Vibration     6          0.599              1.966              4.037
 Vibration     7          0.601              1.958              3.719
 Vibration     8          0.611              1.925              2.965
 Vibration     9          0.625              1.879              2.434
 Vibration    10          0.630              1.866              2.319
 Vibration    11          0.646              1.814              1.980
 Vibration    12          0.652              1.795              1.878
 Vibration    13          0.656              1.784              1.823
 Vibration    14          0.681              1.706              1.519
 Vibration    15          0.702              1.647              1.342
 Vibration    16          0.724              1.585              1.187
 Vibration    17          0.725              1.580              1.176
 Vibration    18          0.747              1.520              1.052
 Vibration    19          0.766              1.470              0.962
 Vibration    20          0.781              1.432              0.900
 Vibration    21          0.799              1.384              0.829
 Vibration    22          0.832              1.305              0.723
 Vibration    23          0.870              1.218              0.623
 Vibration    24          0.890              1.173              0.577
 Vibration    25          0.924              1.100              0.508

 Optimization completed.
    -- Stationary point found.
 Normal termination of Gaussian 16 at Sun Dec 13 12:44:29 2020.

 ----------------------------------------------------------------------
 # B3LYP/6-311++G(d,p) empiricaldispersion=gd3bj scf=xqc pop=npa geom=c
 heck
 ----------------------------------------------------------------------

 ---------------------------------------
 CID_130778618_JID_7754_Energie_neutraal
 ---------------------------------------
 Structure from the checkpoint file:  "JID_7754.chk"
 Charge =  0 Multiplicity = 1

 SCF Done:  E(RB3LYP) =  -747.775743383     A.U. after   14 cycles
 Normal termination of Gaussian 16 at Sun Dec 13 12:51:08 2020.

 ----------------------------------------------------------------------
 # B3LYP/6-311++G(d,p) empiricaldispersion=gd3bj scf=xqc pop=npa geom=c
 heck
 ----------------------------------------------------------------------

 -------------------------------------
 CID_130778618_JID_7754_Energie_kation
 -------------------------------------
 Structure from the checkpoint file:  "JID_7754.chk"
 Charge =  1 Multiplicity = 2

 SCF Done:  E(UB3LYP) =  -747.491318817     A.U. after   30 cycles
 Normal termination of Gaussian 16 at Sun Dec 13 13:12:06 2020.
 Gaussian 16:  ES64L-G16RevA.03 25-Dec-2016

 ----------------------------------------------------------------------
 # B3LYP/6-311++G(d,p) empiricaldispersion=gd3bj scf=xqc pop=npa geom=c
 heck
 ----------------------------------------------------------------------

 ------------------------------------
 CID_130778618_JID_7754_Energie_anion
 ------------------------------------
 Structure from the checkpoint file:  "JID_7754.chk"
 Charge = -1 Multiplicity = 2

                         Standard orientation:
 ---------------------------------------------------------------------
 Center     Atomic      Atomic             Coordinates (Angstroms)
 Number     Number       Type             X           Y           Z
 ---------------------------------------------------------------------
      1          6           0       -2.529516    2.789104    0.206826
      2          7           0       -2.633425    1.358200    0.405022
      3          6           0       -3.625635    0.739543   -0.123957
      4          7           0       -4.583201    1.288676   -0.987730
      5          7           0       -3.856587   -0.607865    0.115643
      6          6           0       -2.878015   -1.429656    0.823286
      7          6           0       -1.960248   -2.244365   -0.098288
      8          6           0       -1.054021   -1.417638   -1.019769
      9          6           0       -0.008141   -0.596505   -0.279356
     10          8           0        0.785991   -1.486577    0.506475
     11          6           0        1.715905   -0.815545    1.333359
     12          6           0        2.861116   -0.179533    0.568627
     13          6           0        3.406434    1.041234    0.973486
     14          6           0        4.486710    1.600048    0.288271
     15          6           0        5.023700    0.945718   -0.820431
     16          6           0        4.475790   -0.269552   -1.238259
     17          6           0        3.403568   -0.829085   -0.546104
     18          1           0       -1.740910    3.184289    0.854494
     19          1           0       -3.455082    3.339790    0.457457
     20          1           0       -2.260540    3.054956   -0.828757
     21          1           0       -5.518231    0.919366   -0.855756
     22          1           0       -4.586701    2.300022   -1.010449
     23          1           0       -4.317388   -1.079667   -0.653943
     24          1           0       -2.301811   -0.753607    1.456269
     25          1           0       -3.422606   -2.117860    1.482309
     26          1           0       -1.334166   -2.890513    0.527433
     27          1           0       -2.581768   -2.912786   -0.712753
     28          1           0       -0.543385   -2.096350   -1.714773
     29          1           0       -1.654263   -0.729929   -1.628159
     30          1           0        0.626022   -0.057198   -0.998149
     31          1           0       -0.494318    0.148523    0.364156
     32          1           0        1.209630   -0.052128    1.946491
     33          1           0        2.102602   -1.582853    2.015518
     34          1           0        2.980362    1.560201    1.829437
     35          1           0        4.901068    2.550324    0.614199
     36          1           0        5.860189    1.381748   -1.359595
     37          1           0        4.885854   -0.781026   -2.105100
     38          1           0        2.964119   -1.768372   -0.868826
 ---------------------------------------------------------------------

 SCF Done:  E(UB3LYP) =  -747.765459688     A.U. after   33 cycles
 SCF Done:  E(UB3LYP) =  -747.765459688     a.u. after    1 cycles

 The electronic state is 2-A.
 Alpha  occ. eigenvalues --  -19.03639 -14.22329 -14.22067 -14.17083 -10.16410
 Alpha  occ. eigenvalues --  -10.13789 -10.11176 -10.10113 -10.10001 -10.09597
 Alpha  occ. eigenvalues --  -10.09568 -10.09478 -10.09405 -10.09162 -10.08736
 Alpha  occ. eigenvalues --  -10.07390 -10.07253  -0.94910  -0.88096  -0.79166
 Alpha  occ. eigenvalues --   -0.77837  -0.76269  -0.70370  -0.68126  -0.66741
 Alpha  occ. eigenvalues --   -0.63292  -0.59596  -0.58281  -0.54888  -0.52814
 Alpha  occ. eigenvalues --   -0.50657  -0.48398  -0.46597  -0.43897  -0.43368
 Alpha  occ. eigenvalues --   -0.41736  -0.40687  -0.39178  -0.38591  -0.37604
 Alpha  occ. eigenvalues --   -0.35988  -0.35276  -0.35034  -0.34446  -0.34171
 Alpha  occ. eigenvalues --   -0.33373  -0.32115  -0.31460  -0.30078  -0.29556
 Alpha  occ. eigenvalues --   -0.28094  -0.27943  -0.26838  -0.26481  -0.25569
 Alpha  occ. eigenvalues --   -0.24620  -0.24373  -0.22384  -0.17845  -0.17689
 Alpha  occ. eigenvalues --   -0.16883  -0.16544  -0.14940  -0.12465   0.03822
 Alpha virt. eigenvalues --    0.04967   0.05995   0.06278   0.06433   0.06832
 Alpha virt. eigenvalues --    0.07212   0.08110   0.08407   0.08987   0.09264
 Alpha virt. eigenvalues --    0.10133   0.10396   0.10659   0.11314   0.11834

  Beta  occ. eigenvalues --  -19.03637 -14.22304 -14.21995 -14.17080 -10.16407
  Beta  occ. eigenvalues --  -10.13785 -10.11173 -10.10109 -10.10001 -10.09589
  Beta  occ. eigenvalues --  -10.09555 -10.09472 -10.09392 -10.09156 -10.08708
  Beta  occ. eigenvalues --  -10.07384 -10.07247  -0.94907  -0.88056  -0.79112
  Beta  occ. eigenvalues --   -0.77820  -0.76202  -0.70353  -0.68106  -0.66719
  Beta  occ. eigenvalues --   -0.63271  -0.59559  -0.58245  -0.54864  -0.52789
  Beta  occ. eigenvalues --   -0.50633  -0.48367  -0.46540  -0.43864  -0.43275
  Beta  occ. eigenvalues --   -0.41679  -0.40672  -0.39159  -0.38576  -0.37579
  Beta  occ. eigenvalues --   -0.35969  -0.35248  -0.34994  -0.34406  -0.34149
  Beta  occ. eigenvalues --   -0.33347  -0.32093  -0.31443  -0.30053  -0.29539
  Beta  occ. eigenvalues --   -0.28075  -0.27923  -0.26814  -0.26455  -0.25557
  Beta  occ. eigenvalues --   -0.24606  -0.24354  -0.22374  -0.17839  -0.17671
  Beta  occ. eigenvalues --   -0.16867  -0.16497  -0.14918  -0.12445
  Beta virt. eigenvalues --    0.05585   0.06025   0.06355   0.06467   0.06737
  Beta virt. eigenvalues --    0.07302   0.07611   0.08257   0.08969   0.09193
  Beta virt. eigenvalues --    0.09523   0.10131   0.10478   0.11048   0.11583

 Mulliken charges and spin densities:
               1          2
     1  C    0.417198  -0.849541
     2  N   -0.179166   0.011554
     3  C    0.604620  -0.847722
     4  N   -0.486862   0.147810
     5  N   -0.106719   0.031747
     6  C   -0.061975  -0.175850
     7  C   -0.227189  -0.210870
     8  C    0.210704  -0.187038
     9  C   -0.788054   0.021183
    10  O   -0.018419  -0.003146
    11  C    0.230305  -0.745855
    12  C    0.727020   0.176960
    13  C   -1.045097   0.600448
    14  C    0.030640  -0.402561
    15  C    0.878597  -1.263637
    16  C   -0.247996  -0.042100
    17  C   -0.213093   0.368894
    18  H    0.042133   0.084408
    19  H   -0.258885   0.375008
    20  H   -0.060471   0.226217
    21  H   -0.520694   0.780380
    22  H   -0.133334   0.392202
    23  H   -0.071603   0.310418
    24  H    0.231366  -0.039906
    25  H   -0.056503   0.243576
    26  H    0.163643  -0.024785
    27  H    0.001396   0.148941
    28  H    0.052682   0.121928
    29  H    0.002943   0.180316
    30  H    0.195224  -0.068651
    31  H    0.242036  -0.088975
    32  H    0.089512   0.055839
    33  H    0.117884   0.062267
    34  H    0.008894   0.140787
    35  H   -0.388106   0.567726
    36  H   -0.320086   0.473168
    37  H   -0.207511   0.383665
    38  H    0.144969   0.045200
 Sum of Mulliken charges =  -1.00000   1.00000

 Dipole moment (field-independent basis, Debye):
    X=              5.3033    Y=             -4.3046    Z=              2.6498  Tot=              7.3264
 Quadrupole moment (field-independent basis, Debye-Ang):
   XX=           -243.8703   YY=           -146.8674   ZZ=           -132.9549
   XY=              3.8569   XZ=             -3.6586   YZ=              1.9263

 Summary of Natural Population Analysis:

                                       Natural Population
                Natural  -----------------------------------------------
    Atom  No    Charge         Core      Valence    Rydberg      Total
 -----------------------------------------------------------------------
      C    1   -0.19170      0.99964     2.18258    0.00948     3.19170
      N    2   -0.32000      0.99963     2.80865    0.01172     3.82000
      C    3    0.31141      0.99958     1.67194    0.01706     2.68859
      N    4   -0.41537      0.99972     2.90540    0.01025     3.91537
      N    5   -0.32720      0.99968     2.81457    0.01295     3.82720
      C    6   -0.09142      0.99961     2.07987    0.01194     3.09142
      C    7   -0.19662      0.99962     2.18858    0.00842     3.19662
      C    8   -0.20041      0.99962     2.19179    0.00901     3.20041
      C    9   -0.02128      0.99957     2.01090    0.01081     3.02128
      O   10   -0.30375      0.99989     3.29573    0.00813     4.30375
      C   11   -0.01201      0.99954     2.00057    0.01190     3.01201
      C   12   -0.03182      0.99950     2.02307    0.00926     3.03182
      C   13   -0.10201      0.99951     2.09209    0.01041     3.10201
      C   14   -0.09858      0.99957     2.08850    0.01052     3.09858
      C   15   -0.10427      0.99956     2.09478    0.00993     3.10427
      C   16   -0.09982      0.99957     2.08937    0.01089     3.09982
      C   17   -0.10017      0.99951     2.09204    0.00863     3.10017
      H   18    0.09352      0.00000     0.40528    0.00120     0.40648
      H   19    0.08308      0.00000     0.41531    0.00161     0.41692
      H   20    0.08740      0.00000     0.41143    0.00117     0.41260
      H   21    0.19421      0.00000     0.29550    0.01029     0.30579
      H   22    0.19247      0.00000     0.30376    0.00377     0.30753
      H   23    0.18616      0.00000     0.31070    0.00313     0.31384
      H   24    0.11012      0.00000     0.38797    0.00191     0.38988
      H   25    0.09006      0.00000     0.40902    0.00092     0.40994
      H   26    0.10334      0.00000     0.39545    0.00120     0.39666
      H   27    0.09256      0.00000     0.40628    0.00116     0.40744
      H   28    0.09664      0.00000     0.40228    0.00108     0.40336
      H   29    0.10444      0.00000     0.39447    0.00110     0.39556
      H   30    0.08304      0.00000     0.41564    0.00133     0.41696
      H   31    0.09807      0.00000     0.40007    0.00185     0.40193
      H   32    0.08390      0.00000     0.41467    0.00143     0.41610
      H   33    0.09339      0.00000     0.40554    0.00106     0.40661
      H   34    0.10082      0.00000     0.39813    0.00106     0.39918
      H   35    0.10226      0.00000     0.39663    0.00112     0.39774
      H   36    0.10241      0.00000     0.39632    0.00126     0.39759
      H   37    0.10090      0.00000     0.39826    0.00084     0.39910
      H   38    0.10623      0.00000     0.39200    0.00177     0.39377
 =======================================================================
   * Total *    0.00000     16.99332    46.78513    0.22155    64.00000

 Normal termination of Gaussian 16 at Sun Dec 13 13:35:24 2020.
