 Gaussian 16, Revision A.03,

 -----------------------------------------------------------
 # opt freq B3LYP/6-31G(d) empiricaldispersion=gd3bj scf=xqc
 -----------------------------------------------------------

 -------------------------------
 CID_148126280_JID_1528_neutraal
 -------------------------------
 Symbolic Z-matrix:
 Charge =  0 Multiplicity = 1

 SCF Done:  E(RB3LYP) =  -459.669263087     A.U. after   15 cycles
 SCF Done:  E(RB3LYP) =  -459.676171988     A.U. after   14 cycles
 SCF Done:  E(RB3LYP) =  -459.677399397     A.U. after   13 cycles
 SCF Done:  E(RB3LYP) =  -459.676198552     A.U. after   13 cycles
 SCF Done:  E(RB3LYP) =  -459.678575126     A.U. after   13 cycles
 SCF Done:  E(RB3LYP) =  -459.679014098     A.U. after   12 cycles
 SCF Done:  E(RB3LYP) =  -459.679125165     A.U. after   11 cycles
 SCF Done:  E(RB3LYP) =  -459.679191333     A.U. after   10 cycles
 SCF Done:  E(RB3LYP) =  -459.679232157     A.U. after   10 cycles
 SCF Done:  E(RB3LYP) =  -459.679278028     A.U. after   10 cycles
 SCF Done:  E(RB3LYP) =  -459.679372021     A.U. after   10 cycles
 SCF Done:  E(RB3LYP) =  -459.679376387     A.U. after    9 cycles
 SCF Done:  E(RB3LYP) =  -459.679377108     A.U. after    8 cycles
 SCF Done:  E(RB3LYP) =  -459.679377327     A.U. after    8 cycles
 SCF Done:  E(RB3LYP) =  -459.679377352     A.U. after    7 cycles
 Optimization completed.
    -- Stationary point found.

 1\1\GINC-NODE104\FOpt\RB3LYP\6-31G(d)\C9H12N2\VSC10255\08-Dec-2020\0\\
 # opt freq B3LYP/6-31G(d) empiricaldispersion=gd3bj scf=xqc\\CID_14812
 6280_JID_1528_neutraal\\0,1\C,1.1151341201,0.4016658262,-0.4681699185\
 C,-0.3085054427,0.8631671342,-0.4562968429\N,-1.354926941,0.2369880006
 ,-0.8520428432\C,-1.3164633773,-1.0194229491,-1.4340654598\C,-0.581585
 1517,-1.6183234751,-2.4751222868\C,-1.0923283406,-2.9491281336,-2.6075
 404614\C,-2.106516974,-3.1147812057,-1.6966547377\N,-2.2604031276,-1.9
 35292719,-1.0048101923\C,-3.1704095763,-1.7149676493,0.1024221283\C,0.

 Normal termination of Gaussian 16 at Tue Dec  8 20:20:42 2020.

 --------------------------------------------------------------------
 #N Geom=AllCheck Guess=TCheck SCRF=Check GenChk RB3LYP/6-31G(d) Freq
 --------------------------------------------------------------------

 Structure from the checkpoint file:  "JID_1528.chk"
 -------------------------------
 CID_148126280_JID_1528_neutraal
 -------------------------------
 Charge =  0 Multiplicity = 1

 SCF Done:  E(RB3LYP) =  -459.679377352     A.U. after    1 cycles

  Exact polarizability: 146.136   6.776 121.263  -6.438  -6.274  64.182
 Approx polarizability: 227.438  17.625 190.097 -13.570 -17.909 100.395

                      1                      2                      3
                      A                      A                      A
 Frequencies --     84.7314               104.5809               115.2761
 Red. masses --      2.9791                 3.1960                 1.0906
 Frc consts  --      0.0126                 0.0206                 0.0085
 IR Inten    --      5.5074                 0.1698                 0.4742

                      4                      5                      6
                      A                      A                      A
 Frequencies --    157.5913               176.4988               184.9303
 Red. masses --      2.2784                 3.4962                 2.1885
 Frc consts  --      0.0333                 0.0642                 0.0441
 IR Inten    --      2.1038                 4.3159                 1.7033

                      7                      8                      9
                      A                      A                      A
 Frequencies --    198.9215               238.1342               260.3339
 Red. masses --      1.4093                 2.5344                 2.4941
 Frc consts  --      0.0329                 0.0847                 0.0996
 IR Inten    --      3.2497                 0.4413                 2.6054

                     10                     11                     12
                      A                      A                      A
 Frequencies --    310.5633               377.0494               472.1673
 Red. masses --      3.2684                 3.0404                 3.8111
 Frc consts  --      0.1857                 0.2547                 0.5006
 IR Inten    --      3.8561                 0.4508                 4.3467

                     13                     14                     15
                      A                      A                      A
 Frequencies --    516.9867               565.0765               604.1302
 Red. masses --      3.6944                 3.1369                 3.2976
 Frc consts  --      0.5818                 0.5902                 0.7091
 IR Inten    --      1.1773                 1.1636                 2.0542

                     16                     17                     18
                      A                      A                      A
 Frequencies --    625.8282               666.4153               693.1122
 Red. masses --      3.3042                 2.6820                 1.3449
 Frc consts  --      0.7625                 0.7018                 0.3807
 IR Inten    --      0.7056                12.7540                18.1111

                     19                     20                     21
                      A                      A                      A
 Frequencies --    707.2974               752.4637               795.5810
 Red. masses --      4.0377                 2.3459                 4.0513
 Frc consts  --      1.1901                 0.7826                 1.5108
 IR Inten    --     17.9594                15.4357                 3.0548

                     22                     23                     24
                      A                      A                      A
 Frequencies --    824.2446               846.6234               900.9157
 Red. masses --      1.3515                 1.3618                 1.3825
 Frc consts  --      0.5410                 0.5751                 0.6611
 IR Inten    --      6.0522                 2.7898                30.6522

                     25                     26                     27
                      A                      A                      A
 Frequencies --    952.4570              1016.1735              1037.0643
 Red. masses --      2.1116                 2.1385                 1.1062
 Frc consts  --      1.1286                 1.3010                 0.7010
 IR Inten    --      8.5572                 8.5889                12.5846

                     28                     29                     30
                      A                      A                      A
 Frequencies --   1049.9613              1090.5952              1111.1849
 Red. masses --      1.7074                 1.5953                 1.1974
 Frc consts  --      1.1090                 1.1180                 0.8711
 IR Inten    --      3.7425                 2.7584                 5.8306

                     31                     32                     33
                      A                      A                      A
 Frequencies --   1127.1810              1151.6822              1160.8562
 Red. masses --      2.0519                 2.1866                 1.3219
 Frc consts  --      1.5360                 1.7088                 1.0496
 IR Inten    --      8.6072                 5.2988                13.5535

                     34                     35                     36
                      A                      A                      A
 Frequencies --   1213.7828              1258.7524              1348.4414
 Red. masses --      2.2572                 2.3661                 1.4400
 Frc consts  --      1.9593                 2.2088                 1.5427
 IR Inten    --      7.0878                 9.8300                 9.6969

                     37                     38                     39
                      A                      A                      A
 Frequencies --   1362.9524              1408.5464              1417.6666
 Red. masses --      3.3156                 3.5724                 1.3409
 Frc consts  --      3.6289                 4.1760                 1.5878
 IR Inten    --     42.3882                14.2070                 3.4736

                     40                     41                     42
                      A                      A                      A
 Frequencies --   1434.8253              1456.6062              1474.2029
 Red. masses --      1.7857                 1.4564                 1.3728
 Frc consts  --      2.1660                 1.8206                 1.7578
 IR Inten    --      9.0488                13.3501                 3.0847

                     43                     44                     45
                      A                      A                      A
 Frequencies --   1488.0524              1498.4487              1503.6381
 Red. masses --      1.3162                 1.1914                 1.2087
 Frc consts  --      1.7172                 1.5761                 1.6101
 IR Inten    --     20.9861                12.7447                 6.4258

                     46                     47                     48
                      A                      A                      A
 Frequencies --   1511.7095              1541.2468              1546.2827
 Red. masses --      1.1281                 1.5891                 1.6597
 Frc consts  --      1.5189                 2.2241                 2.3381
 IR Inten    --     25.4229                47.5181                14.7395

                     49                     50                     51
                      A                      A                      A
 Frequencies --   1578.5939              1700.3174              1719.2845
 Red. masses --      4.3839                 5.1334                 6.8155
 Frc consts  --      6.4365                 8.7442                11.8698
 IR Inten    --      9.3833                19.7830                58.0294

                     52                     53                     54
                      A                      A                      A
 Frequencies --   3035.7185              3052.5455              3097.8943
 Red. masses --      1.0414                 1.0425                 1.0926
 Frc consts  --      5.6547                 5.7233                 6.1778
 IR Inten    --     13.7296                63.6855                12.5243

                     55                     56                     57
                      A                      A                      A
 Frequencies --   3108.8469              3125.4862              3139.7483
 Red. masses --      1.0879                 1.0944                 1.0855
 Frc consts  --      6.1952                 6.2987                 6.3048
 IR Inten    --     33.3541                21.4158                25.0544

                     58                     59                     60
                      A                      A                      A
 Frequencies --   3143.6397              3170.0774              3172.4765
 Red. masses --      1.1024                 1.1039                 1.0611
 Frc consts  --      6.4189                 6.5363                 6.2920
 IR Inten    --     14.7404                 4.3197                 4.9749

                     61                     62                     63
                      A                      A                      A
 Frequencies --   3250.5301              3251.8204              3277.1760
 Red. masses --      1.0918                 1.1155                 1.1021
 Frc consts  --      6.7968                 6.9497                 6.9737
 IR Inten    --      3.1269                18.3113                 4.0315

 - Thermochemistry -
 -------------------
 Temperature   298.150 Kelvin.  Pressure   1.00000 Atm.
 Atom     1 has atomic number  6 and mass  12.00000

 Molecular mass:   148.10005 amu.
 Principal axes and moments of inertia in atomic units:
                           1         2         3
     Eigenvalues --  1162.346631714.222252561.18111
           X            0.99979  -0.01966   0.00572
           Y            0.01964   0.99980   0.00434
           Z           -0.00581  -0.00423   0.99997
 This molecule is an asymmetric top.
 Rotational symmetry number  1.
 Warning -- assumption of classical behavior for rotation
           may cause significant error
 Rotational temperatures (Kelvin)      0.07452     0.05053     0.03382
 Rotational constants (GHZ):           1.55267     1.05280     0.70465
 Zero-point vibrational energy     509405.3 (Joules/Mol)
                                  121.75079 (Kcal/Mol)
 Warning -- explicit consideration of  15 degrees of freedom as
           vibrations may cause significant error
 Vibrational temperatures:    121.91   150.47   165.86   226.74   253.94
          (Kelvin)            266.07   286.20   342.62   374.56   446.83
                              542.49   679.34   743.83   813.02   869.21
                              900.43   958.82   997.23  1017.64  1082.63
                             1144.66  1185.90  1218.10  1296.22  1370.37
                             1462.05  1492.10  1510.66  1569.12  1598.75
                             1621.76  1657.01  1670.21  1746.36  1811.06
                             1940.11  1960.98  2026.58  2039.71  2064.39
                             2095.73  2121.05  2140.98  2155.93  2163.40
                             2175.01  2217.51  2224.76  2271.24  2446.38
                             2473.67  4367.72  4391.93  4457.18  4472.94
                             4496.88  4517.40  4523.00  4561.03  4564.49
                             4676.79  4678.64  4715.13

 Zero-point correction=                           0.194022 (Hartree/Particle)
 Thermal correction to Energy=                    0.205167
 Thermal correction to Enthalpy=                  0.206111
 Thermal correction to Gibbs Free Energy=         0.157637
 Sum of electronic and zero-point Energies=           -459.485355
 Sum of electronic and thermal Energies=              -459.474210
 Sum of electronic and thermal Enthalpies=            -459.473266
 Sum of electronic and thermal Free Energies=         -459.521740

                     E (Thermal)             CV                S
                      KCal/Mol        Cal/Mol-Kelvin    Cal/Mol-Kelvin
 Total                  128.744             41.609            102.023
 Electronic               0.000              0.000              0.000
 Translational            0.889              2.981             40.889
 Rotational               0.889              2.981             30.013
 Vibrational            126.967             35.647             31.121
 Vibration     1          0.601              1.960              3.778
 Vibration     2          0.605              1.946              3.367
 Vibration     3          0.608              1.937              3.178
 Vibration     4          0.621              1.894              2.579
 Vibration     5          0.628              1.871              2.365
 Vibration     6          0.631              1.860              2.278
 Vibration     7          0.637              1.841              2.143
 Vibration     8          0.656              1.782              1.817
 Vibration     9          0.668              1.745              1.660
 Vibration    10          0.699              1.654              1.359
 Vibration    11          0.748              1.519              1.051
 Vibration    12          0.829              1.312              0.732
 Vibration    13          0.872              1.212              0.617
 Vibration    14          0.921              1.107              0.514
 Vibration    15          0.963              1.023              0.443

 Optimization completed.
    -- Stationary point found.

 1\1\GINC-NODE104\Freq\RB3LYP\6-31G(d)\C9H12N2\VSC10255\08-Dec-2020\0\\
 #N Geom=AllCheck Guess=TCheck SCRF=Check GenChk RB3LYP/6-31G(d) Freq\\
 CID_148126280_JID_1528_neutraal\\0,1\C,1.1151341201,0.4016658262,-0.46
 81699185\C,-0.3085054427,0.8631671342,-0.4562968429\N,-1.354926941,0.2
 369880006,-0.8520428432\C,-1.3164633773,-1.0194229491,-1.4340654598\C,
 -0.5815851517,-1.6183234751,-2.4751222868\C,-1.0923283406,-2.949128133
 6,-2.6075404614\C,-2.106516974,-3.1147812057,-1.6966547377\N,-2.260403
 1276,-1.935292719,-1.0048101923\C,-3.1704095763,-1.7149676493,0.102422

 Normal termination of Gaussian 16 at Tue Dec  8 20:25:36 2020.

 ----------------------------------------------------------------------
 # B3LYP/6-311++G(d,p) empiricaldispersion=gd3bj scf=xqc pop=npa geom=c
 heck
 ----------------------------------------------------------------------

 ---------------------------------------
 CID_148126280_JID_1528_Energie_neutraal
 ---------------------------------------
 Structure from the checkpoint file:  "JID_1528.chk"
 Charge =  0 Multiplicity = 1

 SCF Done:  E(RB3LYP) =  -459.802818395     A.U. after   15 cycles
 Normal termination of Gaussian 16 at Tue Dec  8 20:28:11 2020.

 ----------------------------------------------------------------------
 # B3LYP/6-311++G(d,p) empiricaldispersion=gd3bj scf=xqc pop=npa geom=c
 heck
 ----------------------------------------------------------------------

 -------------------------------------
 CID_148126280_JID_1528_Energie_kation
 -------------------------------------
 Structure from the checkpoint file:  "JID_1528.chk"
 Charge =  1 Multiplicity = 2

 SCF Done:  E(UB3LYP) =  -459.542042738     A.U. after   23 cycles
 Normal termination of Gaussian 16 at Tue Dec  8 20:34:07 2020.
 Gaussian 16:  ES64L-G16RevA.03 25-Dec-2016

 ------------------------------------
 CID_148126280_JID_1528_Energie_anion
 ------------------------------------
 Structure from the checkpoint file:  "JID_1528.chk"
 Charge = -1 Multiplicity = 2

                         Standard orientation:
 ---------------------------------------------------------------------
 Center     Atomic      Atomic             Coordinates (Angstroms)
 Number     Number       Type             X           Y           Z
 ---------------------------------------------------------------------
      1          6           0        2.030128    1.410647    1.086424
      2          6           0        1.248363    1.894090   -0.094678
      3          7           0        0.207131    1.373063   -0.631409
      4          6           0       -0.355513    0.181809   -0.203456
      5          6           0        0.128866   -1.110097    0.077402
      6          6           0       -1.016387   -1.898459    0.418454
      7          6           0       -2.132620   -1.105325    0.315044
      8          7           0       -1.733881    0.148140   -0.089130
      9          6           0       -2.596189    1.304211   -0.239271
     10          6           0        1.461699   -1.673177   -0.075197
     11          6           0        2.490417   -1.200741   -0.796126
     12          1           0        1.425183    0.752610    1.717102
     13          1           0        2.397049    2.262240    1.669637
     14          1           0        2.898744    0.823415    0.757392
     15          1           0        1.594893    2.822429   -0.558055
     16          1           0       -1.000526   -2.950503    0.670066
     17          1           0       -3.176269   -1.315417    0.499104
     18          1           0       -2.670832    1.878020    0.692458
     19          1           0       -2.183801    1.951387   -1.015133
     20          1           0       -3.593836    0.966824   -0.530811
     21          1           0        1.596584   -2.625756    0.438599
     22          1           0        3.428766   -1.744039   -0.849528
     23          1           0        2.418710   -0.287384   -1.378639
 ---------------------------------------------------------------------

 SCF Done:  E(UB3LYP) =  -459.788809688     A.U. after   33 cycles
 SCF Done:  E(UB3LYP) =  -459.788809688     a.u. after    1 cycles

 The electronic state is 2-A.
 Alpha  occ. eigenvalues --  -14.23475 -14.18093 -10.09716 -10.08572 -10.08066
 Alpha  occ. eigenvalues --  -10.06961 -10.05513 -10.04330 -10.04112 -10.03886
 Alpha  occ. eigenvalues --  -10.03408  -0.87196  -0.79147  -0.69472  -0.64470
 Alpha  occ. eigenvalues --   -0.62608  -0.58281  -0.56855  -0.49636  -0.47028
 Alpha  occ. eigenvalues --   -0.45182  -0.39464  -0.38189  -0.34959  -0.34009
 Alpha  occ. eigenvalues --   -0.32756  -0.32550  -0.31061  -0.30319  -0.30088
 Alpha  occ. eigenvalues --   -0.27346  -0.26013  -0.25907  -0.25542  -0.23561
 Alpha  occ. eigenvalues --   -0.19355  -0.17594  -0.14832  -0.10599  -0.07292
 Alpha  occ. eigenvalues --    0.05179
 Alpha virt. eigenvalues --    0.07198   0.08054   0.08421   0.09366   0.09812
 Alpha virt. eigenvalues --    0.10276   0.10826   0.11179   0.12385   0.12682
 Alpha virt. eigenvalues --    0.13383   0.13683   0.14559   0.15239   0.16009

  Beta  occ. eigenvalues --  -14.23397 -14.18049 -10.09659 -10.08527 -10.07788
  Beta  occ. eigenvalues --  -10.06950 -10.05488 -10.04325 -10.04081 -10.03893
  Beta  occ. eigenvalues --  -10.03325  -0.87063  -0.78903  -0.69384  -0.64361
  Beta  occ. eigenvalues --   -0.62345  -0.58204  -0.56750  -0.49388  -0.46824
  Beta  occ. eigenvalues --   -0.45108  -0.39332  -0.38002  -0.34787  -0.33901
  Beta  occ. eigenvalues --   -0.32604  -0.32457  -0.30947  -0.30217  -0.29792
  Beta  occ. eigenvalues --   -0.27283  -0.25918  -0.25790  -0.25436  -0.23478
  Beta  occ. eigenvalues --   -0.18843  -0.17241  -0.14579  -0.10319  -0.06874
  Beta virt. eigenvalues --    0.07726   0.08367   0.08622   0.09175   0.09781
  Beta virt. eigenvalues --    0.10414   0.10579   0.11416   0.11824   0.12473
  Beta virt. eigenvalues --    0.12810   0.13698   0.13746   0.14673   0.15433

 Mulliken charges and spin densities:
               1          2
     1  C    0.562133  -1.019885
     2  C   -0.192179   0.301583
     3  N   -0.118379   0.060411
     4  C   -0.871456  -0.137509
     5  C    0.829839   0.122119
     6  C    0.505909  -0.640570
     7  C   -0.122405  -0.003034
     8  N   -0.039051   0.232648
     9  C    0.923570  -1.208361
    10  C   -0.555580   0.128592
    11  C   -0.337326  -0.198455
    12  H    0.018993   0.123134
    13  H   -0.367530   0.510177
    14  H    0.056117   0.120402
    15  H   -0.431672   0.597179
    16  H    0.074144   0.047872
    17  H   -0.426629   0.569175
    18  H   -0.534423   0.725993
    19  H   -0.019087   0.198188
    20  H   -0.293408   0.420145
    21  H    0.091293   0.048035
    22  H    0.035692   0.062139
    23  H    0.211437  -0.059977
 Sum of Mulliken charges =  -1.00000   1.00000

 Dipole moment (field-independent basis, Debye):
    X=              1.4604    Y=             -3.8574    Z=             -1.1145  Tot=              4.2725
 Quadrupole moment (field-independent basis, Debye-Ang):
   XX=           -116.6392   YY=           -102.0667   ZZ=            -92.4363
   XY=             -1.6685   XZ=              3.0552   YZ=             -4.6548

 Summary of Natural Population Analysis:

                                       Natural Population
                Natural  -----------------------------------------------
    Atom  No    Charge         Core      Valence    Rydberg      Total
 -----------------------------------------------------------------------
      C    1   -0.33207      0.99965     2.32649    0.00592     3.33207
      C    2    0.13489      0.99963     1.85013    0.01536     2.86511
      N    3   -0.24998      0.99964     2.73867    0.01167     3.74998
      C    4    0.18391      0.99945     1.80080    0.01585     2.81609
      C    5   -0.09265      0.99947     2.08273    0.01045     3.09265
      C    6   -0.13659      0.99954     2.12730    0.00975     3.13659
      C    7   -0.02248      0.99956     2.01029    0.01263     3.02248
      N    8   -0.19346      0.99962     2.68336    0.01048     3.69346
      C    9   -0.17423      0.99964     2.16658    0.00801     3.17423
      C   10   -0.08755      0.99956     2.07896    0.00902     3.08755
      C   11   -0.19873      0.99959     2.19128    0.00786     3.19873
      H   12    0.10953      0.00000     0.38932    0.00115     0.39047
      H   13    0.10342      0.00000     0.39461    0.00197     0.39658
      H   14    0.11574      0.00000     0.38295    0.00131     0.38426
      H   15    0.07261      0.00000     0.42598    0.00142     0.42739
      H   16    0.09875      0.00000     0.40046    0.00079     0.40125
      H   17    0.09720      0.00000     0.40179    0.00101     0.40280
      H   18    0.09875      0.00000     0.39826    0.00299     0.40125
      H   19    0.10942      0.00000     0.38922    0.00136     0.39058
      H   20    0.09489      0.00000     0.40372    0.00139     0.40511
      H   21    0.08796      0.00000     0.41052    0.00151     0.41204
      H   22    0.08651      0.00000     0.41246    0.00103     0.41349
      H   23    0.09413      0.00000     0.40468    0.00119     0.40587
 =======================================================================
   * Total *    0.00000     10.99535    28.87055    0.13411    40.00000

 Normal termination of Gaussian 16 at Tue Dec  8 20:41:56 2020.
