 Gaussian 16, Revision A.03,

 -----------------------------------------------------------
 # opt freq B3LYP/6-31G(d) empiricaldispersion=gd3bj scf=xqc
 -----------------------------------------------------------

 ------------------------------
 CID_23342130_JID_1065_neutraal
 ------------------------------
 Symbolic Z-matrix:
 Charge =  0 Multiplicity = 1

 SCF Done:  E(RB3LYP) =  -500.450088292     A.U. after   13 cycles
 SCF Done:  E(RB3LYP) =  -500.454629026     A.U. after   11 cycles
 SCF Done:  E(RB3LYP) =  -500.454696962     A.U. after   11 cycles
 SCF Done:  E(RB3LYP) =  -500.454721481     A.U. after   11 cycles
 SCF Done:  E(RB3LYP) =  -500.455496918     A.U. after   10 cycles
 SCF Done:  E(RB3LYP) =  -500.455522574     A.U. after   10 cycles
 SCF Done:  E(RB3LYP) =  -500.455550544     A.U. after    9 cycles
 SCF Done:  E(RB3LYP) =  -500.455559705     A.U. after    8 cycles
 SCF Done:  E(RB3LYP) =  -500.455564680     A.U. after    8 cycles
 SCF Done:  E(RB3LYP) =  -500.455566416     A.U. after    7 cycles
 SCF Done:  E(RB3LYP) =  -500.455566972     A.U. after    7 cycles
 Optimization completed.
    -- Stationary point found.
 Normal termination of Gaussian 16 at Tue Dec  8 19:13:18 2020.

 --------------------------------------------------------------------
 #N Geom=AllCheck Guess=TCheck SCRF=Check GenChk RB3LYP/6-31G(d) Freq
 --------------------------------------------------------------------

 Structure from the checkpoint file:  "JID_1065.chk"
 ------------------------------
 CID_23342130_JID_1065_neutraal
 ------------------------------
 Charge =  0 Multiplicity = 1

 SCF Done:  E(RB3LYP) =  -500.455566972     A.U. after    1 cycles

  Exact polarizability: 104.393   1.497  97.724  -1.159   0.748  91.909
 Approx polarizability: 139.112  -0.241 137.687   0.935  -0.986 135.383

                      1                      2                      3
                      A                      A                      A
 Frequencies --    103.5860               130.4240               180.7228
 Red. masses --      2.9278                 3.3006                 3.0296
 Frc consts  --      0.0185                 0.0331                 0.0583
 IR Inten    --      1.0626                 1.7429                 0.5519

                      4                      5                      6
                      A                      A                      A
 Frequencies --    203.7585               245.1214               252.0233
 Red. masses --      3.3709                 1.3691                 1.4458
 Frc consts  --      0.0825                 0.0485                 0.0541
 IR Inten    --      8.1933                20.4371                 1.0355

                      7                      8                      9
                      A                      A                      A
 Frequencies --    265.5500               296.3679               309.8530
 Red. masses --      1.2873                 2.1807                 1.7246
 Frc consts  --      0.0535                 0.1129                 0.0976
 IR Inten    --     15.7784                 9.8528                22.4755

                     10                     11                     12
                      A                      A                      A
 Frequencies --    332.2561               347.2145               370.8567
 Red. masses --      2.8866                 1.8813                 1.8885
 Frc consts  --      0.1877                 0.1336                 0.1530
 IR Inten    --      1.6922                 7.8486                11.9292

                     13                     14                     15
                      A                      A                      A
 Frequencies --    396.8416               427.4061               456.7495
 Red. masses --      2.1725                 1.7548                 1.9402
 Frc consts  --      0.2016                 0.1889                 0.2385
 IR Inten    --     23.6994                21.4518                37.1542

                     16                     17                     18
                      A                      A                      A
 Frequencies --    487.1103               513.2643               548.4087
 Red. masses --      2.5617                 2.0837                 3.2612
 Frc consts  --      0.3581                 0.3234                 0.5779
 IR Inten    --      7.3305                35.1911                21.1041

                     19                     20                     21
                      A                      A                      A
 Frequencies --    592.9766               631.2372               734.8632
 Red. masses --      2.6185                 2.7748                 2.8018
 Frc consts  --      0.5425                 0.6514                 0.8914
 IR Inten    --      0.2980                 6.9183                 2.5600

                     22                     23                     24
                      A                      A                      A
 Frequencies --    805.7354               841.3519               861.4724
 Red. masses --      1.9055                 2.0869                 2.6004
 Frc consts  --      0.7289                 0.8704                 1.1370
 IR Inten    --      0.6936                 5.8923                 0.6828

                     25                     26                     27
                      A                      A                      A
 Frequencies --    912.8785               921.0312               934.5990
 Red. masses --      2.0592                 1.6270                 1.9146
 Frc consts  --      1.0110                 0.8132                 0.9853
 IR Inten    --      7.3401                13.4584                88.6091

                     28                     29                     30
                      A                      A                      A
 Frequencies --    955.1022               977.3486               985.0114
 Red. masses --      2.0439                 1.5654                 1.7147
 Frc consts  --      1.0986                 0.8810                 0.9802
 IR Inten    --     32.1980                80.5628               121.8619

                     31                     32                     33
                      A                      A                      A
 Frequencies --   1012.1434              1029.0711              1062.3585
 Red. masses --      2.0744                 1.4797                 1.7301
 Frc consts  --      1.2521                 0.9232                 1.1504
 IR Inten    --     51.5258                15.9239                 1.2657

                     34                     35                     36
                      A                      A                      A
 Frequencies --   1078.3904              1093.9283              1107.3453
 Red. masses --      2.0693                 1.6318                 1.9351
 Frc consts  --      1.4178                 1.1505                 1.3980
 IR Inten    --     72.5923                14.0274                10.4579

                     37                     38                     39
                      A                      A                      A
 Frequencies --   1134.3954              1141.5345              1159.7864
 Red. masses --      1.5866                 1.3745                 1.9983
 Frc consts  --      1.2030                 1.0553                 1.5837
 IR Inten    --     25.6153                 2.5375                10.0550

                     40                     41                     42
                      A                      A                      A
 Frequencies --   1201.0805              1240.5052              1263.6068
 Red. masses --      2.0920                 1.6337                 1.3130
 Frc consts  --      1.7781                 1.4812                 1.2352
 IR Inten    --     34.1835                21.7831                 6.7183

                     43                     44                     45
                      A                      A                      A
 Frequencies --   1281.5789              1300.2305              1330.5501
 Red. masses --      1.4058                 1.3919                 1.3898
 Frc consts  --      1.3604                 1.3864                 1.4497
 IR Inten    --     13.2936                 1.5909                 7.3833

                     46                     47                     48
                      A                      A                      A
 Frequencies --   1343.9954              1361.4886              1370.5080
 Red. masses --      1.3048                 1.5667                 1.3925
 Frc consts  --      1.3887                 1.7110                 1.5410
 IR Inten    --      3.2389                42.7879                 1.5946

                     49                     50                     51
                      A                      A                      A
 Frequencies --   1390.9810              1399.7858              1406.2763
 Red. masses --      1.4283                 1.4121                 1.3955
 Frc consts  --      1.6282                 1.6302                 1.6260
 IR Inten    --      4.5490                 0.9857                 5.7555

                     52                     53                     54
                      A                      A                      A
 Frequencies --   1411.6944              1431.6822              1443.2504
 Red. masses --      1.5066                 1.2286                 1.4321
 Frc consts  --      1.7690                 1.4837                 1.7575
 IR Inten    --     23.0042                 1.5250                 9.6149

                     55                     56                     57
                      A                      A                      A
 Frequencies --   1459.4110              1503.7743              1513.2863
 Red. masses --      1.4173                 1.0911                 1.0942
 Frc consts  --      1.7786                 1.4538                 1.4763
 IR Inten    --     10.2006                 1.9612                 6.0151

                     58                     59                     60
                      A                      A                      A
 Frequencies --   1517.7291              1523.2344              1530.6713
 Red. masses --      1.0730                 1.0644                 1.0747
 Frc consts  --      1.4562                 1.4551                 1.4836
 IR Inten    --      0.4316                 6.6672                 1.3839

                     61                     62                     63
                      A                      A                      A
 Frequencies --   1538.7242              1674.0933              1727.7540
 Red. masses --      1.0797                 1.1002                 1.0809
 Frc consts  --      1.5062                 1.8166                 1.9011
 IR Inten    --      8.1958                40.0771                17.7706

                     64                     65                     66
                      A                      A                      A
 Frequencies --   2996.2200              3030.3072              3041.2610
 Red. masses --      1.0833                 1.0827                 1.0628
 Frc consts  --      5.7299                 5.8578                 5.7918
 IR Inten    --     43.2335                12.2556                13.9520

                     67                     68                     69
                      A                      A                      A
 Frequencies --   3046.2358              3049.4312              3056.1477
 Red. masses --      1.0623                 1.0631                 1.0513
 Frc consts  --      5.8081                 5.8243                 5.7852
 IR Inten    --     57.9986                34.5575                 1.6472

                     70                     71                     72
                      A                      A                      A
 Frequencies --   3061.1026              3072.7638              3083.4134
 Red. masses --      1.0546                 1.0992                 1.1035
 Frc consts  --      5.8223                 6.1148                 6.1812
 IR Inten    --     59.4259                45.3598                33.7549

                     73                     74                     75
                      A                      A                      A
 Frequencies --   3092.6078              3110.6379              3122.6382
 Red. masses --      1.1024                 1.0996                 1.0945
 Frc consts  --      6.2121                 6.2689                 6.2882
 IR Inten    --     29.4620                65.6589                43.1699

                     76                     77                     78
                      A                      A                      A
 Frequencies --   3149.8934              3451.6706              3453.9258
 Red. masses --      1.1021                 1.0507                 1.0498
 Frc consts  --      6.4429                 7.3751                 7.3788
 IR Inten    --     23.9052                 4.5956                 6.0127

                     79                     80                     81
                      A                      A                      A
 Frequencies --   3531.3849              3539.7556              3713.7061
 Red. masses --      1.0908                 1.0907                 1.0651
 Frc consts  --      8.0148                 8.0517                 8.6549
 IR Inten    --      8.4344                 0.0054                 9.8745

 - Thermochemistry -
 -------------------
 Temperature   298.150 Kelvin.  Pressure   1.00000 Atm.
 Atom     1 has atomic number  6 and mass  12.00000

 Molecular mass:   158.14191 amu.
 Principal axes and moments of inertia in atomic units:
                           1         2         3
     Eigenvalues --  1276.184861823.347472258.74934
           X            0.99967   0.02543  -0.00295
           Y           -0.02540   0.99963   0.00994
           Z            0.00320  -0.00986   0.99995
 This molecule is an asymmetric top.
 Rotational symmetry number  1.
 Warning -- assumption of classical behavior for rotation
           may cause significant error
 Rotational temperatures (Kelvin)      0.06787     0.04750     0.03835
 Rotational constants (GHZ):           1.41417     0.98980     0.79900
 Zero-point vibrational energy     703458.5 (Joules/Mol)
                                  168.13061 (Kcal/Mol)
 Warning -- explicit consideration of  19 degrees of freedom as
           vibrations may cause significant error
 Vibrational temperatures:    149.04   187.65   260.02   293.16   352.68
          (Kelvin)            362.61   382.07   426.41   445.81   478.04
                              499.56   533.58   570.97   614.94   657.16
                              700.84   738.47   789.04   853.16   908.21
                             1057.30  1159.27  1210.52  1239.47  1313.43
                             1325.16  1344.68  1374.18  1406.19  1417.21
                             1456.25  1480.60  1528.50  1551.56  1573.92
                             1593.22  1632.14  1642.41  1668.67  1728.09
                             1784.81  1818.05  1843.91  1870.74  1914.36
                             1933.71  1958.88  1971.86  2001.31  2013.98
                             2023.32  2031.11  2059.87  2076.52  2099.77
                             2163.60  2177.28  2183.67  2191.59  2202.29
                             2213.88  2408.65  2485.85  4310.89  4359.94
                             4375.70  4382.85  4387.45  4397.11  4404.24
                             4421.02  4436.34  4449.57  4475.51  4492.78
                             4531.99  4966.18  4969.43  5080.88  5092.92
                             5343.19

 Zero-point correction=                           0.267933 (Hartree/Particle)
 Thermal correction to Energy=                    0.279475
 Thermal correction to Enthalpy=                  0.280419
 Thermal correction to Gibbs Free Energy=         0.232351
 Sum of electronic and zero-point Energies=           -500.187634
 Sum of electronic and thermal Energies=              -500.176092
 Sum of electronic and thermal Enthalpies=            -500.175148
 Sum of electronic and thermal Free Energies=         -500.223216

                     E (Thermal)             CV                S
                      KCal/Mol        Cal/Mol-Kelvin    Cal/Mol-Kelvin
 Total                  175.373             47.080            101.168
 Electronic               0.000              0.000              0.000
 Translational            0.889              2.981             41.084
 Rotational               0.889              2.981             30.042
 Vibrational            173.596             41.118             30.041
 Vibration     1          0.605              1.946              3.386
 Vibration     2          0.612              1.923              2.940
 Vibration     3          0.630              1.866              2.321
 Vibration     4          0.639              1.835              2.099
 Vibration     5          0.660              1.771              1.765
 Vibration     6          0.664              1.759              1.716
 Vibration     7          0.671              1.736              1.625
 Vibration     8          0.690              1.681              1.437
 Vibration     9          0.699              1.655              1.363
 Vibration    10          0.714              1.611              1.249
 Vibration    11          0.725              1.581              1.179
 Vibration    12          0.743              1.532              1.076
 Vibration    13          0.763              1.477              0.974
 Vibration    14          0.789              1.411              0.867
 Vibration    15          0.815              1.346              0.776
 Vibration    16          0.843              1.279              0.691
 Vibration    17          0.868              1.221              0.626
 Vibration    18          0.904              1.143              0.547
 Vibration    19          0.951              1.047              0.462

 Optimization completed.
    -- Stationary point found.
 Normal termination of Gaussian 16 at Tue Dec  8 19:20:27 2020.

 ----------------------------------------------------------------------
 # B3LYP/6-311++G(d,p) empiricaldispersion=gd3bj scf=xqc pop=npa geom=c
 heck
 ----------------------------------------------------------------------

 --------------------------------------
 CID_23342130_JID_1065_Energie_neutraal
 --------------------------------------
 Structure from the checkpoint file:  "JID_1065.chk"
 Charge =  0 Multiplicity = 1

 SCF Done:  E(RB3LYP) =  -500.620045147     A.U. after   13 cycles
 Normal termination of Gaussian 16 at Tue Dec  8 19:23:28 2020.

 ----------------------------------------------------------------------
 # B3LYP/6-311++G(d,p) empiricaldispersion=gd3bj scf=xqc pop=npa geom=c
 heck
 ----------------------------------------------------------------------

 ------------------------------------
 CID_23342130_JID_1065_Energie_kation
 ------------------------------------
 Structure from the checkpoint file:  "JID_1065.chk"
 Charge =  1 Multiplicity = 2

 SCF Done:  E(UB3LYP) =  -500.308969930     A.U. after   20 cycles
 Normal termination of Gaussian 16 at Tue Dec  8 19:29:44 2020.
 Gaussian 16:  ES64L-G16RevA.03 25-Dec-2016

 ----------------------------------------------------------------------
 # B3LYP/6-311++G(d,p) empiricaldispersion=gd3bj scf=xqc pop=npa geom=c
 heck
 ----------------------------------------------------------------------

 -----------------------------------
 CID_23342130_JID_1065_Energie_anion
 -----------------------------------
 Structure from the checkpoint file:  "JID_1065.chk"
 Charge = -1 Multiplicity = 2

                         Standard orientation:
 ---------------------------------------------------------------------
 Center     Atomic      Atomic             Coordinates (Angstroms)
 Number     Number       Type             X           Y           Z
 ---------------------------------------------------------------------
      1          6           0        1.603676   -1.230568    1.264836
      2          6           0        1.641284   -0.791371   -0.204443
      3          6           0        0.348496   -0.138104   -0.794457
      4          6           0       -0.726555   -1.155431   -1.243765
      5          6           0       -1.651032   -1.654519   -0.126713
      6          6           0       -2.321572   -0.475529    0.585418
      7          6           0       -1.274804    0.514682    1.107578
      8          6           0       -0.317533    1.013683    0.011533
      9          7           0        0.702925    1.948109    0.520578
     10          8           0       -1.142393    1.773804   -0.870031
     11          7           0        2.856431    0.021091   -0.408440
     12          1           0        1.548139   -0.379601    1.953833
     13          1           0        2.530863   -1.762758    1.493826
     14          1           0        0.757484   -1.888319    1.479988
     15          1           0        1.792704   -1.706210   -0.792758
     16          1           0        0.713783    0.346629   -1.712481
     17          1           0       -1.351262   -0.666230   -2.000591
     18          1           0       -0.234345   -2.001541   -1.740145
     19          1           0       -1.089422   -2.255558    0.599526
     20          1           0       -2.411078   -2.320481   -0.553793
     21          1           0       -2.945964   -0.829059    1.415124
     22          1           0       -2.982508    0.045600   -0.117014
     23          1           0       -0.684229    0.044232    1.900802
     24          1           0       -1.761852    1.395778    1.543196
     25          1           0        0.203046    2.767869    0.867781
     26          1           0        1.172353    1.543951    1.330577
     27          1           0       -0.545046    2.147106   -1.539875
     28          1           0        3.054493    0.062849   -1.407924
     29          1           0        2.644737    0.983854   -0.144713
 ---------------------------------------------------------------------

 SCF Done:  E(UB3LYP) =  -500.604931955     A.U. after   27 cycles

 The electronic state is 2-A.
 Alpha  occ. eigenvalues --  -19.01471 -14.19317 -14.17538 -10.14635 -10.09280
 Alpha  occ. eigenvalues --  -10.06334 -10.05652 -10.05593 -10.05550 -10.05517
 Alpha  occ. eigenvalues --  -10.05257  -0.92920  -0.78529  -0.76529  -0.71016
 Alpha  occ. eigenvalues --   -0.64829  -0.62263  -0.60583  -0.52303  -0.49955
 Alpha  occ. eigenvalues --   -0.47751  -0.45022  -0.40000  -0.39404  -0.37244
 Alpha  occ. eigenvalues --   -0.35911  -0.35728  -0.33939  -0.31568  -0.30547
 Alpha  occ. eigenvalues --   -0.29991  -0.29442  -0.27661  -0.27206  -0.26126
 Alpha  occ. eigenvalues --   -0.25198  -0.23617  -0.22925  -0.21668  -0.20649
 Alpha  occ. eigenvalues --   -0.20299  -0.17821  -0.15463  -0.12819   0.04717
 Alpha virt. eigenvalues --    0.07249   0.07393   0.08116   0.09351   0.09721
 Alpha virt. eigenvalues --    0.10255   0.10607   0.10771   0.12328   0.13030
 Alpha virt. eigenvalues --    0.13067   0.13517   0.13741   0.14099   0.15542

  Beta  occ. eigenvalues --  -19.01442 -14.19280 -14.17516 -10.14634 -10.09269
  Beta  occ. eigenvalues --  -10.06317 -10.05635 -10.05570 -10.05535 -10.05499
  Beta  occ. eigenvalues --  -10.05228  -0.92867  -0.78483  -0.76477  -0.70978
  Beta  occ. eigenvalues --   -0.64788  -0.62214  -0.60529  -0.52247  -0.49896
  Beta  occ. eigenvalues --   -0.47693  -0.44959  -0.39948  -0.39334  -0.37202
  Beta  occ. eigenvalues --   -0.35864  -0.35680  -0.33910  -0.31533  -0.30514
  Beta  occ. eigenvalues --   -0.29960  -0.29402  -0.27620  -0.27170  -0.26094
  Beta  occ. eigenvalues --   -0.25154  -0.23589  -0.22882  -0.21627  -0.20614
  Beta  occ. eigenvalues --   -0.20257  -0.17775  -0.15417  -0.12789
  Beta virt. eigenvalues --    0.07072   0.08173   0.08339   0.08612   0.10056
  Beta virt. eigenvalues --    0.10362   0.10700   0.10954   0.11226   0.12859
  Beta virt. eigenvalues --    0.13281   0.13620   0.13761   0.14124   0.14471

 Mulliken charges and spin densities:
               1          2
     1  C    0.700214  -1.040031
     2  C   -0.069415  -0.945358
     3  C   -0.694079   1.634291
     4  C    0.490320  -1.167611
     5  C    0.009670  -0.257910
     6  C    0.182484  -0.736967
     7  C   -0.012575   0.057685
     8  C    1.387413  -2.084255
     9  N   -0.604355   0.200962
    10  O   -0.268042   0.066799
    11  N   -0.302282   0.153337
    12  H   -0.332601   0.478239
    13  H    0.118164   0.044874
    14  H   -0.089067   0.211892
    15  H    0.020774   0.141528
    16  H   -0.396986   0.649232
    17  H    0.038155   0.126687
    18  H   -0.325299   0.473633
    19  H    0.127803  -0.017822
    20  H   -0.284750   0.450393
    21  H   -0.363218   0.530706
    22  H    0.176125  -0.030801
    23  H   -0.268095   0.400420
    24  H   -0.152151   0.334700
    25  H   -0.055369   0.330936
    26  H    0.064670   0.153503
    27  H   -0.185715   0.466475
    28  H   -0.133120   0.356232
    29  H    0.221326   0.018229
 Sum of Mulliken charges =  -1.00000   1.00000

 Dipole moment (field-independent basis, Debye):
    X=             -0.6452    Y=             -0.8547    Z=              0.6467  Tot=              1.2510
 Quadrupole moment (field-independent basis, Debye-Ang):
   XX=           -118.7424   YY=           -111.2017   ZZ=           -111.7042
   XY=             -1.5423   XZ=              3.0973   YZ=              0.9963

 Summary of Natural Population Analysis:

                                       Natural Population
                Natural  -----------------------------------------------
    Atom  No    Charge         Core      Valence    Rydberg      Total
 -----------------------------------------------------------------------
      C    1   -0.28571      0.99963     2.28051    0.00557     3.28571
      C    2   -0.01367      0.99959     2.00126    0.01282     3.01367
      C    3   -0.12655      0.99951     2.11111    0.01593     3.12655
      C    4   -0.18970      0.99961     2.17998    0.01011     3.18970
      C    5   -0.18822      0.99962     2.18096    0.00764     3.18822
      C    6   -0.18955      0.99962     2.18165    0.00828     3.18955
      C    7   -0.20352      0.99956     2.19311    0.01086     3.20352
      C    8    0.22405      0.99953     1.75844    0.01798     2.77595
      N    9   -0.43968      0.99974     2.92900    0.01093     3.93968
      O   10   -0.37939      0.99989     3.37281    0.00669     4.37939
      N   11   -0.42861      0.99977     2.91861    0.01023     3.92861
      H   12    0.09107      0.00000     0.40743    0.00150     0.40893
      H   13    0.10391      0.00000     0.39490    0.00119     0.39609
      H   14    0.09838      0.00000     0.40024    0.00137     0.40162
      H   15    0.08948      0.00000     0.40866    0.00186     0.41052
      H   16    0.10363      0.00000     0.39349    0.00288     0.39637
      H   17    0.10145      0.00000     0.39702    0.00153     0.39855
      H   18    0.09736      0.00000     0.40114    0.00150     0.40264
      H   19    0.09115      0.00000     0.40730    0.00155     0.40885
      H   20    0.09798      0.00000     0.40090    0.00112     0.40202
      H   21    0.09683      0.00000     0.40207    0.00111     0.40317
      H   22    0.09912      0.00000     0.39930    0.00158     0.40088
      H   23    0.09995      0.00000     0.39810    0.00195     0.40005
      H   24    0.10330      0.00000     0.39528    0.00142     0.39670
      H   25    0.18124      0.00000     0.31648    0.00228     0.31876
      H   26    0.17787      0.00000     0.31993    0.00220     0.32213
      H   27    0.23298      0.00000     0.26262    0.00440     0.26702
      H   28    0.17318      0.00000     0.32462    0.00220     0.32682
      H   29    0.18169      0.00000     0.31554    0.00278     0.31831
 =======================================================================
   * Total *   -0.00000     10.99607    32.85246    0.15147    44.00000

 Normal termination of Gaussian 16 at Tue Dec  8 19:38:10 2020.
