 Gaussian 16, Revision A.03,

 -----------------------------------------------------------
 # opt freq B3LYP/6-31G(d) empiricaldispersion=gd3bj scf=xqc
 -----------------------------------------------------------

 ------------------------------
 CID_62793580_JID_8768_neutraal
 ------------------------------
 Symbolic Z-matrix:
 Charge =  0 Multiplicity = 1

 SCF Done:  E(RB3LYP) =  -1158.19498942     A.U. after   15 cycles
 SCF Done:  E(RB3LYP) =  -1158.20084846     A.U. after   13 cycles
 SCF Done:  E(RB3LYP) =  -1158.20016629     A.U. after   13 cycles
 SCF Done:  E(RB3LYP) =  -1158.20264210     A.U. after   12 cycles
 SCF Done:  E(RB3LYP) =  -1158.20354992     A.U. after   12 cycles
 SCF Done:  E(RB3LYP) =  -1158.20411456     A.U. after   13 cycles
 SCF Done:  E(RB3LYP) =  -1158.20443477     A.U. after   12 cycles
 SCF Done:  E(RB3LYP) =  -1158.20468346     A.U. after   12 cycles
 SCF Done:  E(RB3LYP) =  -1158.20480598     A.U. after   11 cycles
 SCF Done:  E(RB3LYP) =  -1158.20485208     A.U. after   11 cycles
 SCF Done:  E(RB3LYP) =  -1158.20708352     A.U. after   10 cycles
 SCF Done:  E(RB3LYP) =  -1158.20708604     A.U. after    9 cycles
 SCF Done:  E(RB3LYP) =  -1158.20708786     A.U. after    9 cycles
 SCF Done:  E(RB3LYP) =  -1158.20708838     A.U. after    8 cycles
 SCF Done:  E(RB3LYP) =  -1158.20708842     A.U. after    7 cycles
 Optimization completed.
    -- Stationary point found.
 Normal termination of Gaussian 16 at Fri Dec 11 22:27:46 2020.

 --------------------------------------------------------------------
 #N Geom=AllCheck Guess=TCheck SCRF=Check GenChk RB3LYP/6-31G(d) Freq
 --------------------------------------------------------------------

 Structure from the checkpoint file:  "JID_8768.chk"
 ------------------------------
 CID_62793580_JID_8768_neutraal
 ------------------------------
 Charge =  0 Multiplicity = 1

 SCF Done:  E(RB3LYP) =  -1158.20708842     A.U. after    1 cycles

  Exact polarizability: 215.263  -9.692 159.643 -17.466 -10.572 125.094
 Approx polarizability: 298.179 -28.582 291.383 -33.719 -30.349 209.911

                      1                      2                      3
                      A                      A                      A
 Frequencies --     28.8550                39.9407                43.1553
 Red. masses --      5.0602                 4.6225                 4.2994
 Frc consts  --      0.0025                 0.0043                 0.0047
 IR Inten    --      0.9973                 0.2092                 0.1356

                      4                      5                      6
                      A                      A                      A
 Frequencies --     62.3923                96.2514               129.7259
 Red. masses --      5.3988                 8.0478                 3.8387
 Frc consts  --      0.0124                 0.0439                 0.0381
 IR Inten    --      3.4862                 1.8742                 0.9076

                      7                      8                      9
                      A                      A                      A
 Frequencies --    144.4151               166.9190               181.9400
 Red. masses --      4.1303                 5.1096                 2.0576
 Frc consts  --      0.0508                 0.0839                 0.0401
 IR Inten    --      2.0002                 0.3396                 1.7049

                     10                     11                     12
                      A                      A                      A
 Frequencies --    198.1976               219.5338               255.4432
 Red. masses --      2.2105                 2.3676                 1.0796
 Frc consts  --      0.0512                 0.0672                 0.0415
 IR Inten    --      6.5284                 6.2620                 0.1370

                     13                     14                     15
                      A                      A                      A
 Frequencies --    272.4562               307.5858               313.1772
 Red. masses --      3.7067                 3.2745                 4.9906
 Frc consts  --      0.1621                 0.1825                 0.2884
 IR Inten    --      5.3878                 5.6525                 0.9383

                     16                     17                     18
                      A                      A                      A
 Frequencies --    334.7868               342.6647               389.3721
 Red. masses --      1.6474                 2.3936                 2.6368
 Frc consts  --      0.1088                 0.1656                 0.2355
 IR Inten    --     50.2578                15.8626                 0.0234

                     19                     20                     21
                      A                      A                      A
 Frequencies --    392.7129               403.8460               440.1941
 Red. masses --      4.4237                 4.3419                 3.3763
 Frc consts  --      0.4020                 0.4172                 0.3855
 IR Inten    --      8.0516                 3.9732                14.4614

                     22                     23                     24
                      A                      A                      A
 Frequencies --    483.2087               514.5405               553.0559
 Red. masses --      1.6714                 3.3337                 3.9634
 Frc consts  --      0.2299                 0.5200                 0.7143
 IR Inten    --    275.2158                63.8827                12.5728

                     25                     26                     27
                      A                      A                      A
 Frequencies --    573.4975               596.4274               617.1999
 Red. masses --      4.4200                 4.5341                 3.8822
 Frc consts  --      0.8565                 0.9503                 0.8713
 IR Inten    --     54.4794                28.0599                13.7616

                     28                     29                     30
                      A                      A                      A
 Frequencies --    644.3862               653.7371               684.0589
 Red. masses --      4.8005                 6.0399                 6.0523
 Frc consts  --      1.1744                 1.5208                 1.6686
 IR Inten    --      0.4855                24.9752                 7.6457

                     31                     32                     33
                      A                      A                      A
 Frequencies --    687.3066               700.4150               726.2345
 Red. masses --      6.3850                 3.7497                 3.0247
 Frc consts  --      1.7771                 1.0838                 0.9399
 IR Inten    --      1.9040                29.8112                24.1488

                     34                     35                     36
                      A                      A                      A
 Frequencies --    762.7216               801.9802               817.3134
 Red. masses --      3.8798                 3.2364                 2.0907
 Frc consts  --      1.3298                 1.2264                 0.8229
 IR Inten    --      0.6870                48.0185                40.8087

                     37                     38                     39
                      A                      A                      A
 Frequencies --    840.2123               894.5564               943.1747
 Red. masses --      1.5355                 1.2458                 1.7884
 Frc consts  --      0.6387                 0.5874                 0.9374
 IR Inten    --     28.2192                 2.0402                15.4083

                     40                     41                     42
                      A                      A                      A
 Frequencies --    978.9117               979.7968               994.4644
 Red. masses --      3.3125                 1.2988                 1.4485
 Frc consts  --      1.8702                 0.7346                 0.8440
 IR Inten    --     13.5832                 0.8079                 0.4686

                     43                     44                     45
                      A                      A                      A
 Frequencies --   1016.4040              1028.5539              1054.6796
 Red. masses --      7.1241                 2.2898                 2.1350
 Frc consts  --      4.3362                 1.4272                 1.3993
 IR Inten    --      2.6307                27.7611                 2.6562

                     46                     47                     48
                      A                      A                      A
 Frequencies --   1075.5990              1095.6646              1103.4950
 Red. masses --      1.5169                 2.1222                 1.9475
 Frc consts  --      1.0340                 1.5010                 1.3972
 IR Inten    --      2.3689                 2.4580                 5.4363

                     49                     50                     51
                      A                      A                      A
 Frequencies --   1123.1022              1124.5839              1145.5794
 Red. masses --      1.7095                 1.8980                 3.0690
 Frc consts  --      1.2704                 1.4143                 2.3730
 IR Inten    --      3.3237                 6.6791                26.8609

                     52                     53                     54
                      A                      A                      A
 Frequencies --   1172.9179              1244.1120              1260.5758
 Red. masses --      2.8237                 2.2617                 1.3407
 Frc consts  --      2.2888                 2.0626                 1.2552
 IR Inten    --     72.5106                47.7574                13.0811

                     55                     56                     57
                      A                      A                      A
 Frequencies --   1303.3750              1336.7242              1343.4518
 Red. masses --      7.0415                 3.5317                 1.5450
 Frc consts  --      7.0478                 3.7180                 1.6430
 IR Inten    --      5.0515                17.5355                11.8601

                     58                     59                     60
                      A                      A                      A
 Frequencies --   1351.9081              1369.2023              1382.5936
 Red. masses --      1.5557                 3.6134                 1.3187
 Frc consts  --      1.6752                 3.9912                 1.4852
 IR Inten    --     19.8594                45.3631                 8.8970

                     61                     62                     63
                      A                      A                      A
 Frequencies --   1390.6415              1436.1756              1440.4369
 Red. masses --      5.8585                 1.2313                 1.2896
 Frc consts  --      6.6753                 1.4964                 1.5765
 IR Inten    --    579.9758                10.5727                16.7135

                     64                     65                     66
                      A                      A                      A
 Frequencies --   1459.3878              1484.3072              1505.0867
 Red. masses --      1.9785                 1.3845                 1.2049
 Frc consts  --      2.4828                 1.7972                 1.6081
 IR Inten    --     21.2926                47.7827                46.2724

                     67                     68                     69
                      A                      A                      A
 Frequencies --   1514.5427              1521.4272              1525.7422
 Red. masses --      1.0544                 1.0524                 1.0930
 Frc consts  --      1.4250                 1.4353                 1.4991
 IR Inten    --     14.0899                 4.9720                 2.7124

                     70                     71                     72
                      A                      A                      A
 Frequencies --   1545.9375              1563.4698              1590.3601
 Red. masses --      2.0730                 3.7510                 4.5194
 Frc consts  --      2.9190                 5.4022                 6.7348
 IR Inten    --      2.2448               222.2351                34.8332

                     73                     74                     75
                      A                      A                      A
 Frequencies --   1621.5588              1657.9347              1672.5084
 Red. masses --      6.9678                 5.3483                 1.3624
 Frc consts  --     10.7947                 8.6616                 2.2454
 IR Inten    --     14.2793                65.5092               221.5859

                     76                     77                     78
                      A                      A                      A
 Frequencies --   1747.8343              3054.7709              3058.1705
 Red. masses --      7.8717                 1.0356                 1.0442
 Frc consts  --     14.1684                 5.6936                 5.7536
 IR Inten    --    363.8731                16.8855                13.0753

                     79                     80                     81
                      A                      A                      A
 Frequencies --   3107.6465              3119.1076              3130.0948
 Red. masses --      1.0861                 1.0946                 1.0991
 Frc consts  --      6.1798                 6.2746                 6.3443
 IR Inten    --      1.8510                11.6566                17.8192

                     82                     83                     84
                      A                      A                      A
 Frequencies --   3139.3538              3170.8664              3173.6931
 Red. masses --      1.1037                 1.0870                 1.0904
 Frc consts  --      6.4091                 6.4390                 6.4707
 IR Inten    --     24.6012                22.2892                29.4220

                     85                     86                     87
                      A                      A                      A
 Frequencies --   3178.8345              3193.5645              3222.2838
 Red. masses --      1.0996                 1.0945                 1.0920
 Frc consts  --      6.5469                 6.5768                 6.6805
 IR Inten    --      4.7544                19.3441                 5.9085

                     88                     89                     90
                      A                      A                      A
 Frequencies --   3535.9160              3573.6500              3687.2429
 Red. masses --      1.0741                 1.0467                 1.1012
 Frc consts  --      7.9124                 7.8757                 8.8209
 IR Inten    --     16.6254                69.9050                34.1290

 - Thermochemistry -
 -------------------
 Temperature   298.150 Kelvin.  Pressure   1.00000 Atm.
 Atom     1 has atomic number  6 and mass  12.00000

 Molecular mass:   262.08883 amu.
 Principal axes and moments of inertia in atomic units:
                           1         2         3
     Eigenvalues --  2343.975058638.590959681.48796
           X            0.99994   0.01073  -0.00061
           Y           -0.01071   0.99964   0.02448
           Z            0.00088  -0.02447   0.99970
 This molecule is an asymmetric top.
 Rotational symmetry number  1.
 Warning -- assumption of classical behavior for rotation
           may cause significant error
 Rotational temperatures (Kelvin)      0.03695     0.01003     0.00895
 Rotational constants (GHZ):           0.76995     0.20892     0.18641
 Zero-point vibrational energy     668508.1 (Joules/Mol)
                                  159.77728 (Kcal/Mol)
 Warning -- explicit consideration of  27 degrees of freedom as
           vibrations may cause significant error
 Vibrational temperatures:     41.52    57.47    62.09    89.77   138.48
          (Kelvin)            186.65   207.78   240.16   261.77   285.16
                              315.86   367.53   392.00   442.55   450.59
                              481.68   493.02   560.22   565.03   581.04
                              633.34   695.23   740.31   795.72   825.13
                              858.13   888.01   927.13   940.58   984.21
                              988.88  1007.74  1044.89  1097.39  1153.87
                             1175.93  1208.88  1287.07  1357.02  1408.44
                             1409.71  1430.81  1462.38  1479.86  1517.45
                             1547.55  1576.42  1587.68  1615.89  1618.03
                             1648.23  1687.57  1790.00  1813.69  1875.27
                             1923.25  1932.93  1945.09  1969.98  1989.24
                             2000.82  2066.34  2072.47  2099.73  2135.59
                             2165.48  2179.09  2188.99  2195.20  2224.26
                             2249.48  2288.17  2333.06  2385.40  2406.37
                             2514.74  4395.13  4400.03  4471.21  4487.70
                             4503.51  4516.83  4562.17  4566.24  4573.63
                             4594.83  4636.15  5087.39  5141.69  5305.12

 Zero-point correction=                           0.254621 (Hartree/Particle)
 Thermal correction to Energy=                    0.271720
 Thermal correction to Enthalpy=                  0.272665
 Thermal correction to Gibbs Free Energy=         0.208614
 Sum of electronic and zero-point Energies=          -1157.952467
 Sum of electronic and thermal Energies=             -1157.935368
 Sum of electronic and thermal Enthalpies=           -1157.934424
 Sum of electronic and thermal Free Energies=        -1157.998474

                     E (Thermal)             CV                S
                      KCal/Mol        Cal/Mol-Kelvin    Cal/Mol-Kelvin
 Total                  170.507             64.586            134.805
 Electronic               0.000              0.000              0.000
 Translational            0.889              2.981             42.590
 Rotational               0.889              2.981             33.638
 Vibrational            168.730             58.625             58.577
 Vibration     1          0.593              1.984              5.907
 Vibration     2          0.594              1.981              5.262
 Vibration     3          0.595              1.980              5.109
 Vibration     4          0.597              1.972              4.380
 Vibration     5          0.603              1.952              3.529
 Vibration     6          0.612              1.924              2.950
 Vibration     7          0.616              1.909              2.745
 Vibration     8          0.624              1.883              2.470
 Vibration     9          0.630              1.864              2.308
 Vibration    10          0.637              1.842              2.150
 Vibration    11          0.647              1.811              1.963
 Vibration    12          0.666              1.754              1.693
 Vibration    13          0.675              1.724              1.581
 Vibration    14          0.697              1.659              1.375
 Vibration    15          0.701              1.649              1.345
 Vibration    16          0.716              1.606              1.237
 Vibration    17          0.722              1.590              1.200
 Vibration    18          0.757              1.493              1.003
 Vibration    19          0.760              1.486              0.990
 Vibration    20          0.769              1.462              0.949
 Vibration    21          0.800              1.383              0.826
 Vibration    22          0.839              1.287              0.701
 Vibration    23          0.870              1.218              0.623
 Vibration    24          0.908              1.133              0.538
 Vibration    25          0.930              1.089              0.498
 Vibration    26          0.954              1.039              0.456
 Vibration    27          0.977              0.996              0.421

                           ! Non-Optimized Parameters !
 Normal termination of Gaussian 16 at Fri Dec 11 22:41:02 2020.

 ----------------------------------------------------------------------
 # B3LYP/6-311++G(d,p) empiricaldispersion=gd3bj scf=xqc pop=npa geom=c
 heck
 ----------------------------------------------------------------------

 --------------------------------------
 CID_62793580_JID_8768_Energie_neutraal
 --------------------------------------
 Structure from the checkpoint file:  "JID_8768.chk"
 Charge =  0 Multiplicity = 1

 SCF Done:  E(RB3LYP) =  -1158.44779853     A.U. after   16 cycles
 Normal termination of Gaussian 16 at Fri Dec 11 22:47:23 2020.

 ----------------------------------------------------------------------
 # B3LYP/6-311++G(d,p) empiricaldispersion=gd3bj scf=xqc pop=npa geom=c
 heck
 ----------------------------------------------------------------------

 ------------------------------------
 CID_62793580_JID_8768_Energie_kation
 ------------------------------------
 Structure from the checkpoint file:  "JID_8768.chk"
 Charge =  1 Multiplicity = 2

 SCF Done:  E(UB3LYP) =  -1158.15333549     A.U. after   28 cycles
 Normal termination of Gaussian 16 at Fri Dec 11 23:03:33 2020.
 Gaussian 16:  ES64L-G16RevA.03 25-Dec-2016

 ----------------------------------------------------------------------
 # B3LYP/6-311++G(d,p) empiricaldispersion=gd3bj scf=xqc pop=npa geom=c
 heck
 ----------------------------------------------------------------------

 -----------------------------------
 CID_62793580_JID_8768_Energie_anion
 -----------------------------------
 Structure from the checkpoint file:  "JID_8768.chk"
 Charge = -1 Multiplicity = 2

                         Standard orientation:
 ---------------------------------------------------------------------
 Center     Atomic      Atomic             Coordinates (Angstroms)
 Number     Number       Type             X           Y           Z
 ---------------------------------------------------------------------
      1          6           0        0.212963    1.618804    0.958474
      2          6           0        1.468713    0.971274    0.457225
      3          6           0        1.699663   -0.379618    0.307791
      4         16           0        3.381186   -0.648136   -0.156893
      5          6           0        3.584335    1.095985   -0.188403
      6          7           0        2.532168    1.794433    0.159111
      7          7           0        4.789502    1.669601   -0.491131
      8          6           0        0.898055   -1.581909    0.593529
      9          8           0        1.422394   -2.619776    0.989696
     10          7           0       -0.479572   -1.505318    0.425729
     11          6           0       -1.124233   -0.830360   -0.704306
     12          6           0       -1.378495   -1.829362   -1.847928
     13          6           0       -2.408677   -0.125543   -0.301188
     14          6           0       -3.034090    0.752574   -1.193288
     15          6           0       -4.220458    1.376584   -0.816243
     16          7           0       -4.820190    1.186841    0.366840
     17          6           0       -4.215805    0.348086    1.215047
     18          6           0       -3.024045   -0.322991    0.935119
     19          1           0       -0.447221    0.900442    1.444779
     20          1           0        0.478613    2.406122    1.670218
     21          1           0       -0.343551    2.095664    0.142326
     22          1           0        4.738088    2.663963   -0.673576
     23          1           0        5.422655    1.157537   -1.089008
     24          1           0       -0.883397   -2.412253    0.645274
     25          1           0       -0.418672   -0.076988   -1.062442
     26          1           0       -2.058185   -2.623581   -1.518147
     27          1           0       -1.836531   -1.335116   -2.710034
     28          1           0       -0.435460   -2.285764   -2.164651
     29          1           0       -2.599988    0.957710   -2.168425
     30          1           0       -4.714642    2.067356   -1.497155
     31          1           0       -4.707010    0.204408    2.175935
     32          1           0       -2.573732   -0.971142    1.678807
 ---------------------------------------------------------------------

 SCF Done:  E(UB3LYP) =  -1158.44953831     A.U. after   33 cycles
 SCF Done:  E(UB3LYP) =  -1158.44953831     a.u. after    1 cycles

 The electronic state is 2-A.
 Alpha  occ. eigenvalues --  -88.76199 -18.97265 -14.23194 -14.22250 -14.19279
 Alpha  occ. eigenvalues --  -14.19137 -10.15889 -10.15824 -10.12076 -10.10092
 Alpha  occ. eigenvalues --  -10.09784 -10.09636 -10.08167 -10.07981 -10.07866
 Alpha  occ. eigenvalues --  -10.07319 -10.07203 -10.05928  -7.84838  -5.81147
 Alpha  occ. eigenvalues --   -5.80797  -5.80367  -0.92605  -0.87248  -0.83509
 Alpha  occ. eigenvalues --   -0.81874  -0.80047  -0.71309  -0.68644  -0.65816
 Alpha  occ. eigenvalues --   -0.65597  -0.64842  -0.57916  -0.55774  -0.53096
 Alpha  occ. eigenvalues --   -0.52170  -0.49763  -0.46654  -0.45691  -0.42080
 Alpha  occ. eigenvalues --   -0.41704  -0.40431  -0.38282  -0.36979  -0.35209
 Alpha  occ. eigenvalues --   -0.34446  -0.33638  -0.33222  -0.32636  -0.32357
 Alpha  occ. eigenvalues --   -0.31785  -0.30544  -0.29687  -0.29269  -0.28754
 Alpha  occ. eigenvalues --   -0.27994  -0.27428  -0.26380  -0.25420  -0.24322
 Alpha  occ. eigenvalues --   -0.20974  -0.18210  -0.17643  -0.16600  -0.16288
 Alpha  occ. eigenvalues --   -0.15889  -0.15385  -0.13998  -0.10717   0.03897
 Alpha virt. eigenvalues --    0.05451   0.06067   0.07130   0.08124   0.08396
 Alpha virt. eigenvalues --    0.08471   0.08953   0.10005   0.10488   0.11020
 Alpha virt. eigenvalues --    0.11347   0.11671   0.12068   0.12711   0.13212

  Beta  occ. eigenvalues --  -88.76178 -18.97156 -14.23116 -14.22218 -14.19189
  Beta  occ. eigenvalues --  -14.19055 -10.15768 -10.15706 -10.12086 -10.10099
  Beta  occ. eigenvalues --  -10.09594 -10.09566 -10.08165 -10.07857 -10.07744
  Beta  occ. eigenvalues --  -10.07295 -10.07230 -10.05943  -7.84817  -5.81131
  Beta  occ. eigenvalues --   -5.80783  -5.80319  -0.92399  -0.87105  -0.83215
  Beta  occ. eigenvalues --   -0.81749  -0.79889  -0.71001  -0.68572  -0.65630
  Beta  occ. eigenvalues --   -0.65457  -0.64738  -0.57773  -0.55620  -0.52961
  Beta  occ. eigenvalues --   -0.51993  -0.49532  -0.46492  -0.45607  -0.41985
  Beta  occ. eigenvalues --   -0.41599  -0.40301  -0.38171  -0.36862  -0.35122
  Beta  occ. eigenvalues --   -0.34245  -0.33463  -0.32958  -0.32557  -0.32280
  Beta  occ. eigenvalues --   -0.31596  -0.30377  -0.29479  -0.28984  -0.28266
  Beta  occ. eigenvalues --   -0.27948  -0.27145  -0.26191  -0.25325  -0.24207
  Beta  occ. eigenvalues --   -0.20636  -0.18119  -0.16713  -0.16434  -0.15928
  Beta  occ. eigenvalues --   -0.15597  -0.15141  -0.13831  -0.10256
  Beta virt. eigenvalues --    0.06648   0.06986   0.07516   0.07731   0.08191
  Beta virt. eigenvalues --    0.08362   0.08459   0.09382   0.10112   0.10542
  Beta virt. eigenvalues --    0.10968   0.11319   0.11843   0.12387   0.12973

 Mulliken charges and spin densities:
               1          2
     1  C   -1.067545   0.052167
     2  C   -1.232226   0.071850
     3  C    1.937721  -0.171209
     4  S   -0.418190   0.087402
     5  C    0.361781  -0.108470
     6  N    0.105570  -0.099358
     7  N   -0.331394   0.095789
     8  C    0.085819  -0.352023
     9  O   -0.348627   0.038507
    10  N   -0.040747   0.016535
    11  C   -0.281559  -0.140600
    12  C   -0.621840  -0.019370
    13  C    0.700024  -0.063125
    14  C   -0.244566   0.247767
    15  C   -0.447321  -0.081962
    16  N   -0.124644   0.095429
    17  C   -0.637255   0.023003
    18  C    0.167878   0.105284
    19  H    0.199127  -0.025089
    20  H    0.172331   0.004240
    21  H    0.114552   0.096086
    22  H   -0.040427   0.292317
    23  H   -0.375316   0.631370
    24  H    0.293059  -0.009814
    25  H    0.134408   0.084327
    26  H    0.131579   0.006626
    27  H    0.141254   0.005951
    28  H    0.131955   0.039229
    29  H    0.100664   0.055058
    30  H    0.142096   0.003654
    31  H    0.145816  -0.003820
    32  H    0.146022   0.022250
 Sum of Mulliken charges =  -1.00000   1.00000

 Dipole moment (field-independent basis, Debye):
    X=             -4.2032    Y=             -1.4523    Z=             -1.6140  Tot=              4.7309
 Quadrupole moment (field-independent basis, Debye-Ang):
   XX=           -211.2254   YY=           -145.8615   ZZ=           -126.1457
   XY=              5.5137   XZ=              4.0476   YZ=              3.6005

 Summary of Natural Population Analysis:

                                       Natural Population
                Natural  -----------------------------------------------
    Atom  No    Charge         Core      Valence    Rydberg      Total
 -----------------------------------------------------------------------
      C    1   -0.30285      0.99962     2.29799    0.00524     3.30285
      C    2    0.12413      0.99946     1.86323    0.01317     2.87587
      C    3   -0.17357      0.99938     2.16235    0.01185     3.17357
      S    4    0.18559      4.99943     2.79475    0.02024     7.81441
      C    5    0.15565      0.99963     1.82343    0.02129     2.84435
      N    6   -0.29549      0.99963     2.78388    0.01198     3.79549
      N    7   -0.39258      0.99968     2.88140    0.01149     3.89258
      C    8    0.34069      0.99958     1.63691    0.02282     2.65931
      O    9   -0.31707      0.99988     3.31183    0.00536     4.31707
      N   10   -0.32396      0.99968     2.81362    0.01066     3.82396
      C   11   -0.02579      0.99955     2.01460    0.01164     3.02579
      C   12   -0.28196      0.99965     2.27756    0.00476     3.28196
      C   13    0.03716      0.99949     1.95100    0.01236     2.96284
      C   14   -0.12792      0.99951     2.11708    0.01133     3.12792
      C   15    0.02334      0.99960     1.96303    0.01403     2.97666
      N   16   -0.21534      0.99972     2.70375    0.01187     3.71534
      C   17    0.03818      0.99960     1.94779    0.01442     2.96182
      C   18   -0.13420      0.99950     2.12765    0.00704     3.13420
      H   19    0.11035      0.00000     0.38855    0.00110     0.38965
      H   20    0.10792      0.00000     0.39115    0.00093     0.39208
      H   21    0.10917      0.00000     0.38959    0.00124     0.39083
      H   22    0.19447      0.00000     0.30241    0.00312     0.30553
      H   23    0.19378      0.00000     0.30260    0.00362     0.30622
      H   24    0.18565      0.00000     0.31271    0.00164     0.31435
      H   25    0.11341      0.00000     0.38443    0.00216     0.38659
      H   26    0.09584      0.00000     0.40332    0.00085     0.40416
      H   27    0.09978      0.00000     0.39942    0.00080     0.40022
      H   28    0.10283      0.00000     0.39611    0.00106     0.39717
      H   29    0.09924      0.00000     0.39977    0.00099     0.40076
      H   30    0.08448      0.00000     0.41433    0.00119     0.41552
      H   31    0.08327      0.00000     0.41546    0.00127     0.41673
      H   32    0.10579      0.00000     0.39318    0.00103     0.39421
 =======================================================================
   * Total *    0.00000     21.99258    46.76489    0.24253    69.00000

 Normal termination of Gaussian 16 at Fri Dec 11 23:22:44 2020.
