 Gaussian 16, Revision A.03,

 -----------------------------------------------------------
 # opt freq B3LYP/6-31G(d) empiricaldispersion=gd3bj scf=xqc
 -----------------------------------------------------------

 ------------------------------
 CID_152864842_JID_980_neutraal
 ------------------------------
 Symbolic Z-matrix:
 Charge =  0 Multiplicity = 1

 SCF Done:  E(RB3LYP) =  -802.722122044     A.U. after   14 cycles
 SCF Done:  E(RB3LYP) =  -802.725147306     A.U. after   12 cycles
 SCF Done:  E(RB3LYP) =  -802.725364510     A.U. after   11 cycles
 SCF Done:  E(RB3LYP) =  -802.725409694     A.U. after   11 cycles
 SCF Done:  E(RB3LYP) =  -802.725418937     A.U. after   10 cycles
 SCF Done:  E(RB3LYP) =  -802.725423715     A.U. after    9 cycles
 SCF Done:  E(RB3LYP) =  -802.725425669     A.U. after    8 cycles
 SCF Done:  E(RB3LYP) =  -802.725428742     A.U. after    9 cycles
 SCF Done:  E(RB3LYP) =  -802.725436075     A.U. after   10 cycles
 SCF Done:  E(RB3LYP) =  -802.725447013     A.U. after   10 cycles
 SCF Done:  E(RB3LYP) =  -802.725729333     A.U. after   11 cycles
 SCF Done:  E(RB3LYP) =  -802.725730958     A.U. after    9 cycles
 SCF Done:  E(RB3LYP) =  -802.725732699     A.U. after    9 cycles
 SCF Done:  E(RB3LYP) =  -802.725733086     A.U. after    8 cycles
 SCF Done:  E(RB3LYP) =  -802.725733099     A.U. after    6 cycles
 Optimization completed.
    -- Stationary point found.
 Normal termination of Gaussian 16 at Tue Dec  8 13:41:16 2020.

 --------------------------------------------------------------------
 #N Geom=AllCheck Guess=TCheck SCRF=Check GenChk RB3LYP/6-31G(d) Freq
 --------------------------------------------------------------------

 Structure from the checkpoint file:  "JID_980.chk"
 ------------------------------
 CID_152864842_JID_980_neutraal
 ------------------------------
 Charge =  0 Multiplicity = 1

 SCF Done:  E(RB3LYP) =  -802.725733099     A.U. after    1 cycles

  Exact polarizability: 133.688   3.128  92.412   0.297  -1.422  76.620
 Approx polarizability: 165.932   5.720 136.912  -0.745  -3.676 120.283

                      1                      2                      3
                      A                      A                      A
 Frequencies --     38.9825                67.6480                74.2424
 Red. masses --      2.8153                 1.7770                 2.2953
 Frc consts  --      0.0025                 0.0048                 0.0075
 IR Inten    --      1.0464                 0.6286                 0.8582

                      4                      5                      6
                      A                      A                      A
 Frequencies --    103.6204               158.8200               232.0143
 Red. masses --      2.7685                 3.4440                 3.1245
 Frc consts  --      0.0175                 0.0512                 0.0991
 IR Inten    --      0.8782                 3.2612                 1.1120

                      7                      8                      9
                      A                      A                      A
 Frequencies --    234.7717               288.3760               321.1393
 Red. masses --      2.2150                 2.5247                 4.6775
 Frc consts  --      0.0719                 0.1237                 0.2842
 IR Inten    --      1.1507                 1.5890                 1.8937

                     10                     11                     12
                      A                      A                      A
 Frequencies --    410.6702               443.7620               470.4796
 Red. masses --      3.2860                 3.4397                 2.9146
 Frc consts  --      0.3265                 0.3991                 0.3801
 IR Inten    --      1.4074                 3.3567                 1.8498

                     13                     14                     15
                      A                      A                      A
 Frequencies --    489.6667               533.7269               655.3289
 Red. masses --      3.1817                 2.9491                 4.4548
 Frc consts  --      0.4495                 0.4950                 1.1272
 IR Inten    --      0.0896                 5.5582                 5.1048

                     16                     17                     18
                      A                      A                      A
 Frequencies --    691.3140               720.6538               808.5035
 Red. masses --      4.2328                 2.9006                 1.5127
 Frc consts  --      1.1919                 0.8875                 0.5826
 IR Inten    --      0.4542                 4.8158                 0.4286

                     19                     20                     21
                      A                      A                      A
 Frequencies --    835.4811               838.9312               925.8827
 Red. masses --      1.4496                 1.5071                 3.1569
 Frc consts  --      0.5962                 0.6250                 1.5945
 IR Inten    --      2.7731                 9.0542                71.3907

                     22                     23                     24
                      A                      A                      A
 Frequencies --    938.2218               966.3318               982.8524
 Red. masses --      1.5103                 2.5315                 2.4815
 Frc consts  --      0.7833                 1.3928                 1.4123
 IR Inten    --     20.2098                18.7991                42.4786

                     25                     26                     27
                      A                      A                      A
 Frequencies --   1011.6131              1026.6150              1064.3979
 Red. masses --      2.1850                 2.0877                 1.5406
 Frc consts  --      1.3174                 1.2964                 1.0284
 IR Inten    --     13.8722                 1.1814                 4.3452

                     28                     29                     30
                      A                      A                      A
 Frequencies --   1078.3567              1086.8475              1103.6211
 Red. masses --      3.1298                 1.8958                 1.3425
 Frc consts  --      2.1443                 1.3194                 0.9634
 IR Inten    --    150.3048                29.3178                 2.6027

                     31                     32                     33
                      A                      A                      A
 Frequencies --   1146.4924              1159.2090              1229.0961
 Red. masses --      1.6655                 2.0932                 1.3580
 Frc consts  --      1.2899                 1.6572                 1.2087
 IR Inten    --      7.7224                25.4101                 1.0232

                     34                     35                     36
                      A                      A                      A
 Frequencies --   1246.9794              1281.5559              1317.3293
 Red. masses --      1.3668                 1.3541                 1.2536
 Frc consts  --      1.2522                 1.3104                 1.2817
 IR Inten    --      2.1594                13.5611                23.1408

                     37                     38                     39
                      A                      A                      A
 Frequencies --   1343.0477              1351.7009              1357.7258
 Red. masses --      1.2346                 1.3317                 1.2398
 Frc consts  --      1.3121                 1.4335                 1.3466
 IR Inten    --     19.6932                 4.8090                 2.9392

                     40                     41                     42
                      A                      A                      A
 Frequencies --   1361.4646              1417.1568              1422.5628
 Red. masses --      1.2438                 1.5913                 1.4237
 Frc consts  --      1.3584                 1.8830                 1.6975
 IR Inten    --      6.7064                 6.0096                19.9351

                     43                     44                     45
                      A                      A                      A
 Frequencies --   1434.2062              1496.9040              1503.8610
 Red. masses --      1.2524                 1.0879                 1.0477
 Frc consts  --      1.5178                 1.4363                 1.3961
 IR Inten    --      8.1595                 1.1581                10.6726

                     46                     47                     48
                      A                      A                      A
 Frequencies --   1504.5208              1507.8640              1510.3559
 Red. masses --      1.0840                 1.0903                 1.0571
 Frc consts  --      1.4458                 1.4606                 1.4208
 IR Inten    --      8.2764                 2.5558                 5.7107

                     49                     50                     51
                      A                      A                      A
 Frequencies --   1523.5910              1725.5996              3030.6805
 Red. masses --      1.0990                 8.2595                 1.0837
 Frc consts  --      1.5030                14.4906                 5.8645
 IR Inten    --      4.0361                 6.7227                20.0937

                     52                     53                     54
                      A                      A                      A
 Frequencies --   3051.3996              3054.7936              3055.1139
 Red. masses --      1.0609                 1.0583                 1.0440
 Frc consts  --      5.8199                 5.8186                 5.7410
 IR Inten    --     26.7169                33.4395                 7.5702

                     55                     56                     57
                      A                      A                      A
 Frequencies --   3056.0050              3057.9479              3099.6411
 Red. masses --      1.0657                 1.0600                 1.1019
 Frc consts  --      5.8638                 5.8399                 6.2376
 IR Inten    --     26.5589                11.9448                20.8063

                     58                     59                     60
                      A                      A                      A
 Frequencies --   3104.9573              3110.1555              3121.4658
 Red. masses --      1.1029                 1.0982                 1.1016
 Frc consts  --      6.2649                 6.2586                 6.3238
 IR Inten    --     26.7655                10.5037                20.0515

                     61                     62                     63
                      A                      A                      A
 Frequencies --   3122.5792              3148.9402              3184.5856
 Red. masses --      1.1008                 1.1023                 1.0906
 Frc consts  --      6.3240                 6.4397                 6.5164
 IR Inten    --     12.1024                17.8930                17.0849

 - Thermochemistry -
 -------------------
 Temperature   298.150 Kelvin.  Pressure   1.00000 Atm.
 Atom     1 has atomic number  6 and mass  12.00000

 Molecular mass:   159.07179 amu.
 Principal axes and moments of inertia in atomic units:
                           1         2         3
     Eigenvalues --   589.467273492.496093810.05985
           X            0.99989  -0.00363   0.01422
           Y            0.00366   0.99999  -0.00243
           Z           -0.01421   0.00248   0.99990
 This molecule is an asymmetric top.
 Rotational symmetry number  1.
 Warning -- assumption of classical behavior for rotation
           may cause significant error
 Rotational temperatures (Kelvin)      0.14694     0.02480     0.02273
 Rotational constants (GHZ):           3.06165     0.51675     0.47368
 Zero-point vibrational energy     518236.4 (Joules/Mol)
                                  123.86147 (Kcal/Mol)
 Warning -- explicit consideration of  14 degrees of freedom as
           vibrations may cause significant error
 Vibrational temperatures:     56.09    97.33   106.82   149.09   228.51
          (Kelvin)            333.82   337.78   414.91   462.05   590.86
                              638.47   676.92   704.52   767.91   942.87
                              994.65  1036.86  1163.26  1202.07  1207.03
                             1332.14  1349.89  1390.34  1414.11  1455.49
                             1477.07  1531.43  1551.51  1563.73  1587.86
                             1649.55  1667.84  1768.40  1794.13  1843.87
                             1895.34  1932.35  1944.80  1953.46  1958.84
                             2038.97  2046.75  2063.50  2153.71  2163.72
                             2164.67  2169.48  2173.07  2192.11  2482.75
                             4360.47  4390.28  4395.17  4395.63  4396.91
                             4399.70  4459.69  4467.34  4474.82  4491.09
                             4492.70  4530.62  4581.91

 Zero-point correction=                           0.197386 (Hartree/Particle)
 Thermal correction to Energy=                    0.208209
 Thermal correction to Enthalpy=                  0.209153
 Thermal correction to Gibbs Free Energy=         0.159672
 Sum of electronic and zero-point Energies=           -802.528347
 Sum of electronic and thermal Energies=              -802.517524
 Sum of electronic and thermal Enthalpies=            -802.516580
 Sum of electronic and thermal Free Energies=         -802.566061

                     E (Thermal)             CV                S
                      KCal/Mol        Cal/Mol-Kelvin    Cal/Mol-Kelvin
 Total                  130.653             39.600            104.141
 Electronic               0.000              0.000              0.000
 Translational            0.889              2.981             41.102
 Rotational               0.889              2.981             30.440
 Vibrational            128.876             33.638             32.599
 Vibration     1          0.594              1.981              5.310
 Vibration     2          0.598              1.970              4.221
 Vibration     3          0.599              1.966              4.038
 Vibration     4          0.605              1.946              3.385
 Vibration     5          0.621              1.893              2.564
 Vibration     6          0.653              1.792              1.863
 Vibration     7          0.655              1.788              1.842
 Vibration     8          0.685              1.695              1.483
 Vibration     9          0.707              1.633              1.304
 Vibration    10          0.775              1.447              0.924
 Vibration    11          0.803              1.375              0.815
 Vibration    12          0.828              1.316              0.736
 Vibration    13          0.846              1.273              0.684
 Vibration    14          0.889              1.175              0.579

 Optimization completed.
    -- Stationary point found.
 Normal termination of Gaussian 16 at Tue Dec  8 13:47:03 2020.

 ----------------------------------------------------------------------
 # B3LYP/6-311++G(d,p) empiricaldispersion=gd3bj scf=xqc pop=npa geom=c
 heck
 ----------------------------------------------------------------------

 --------------------------------------
 CID_152864842_JID_980_Energie_neutraal
 --------------------------------------
 Structure from the checkpoint file:  "JID_980.chk"
 Charge =  0 Multiplicity = 1

 SCF Done:  E(RB3LYP) =  -802.866926010     A.U. after   13 cycles
 Normal termination of Gaussian 16 at Tue Dec  8 13:50:41 2020.

 ----------------------------------------------------------------------
 # B3LYP/6-311++G(d,p) empiricaldispersion=gd3bj scf=xqc pop=npa geom=c
 heck
 ----------------------------------------------------------------------

 ------------------------------------
 CID_152864842_JID_980_Energie_kation
 ------------------------------------
 Structure from the checkpoint file:  "JID_980.chk"
 Charge =  1 Multiplicity = 2

 SCF Done:  E(UB3LYP) =  -802.564302308     A.U. after   20 cycles
 Normal termination of Gaussian 16 at Tue Dec  8 13:56:45 2020.
 Gaussian 16:  ES64L-G16RevA.03 25-Dec-2016

 ----------------------------------------------------------------------
 # B3LYP/6-311++G(d,p) empiricaldispersion=gd3bj scf=xqc pop=npa geom=c
 heck
 ----------------------------------------------------------------------

 -----------------------------------
 CID_152864842_JID_980_Energie_anion
 -----------------------------------
 Structure from the checkpoint file:  "JID_980.chk"
 Charge = -1 Multiplicity = 2

                         Standard orientation:
 ---------------------------------------------------------------------
 Center     Atomic      Atomic             Coordinates (Angstroms)
 Number     Number       Type             X           Y           Z
 ---------------------------------------------------------------------
      1          6           0       -4.002015    0.511019   -0.732452
      2          6           0       -3.496114   -0.480681    0.272649
      3          7           0       -2.285869   -0.606374    0.667012
      4          8           0       -1.455542    0.338151    0.044159
      5          6           0       -0.090799    0.099292    0.417788
      6          6           0        0.668267    1.373133    0.056726
      7          6           0        2.145561    1.292296    0.448834
      8         16           0        3.036486   -0.066900   -0.402011
      9          6           0        1.907559   -1.431406    0.079217
     10          6           0        0.450428   -1.144781   -0.287275
     11          1           0       -3.408325    0.457019   -1.651589
     12          1           0       -3.893811    1.533530   -0.350224
     13          1           0       -5.053743    0.332666   -0.968523
     14          1           0       -4.184009   -1.179122    0.745368
     15          1           0       -0.057872   -0.055429    1.505359
     16          1           0        0.579425    1.551452   -1.021061
     17          1           0        0.198019    2.219751    0.572574
     18          1           0        2.669293    2.212000    0.173176
     19          1           0        2.250510    1.165300    1.533144
     20          1           0        2.007990   -1.615742    1.155791
     21          1           0        2.273819   -2.320490   -0.441967
     22          1           0       -0.175216   -1.999626   -0.004473
     23          1           0        0.358254   -1.004723   -1.370670
 ---------------------------------------------------------------------

 SCF Done:  E(UB3LYP) =  -802.848446027     A.U. after   33 cycles
 SCF Done:  E(UB3LYP) =  -802.848446027     a.u. after    1 cycles

 The electronic state is 2-A.
 Alpha  occ. eigenvalues --  -88.74167 -19.05801 -14.25647 -10.12499 -10.10707
 Alpha  occ. eigenvalues --  -10.10458 -10.10283 -10.07475 -10.07451 -10.06580
 Alpha  occ. eigenvalues --   -7.82793  -5.79172  -5.78842  -5.78161  -0.98533
 Alpha  occ. eigenvalues --   -0.78243  -0.73389  -0.66619  -0.64709  -0.61758
 Alpha  occ. eigenvalues --   -0.53521  -0.52523  -0.47132  -0.46680  -0.39230
 Alpha  occ. eigenvalues --   -0.38683  -0.36821  -0.35548  -0.34335  -0.34047
 Alpha  occ. eigenvalues --   -0.31808  -0.30471  -0.29982  -0.28948  -0.27592
 Alpha  occ. eigenvalues --   -0.27182  -0.26273  -0.23913  -0.22370  -0.21081
 Alpha  occ. eigenvalues --   -0.17673  -0.14990  -0.13131   0.04837
 Alpha virt. eigenvalues --    0.06445   0.07060   0.08013   0.08687   0.09172
 Alpha virt. eigenvalues --    0.09698   0.10289   0.10803   0.10988   0.11686
 Alpha virt. eigenvalues --    0.12496   0.12844   0.13200   0.13617   0.14530

  Beta  occ. eigenvalues --  -88.74165 -19.05787 -14.25643 -10.12492 -10.10693
  Beta  occ. eigenvalues --  -10.10438 -10.10250 -10.07455 -10.07443 -10.06530
  Beta  occ. eigenvalues --   -7.82791  -5.79171  -5.78837  -5.78158  -0.98512
  Beta  occ. eigenvalues --   -0.78213  -0.73361  -0.66584  -0.64671  -0.61692
  Beta  occ. eigenvalues --   -0.53465  -0.52483  -0.47064  -0.46639  -0.39185
  Beta  occ. eigenvalues --   -0.38631  -0.36790  -0.35510  -0.34301  -0.33999
  Beta  occ. eigenvalues --   -0.31764  -0.30430  -0.29938  -0.28892  -0.27537
  Beta  occ. eigenvalues --   -0.27143  -0.26243  -0.23881  -0.22339  -0.21051
  Beta  occ. eigenvalues --   -0.17649  -0.14967  -0.13111
  Beta virt. eigenvalues --    0.06996   0.07631   0.07911   0.08388   0.09174
  Beta virt. eigenvalues --    0.09570   0.10323   0.10679   0.11068   0.11276
  Beta virt. eigenvalues --    0.12095   0.12896   0.13098   0.13330   0.14022

 Mulliken charges and spin densities:
               1          2
     1  C    1.736661  -2.344866
     2  C   -0.325110   0.399747
     3  N   -0.196393   0.076081
     4  O    0.053602   0.045308
     5  C    0.046308  -0.789270
     6  C   -0.916050   0.910956
     7  C    0.780740  -1.263515
     8  S    0.027032   0.008022
     9  C   -0.112111  -0.369417
    10  C    0.345840  -0.383631
    11  H   -0.172006   0.343776
    12  H   -0.203493   0.375374
    13  H   -0.618020   0.769285
    14  H   -0.736644   0.932297
    15  H   -0.003999   0.197425
    16  H    0.065006   0.065330
    17  H   -0.300495   0.486944
    18  H   -0.503885   0.726640
    19  H   -0.095162   0.275448
    20  H    0.069346   0.106403
    21  H    0.026071   0.162237
    22  H   -0.043453   0.216547
    23  H    0.076214   0.052877
 Sum of Mulliken charges =  -1.00000   1.00000

 Dipole moment (field-independent basis, Debye):
    X=              6.5850    Y=             -2.2729    Z=             -0.3476  Tot=              6.9749
 Quadrupole moment (field-independent basis, Debye-Ang):
   XX=           -168.2647   YY=           -105.5739   ZZ=            -96.7329
   XY=             -7.9768   XZ=             -5.1156   YZ=             -1.1576

 Summary of Natural Population Analysis:

                                       Natural Population
                Natural  -----------------------------------------------
    Atom  No    Charge         Core      Valence    Rydberg      Total
 -----------------------------------------------------------------------
      C    1   -0.32539      0.99965     2.31924    0.00650     3.32539
      C    2    0.04735      0.99967     1.93733    0.01565     2.95265
      N    3   -0.08384      0.99965     2.57025    0.01394     3.58384
      O    4   -0.22957      0.99988     3.21717    0.01252     4.22957
      C    5    0.06785      0.99952     1.91555    0.01708     2.93215
      C    6   -0.20388      0.99959     2.19253    0.01176     3.20388
      C    7   -0.24959      0.99959     2.23775    0.01225     3.24959
      S    8    0.08044      4.99964     2.90273    0.01719     7.91956
      C    9   -0.24830      0.99959     2.23966    0.00904     3.24830
      C   10   -0.20807      0.99959     2.20000    0.00849     3.20807
      H   11    0.11209      0.00000     0.38644    0.00146     0.38791
      H   12    0.11388      0.00000     0.38442    0.00170     0.38612
      H   13    0.10840      0.00000     0.38815    0.00345     0.39160
      H   14    0.09436      0.00000     0.40367    0.00197     0.40564
      H   15    0.08624      0.00000     0.41101    0.00275     0.41376
      H   16    0.10184      0.00000     0.39622    0.00194     0.39816
      H   17    0.10921      0.00000     0.38875    0.00203     0.39079
      H   18    0.11072      0.00000     0.38752    0.00176     0.38928
      H   19    0.09986      0.00000     0.39831    0.00184     0.40014
      H   20    0.09894      0.00000     0.39945    0.00161     0.40106
      H   21    0.10609      0.00000     0.39269    0.00122     0.39391
      H   22    0.11036      0.00000     0.38811    0.00153     0.38964
      H   23    0.10101      0.00000     0.39726    0.00173     0.39899
 =======================================================================
   * Total *    0.00000     13.99636    28.85421    0.14943    43.00000

 Normal termination of Gaussian 16 at Tue Dec  8 14:05:35 2020.
