 Gaussian 16, Revision A.03,

 -----------------------------------------------------------
 # opt freq B3LYP/6-31G(d) empiricaldispersion=gd3bj scf=xqc
 -----------------------------------------------------------

 ------------------------------
 CID_24709072_JID_9572_neutraal
 ------------------------------
 Symbolic Z-matrix:
 Charge =  0 Multiplicity = 1

 SCF Done:  E(RB3LYP) =  -857.233295329     A.U. after   14 cycles
 SCF Done:  E(RB3LYP) =  -857.238431432     A.U. after   13 cycles
 SCF Done:  E(RB3LYP) =  -857.238700447     A.U. after   13 cycles
 SCF Done:  E(RB3LYP) =  -857.239561941     A.U. after   13 cycles
 SCF Done:  E(RB3LYP) =  -857.239902015     A.U. after   12 cycles
 SCF Done:  E(RB3LYP) =  -857.239996029     A.U. after   11 cycles
 SCF Done:  E(RB3LYP) =  -857.240025979     A.U. after   11 cycles
 SCF Done:  E(RB3LYP) =  -857.240038106     A.U. after   11 cycles
 SCF Done:  E(RB3LYP) =  -857.240046904     A.U. after   10 cycles
 SCF Done:  E(RB3LYP) =  -857.240049654     A.U. after    9 cycles
 SCF Done:  E(RB3LYP) =  -857.240050636     A.U. after    8 cycles
 SCF Done:  E(RB3LYP) =  -857.240051220     A.U. after    8 cycles
 SCF Done:  E(RB3LYP) =  -857.240051299     A.U. after    7 cycles
 Optimization completed.
    -- Stationary point found.
 Normal termination of Gaussian 16 at Sun Dec 13 16:12:38 2020.

 --------------------------------------------------------------------
 #N Geom=AllCheck Guess=TCheck SCRF=Check GenChk RB3LYP/6-31G(d) Freq
 --------------------------------------------------------------------

 Structure from the checkpoint file:  "JID_9572.chk"
 ------------------------------
 CID_24709072_JID_9572_neutraal
 ------------------------------
 Charge =  0 Multiplicity = 1

 SCF Done:  E(RB3LYP) =  -857.240051299     A.U. after    1 cycles

  Exact polarizability: 194.351   9.143 175.693  -6.745  18.419 140.426
 Approx polarizability: 257.194  22.048 296.464 -13.486  52.486 246.592

                      1                      2                      3
                      A                      A                      A
 Frequencies --     24.2805                26.0180                37.6838
 Red. masses --      5.2567                 4.0661                 4.5389
 Frc consts  --      0.0018                 0.0016                 0.0038
 IR Inten    --      0.7459                 0.0613                 1.1426

                      4                      5                      6
                      A                      A                      A
 Frequencies --     77.8058                80.5564               103.4566
 Red. masses --      4.7755                 5.3817                 5.0537
 Frc consts  --      0.0170                 0.0206                 0.0319
 IR Inten    --      0.4878                 1.1165                 0.6986

                      7                      8                      9
                      A                      A                      A
 Frequencies --    148.7516               176.0903               209.5226
 Red. masses --      4.5281                 5.3712                 3.9058
 Frc consts  --      0.0590                 0.0981                 0.1010
 IR Inten    --      2.2358                 0.7584                 0.6430

                     10                     11                     12
                      A                      A                      A
 Frequencies --    226.2494               268.5055               281.5416
 Red. masses --      4.5085                 3.6415                 1.1160
 Frc consts  --      0.1360                 0.1547                 0.0521
 IR Inten    --      1.3872                14.0492                 8.1780

                     13                     14                     15
                      A                      A                      A
 Frequencies --    292.5465               326.4407               342.3673
 Red. masses --      1.5550                 3.8459                 3.5503
 Frc consts  --      0.0784                 0.2415                 0.2452
 IR Inten    --     72.8582                20.5638                 5.7012

                     16                     17                     18
                      A                      A                      A
 Frequencies --    363.3517               376.4759               414.1445
 Red. masses --      5.3315                 2.2515                 2.9881
 Frc consts  --      0.4147                 0.1880                 0.3020
 IR Inten    --      8.2303                31.8543                 0.2745

                     19                     20                     21
                      A                      A                      A
 Frequencies --    427.1913               443.6892               453.5252
 Red. masses --      2.4144                 2.1735                 2.7897
 Frc consts  --      0.2596                 0.2521                 0.3381
 IR Inten    --     16.4419                27.1900                 2.4550

                     22                     23                     24
                      A                      A                      A
 Frequencies --    471.6193               481.5574               543.5189
 Red. masses --      3.6870                 4.0137                 3.2546
 Frc consts  --      0.4832                 0.5484                 0.5665
 IR Inten    --      4.2277                 8.1087                 6.4982

                     25                     26                     27
                      A                      A                      A
 Frequencies --    552.6351               607.0587               619.4053
 Red. masses --      3.5987                 4.3437                 1.7489
 Frc consts  --      0.6476                 0.9431                 0.3953
 IR Inten    --     19.5174                 5.0508               110.8929

                     28                     29                     30
                      A                      A                      A
 Frequencies --    636.5009               650.3434               693.3650
 Red. masses --      6.4048                 7.4874                 3.9394
 Frc consts  --      1.5288                 1.8658                 1.1158
 IR Inten    --      0.0126                 0.9191                56.5144

                     31                     32                     33
                      A                      A                      A
 Frequencies --    712.9947               737.3298               749.4061
 Red. masses --      1.7395                 2.9381                 3.5827
 Frc consts  --      0.5210                 0.9411                 1.1855
 IR Inten    --     52.0030                83.3800                30.7317

                     34                     35                     36
                      A                      A                      A
 Frequencies --    769.7900               783.4853               819.2280
 Red. masses --      5.5873                 2.4783                 2.9345
 Frc consts  --      1.9507                 0.8963                 1.1603
 IR Inten    --     16.5782                 0.1371                12.5109

                     37                     38                     39
                      A                      A                      A
 Frequencies --    851.0655               859.3513               861.4229
 Red. masses --      1.5518                 1.2599                 4.2771
 Frc consts  --      0.6622                 0.5482                 1.8700
 IR Inten    --     25.0399                 1.1627                10.3642

                     40                     41                     42
                      A                      A                      A
 Frequencies --    926.9807               931.2600               954.8661
 Red. masses --      1.3903                 3.1476                 3.6001
 Frc consts  --      0.7039                 1.6083                 1.9339
 IR Inten    --      1.0090                57.8850               109.5032

                     43                     44                     45
                      A                      A                      A
 Frequencies --    967.5795               970.2977               989.1297
 Red. masses --      1.3505                 1.9311                 1.2971
 Frc consts  --      0.7449                 1.0712                 0.7477
 IR Inten    --      0.6150                24.4521                 1.0212

                     46                     47                     48
                      A                      A                      A
 Frequencies --    993.7423              1023.2614              1035.5713
 Red. masses --      1.2446                 6.0192                 3.0842
 Frc consts  --      0.7241                 3.7133                 1.9487
 IR Inten    --      0.8387                 1.3031                17.0936

                     49                     50                     51
                      A                      A                      A
 Frequencies --   1043.3423              1067.3933              1090.4252
 Red. masses --      2.4250                 2.0087                 2.1229
 Frc consts  --      1.5553                 1.3484                 1.4872
 IR Inten    --     17.7585                20.2157                42.0725

                     52                     53                     54
                      A                      A                      A
 Frequencies --   1119.4403              1131.8789              1143.3810
 Red. masses --      2.2631                 1.9060                 1.8891
 Frc consts  --      1.6709                 1.4387                 1.4550
 IR Inten    --     24.1334               115.8778                 0.1157

                     55                     56                     57
                      A                      A                      A
 Frequencies --   1162.9617              1185.6864              1194.3385
 Red. masses --      1.2410                 1.8495                 1.0970
 Frc consts  --      0.9889                 1.5320                 0.9220
 IR Inten    --     14.5335                 3.2773                 0.2044

                     58                     59                     60
                      A                      A                      A
 Frequencies --   1219.5439              1243.6744              1308.2324
 Red. masses --      1.1354                 2.3977                 2.4779
 Frc consts  --      0.9950                 2.1851                 2.4986
 IR Inten    --      4.0513                10.9544               286.2618

                     61                     62                     63
                      A                      A                      A
 Frequencies --   1320.8069              1334.1669              1343.6919
 Red. masses --      3.9199                 1.6143                 2.2937
 Frc consts  --      4.0290                 1.6930                 2.4399
 IR Inten    --      9.0350                 6.7011                12.7903

                     64                     65                     66
                      A                      A                      A
 Frequencies --   1353.9687              1370.6413              1387.2433
 Red. masses --      1.6816                 2.2035                 1.4637
 Frc consts  --      1.8163                 2.4390                 1.6596
 IR Inten    --    207.6666                 2.0542                22.7265

                     67                     68                     69
                      A                      A                      A
 Frequencies --   1417.7332              1428.3451              1436.2261
 Red. masses --      1.5868                 1.3354                 2.3216
 Frc consts  --      1.8792                 1.6051                 2.8216
 IR Inten    --      4.4758                29.0027                82.5539

                     70                     71                     72
                      A                      A                      A
 Frequencies --   1459.4177              1501.5189              1516.9606
 Red. masses --      2.5339                 2.2398                 1.0799
 Frc consts  --      3.1798                 2.9752                 1.4642
 IR Inten    --     35.5934                12.9746                10.7528

                     73                     74                     75
                      A                      A                      A
 Frequencies --   1540.0622              1549.0588              1550.9391
 Red. masses --      1.3300                 2.0038                 2.1253
 Frc consts  --      1.8586                 2.8330                 3.0121
 IR Inten    --     42.8880               114.6884                37.3325

                     76                     77                     78
                      A                      A                      A
 Frequencies --   1612.4964              1648.7202              1653.3671
 Red. masses --      6.7522                 5.5722                 1.3697
 Frc consts  --     10.3441                 8.9242                 2.2061
 IR Inten    --     23.9996                 4.4806               112.3492

                     79                     80                     81
                      A                      A                      A
 Frequencies --   1663.1013              1670.4602              1721.8923
 Red. masses --      4.3161                 5.5375                 4.7733
 Frc consts  --      7.0336                 9.1041                 8.3384
 IR Inten    --    114.1956                 4.0043               130.7061

                     82                     83                     84
                      A                      A                      A
 Frequencies --   3061.9474              3068.9274              3130.9793
 Red. masses --      1.0770                 1.0461                 1.1013
 Frc consts  --      5.9492                 5.8049                 6.3609
 IR Inten    --     19.5559                34.7587                27.3584

                     85                     86                     87
                      A                      A                      A
 Frequencies --   3178.1329              3181.1193              3189.3386
 Red. masses --      1.1003                 1.0847                 1.0880
 Frc consts  --      6.5482                 6.4671                 6.5204
 IR Inten    --     10.1653                 0.9628                 5.7916

                     88                     89                     90
                      A                      A                      A
 Frequencies --   3199.2708              3206.0171              3208.2669
 Red. masses --      1.0922                 1.0890                 1.0911
 Frc consts  --      6.5866                 6.5952                 6.6171
 IR Inten    --     27.2058                 6.1999                 7.5922

                     91                     92                     93
                      A                      A                      A
 Frequencies --   3208.7680              3220.3783              3229.8919
 Red. masses --      1.0961                 1.0933                 1.0947
 Frc consts  --      6.6494                 6.6802                 6.7287
 IR Inten    --     28.7125                10.7439                 5.6806

                     94                     95                     96
                      A                      A                      A
 Frequencies --   3556.8544              3660.9318              3785.1989
 Red. masses --      1.0466                 1.0992                 1.0679
 Frc consts  --      7.8011                 8.6796                 9.0147
 IR Inten    --     27.9426                21.6121                87.6884

 - Thermochemistry -
 -------------------
 Temperature   298.150 Kelvin.  Pressure   1.00000 Atm.
 Atom     1 has atomic number  6 and mass  12.00000

 Molecular mass:   257.11643 amu.
 Principal axes and moments of inertia in atomic units:
                           1         2         3
     Eigenvalues --  2834.221878829.33559**********
           X            0.99998  -0.00386  -0.00573
           Y            0.00381   0.99996  -0.00831
           Z            0.00576   0.00829   0.99995
 This molecule is an asymmetric top.
 Rotational symmetry number  1.
 Warning -- assumption of classical behavior for rotation
           may cause significant error
 Rotational temperatures (Kelvin)      0.03056     0.00981     0.00859
 Rotational constants (GHZ):           0.63677     0.20440     0.17908
 Zero-point vibrational energy     722365.6 (Joules/Mol)
                                  172.64953 (Kcal/Mol)
 Warning -- explicit consideration of  27 degrees of freedom as
           vibrations may cause significant error
 Vibrational temperatures:     34.93    37.43    54.22   111.95   115.90
          (Kelvin)            148.85   214.02   253.35   301.46   325.52
                              386.32   405.08   420.91   469.68   492.59
                              522.78   541.66   595.86   614.63   638.37
                              652.52   678.55   692.85   782.00   795.12
                              873.42   891.19   915.78   935.70   997.60
                             1025.84  1060.85  1078.23  1107.56  1127.26
                             1178.69  1224.49  1236.41  1239.40  1333.72
                             1339.88  1373.84  1392.13  1396.04  1423.14
                             1429.77  1472.24  1489.96  1501.14  1535.74
                             1568.88  1610.62  1628.52  1645.07  1673.24
                             1705.94  1718.39  1754.65  1789.37  1882.25
                             1900.35  1919.57  1933.27  1948.06  1972.05
                             1995.93  2039.80  2055.07  2066.41  2099.78
                             2160.35  2182.57  2215.81  2228.75  2231.46
                             2320.02  2372.14  2378.83  2392.83  2403.42
                             2477.42  4405.46  4415.50  4504.78  4572.62
                             4576.92  4588.75  4603.04  4612.74  4615.98
                             4616.70  4633.41  4647.09  5117.52  5267.26
                             5446.06

 Zero-point correction=                           0.275135 (Hartree/Particle)
 Thermal correction to Energy=                    0.292101
 Thermal correction to Enthalpy=                  0.293045
 Thermal correction to Gibbs Free Energy=         0.228789
 Sum of electronic and zero-point Energies=           -856.964917
 Sum of electronic and thermal Energies=              -856.947950
 Sum of electronic and thermal Enthalpies=            -856.947006
 Sum of electronic and thermal Free Energies=         -857.011262

                     E (Thermal)             CV                S
                      KCal/Mol        Cal/Mol-Kelvin    Cal/Mol-Kelvin
 Total                  183.296             66.003            135.239
 Electronic               0.000              0.000              0.000
 Translational            0.889              2.981             42.533
 Rotational               0.889              2.981             33.888
 Vibrational            181.519             60.041             58.817
 Vibration     1          0.593              1.985              6.249
 Vibration     2          0.593              1.985              6.112
 Vibration     3          0.594              1.982              5.377
 Vibration     4          0.599              1.964              3.945
 Vibration     5          0.600              1.962              3.877
 Vibration     6          0.605              1.946              3.388
 Vibration     7          0.618              1.904              2.688
 Vibration     8          0.628              1.872              2.369
 Vibration     9          0.642              1.826              2.048
 Vibration    10          0.650              1.801              1.909
 Vibration    11          0.673              1.731              1.606
 Vibration    12          0.681              1.708              1.524
 Vibration    13          0.688              1.688              1.459
 Vibration    14          0.710              1.623              1.278
 Vibration    15          0.721              1.591              1.201
 Vibration    16          0.737              1.548              1.108
 Vibration    17          0.747              1.520              1.053
 Vibration    18          0.778              1.440              0.912
 Vibration    19          0.789              1.411              0.868
 Vibration    20          0.803              1.375              0.815
 Vibration    21          0.812              1.353              0.785
 Vibration    22          0.829              1.313              0.733
 Vibration    23          0.838              1.291              0.706
 Vibration    24          0.899              1.154              0.558
 Vibration    25          0.908              1.134              0.539
 Vibration    26          0.966              1.017              0.438
 Vibration    27          0.979              0.991              0.417

                           ! Non-Optimized Parameters !
 Normal termination of Gaussian 16 at Sun Dec 13 16:29:31 2020.

 ----------------------------------------------------------------------
 # B3LYP/6-311++G(d,p) empiricaldispersion=gd3bj scf=xqc pop=npa geom=c
 heck
 ----------------------------------------------------------------------

 --------------------------------------
 CID_24709072_JID_9572_Energie_neutraal
 --------------------------------------
 Structure from the checkpoint file:  "JID_9572.chk"
 Charge =  0 Multiplicity = 1

 SCF Done:  E(RB3LYP) =  -857.484832696     A.U. after   16 cycles
 Normal termination of Gaussian 16 at Sun Dec 13 16:37:08 2020.

 ----------------------------------------------------------------------
 # B3LYP/6-311++G(d,p) empiricaldispersion=gd3bj scf=xqc pop=npa geom=c
 heck
 ----------------------------------------------------------------------

 ------------------------------------
 CID_24709072_JID_9572_Energie_kation
 ------------------------------------
 Structure from the checkpoint file:  "JID_9572.chk"
 Charge =  1 Multiplicity = 2

 SCF Done:  E(UB3LYP) =  -857.202391803     A.U. after   29 cycles
 Normal termination of Gaussian 16 at Sun Dec 13 16:57:14 2020.
 Gaussian 16:  ES64L-G16RevA.03 25-Dec-2016

 ----------------------------------------------------------------------
 # B3LYP/6-311++G(d,p) empiricaldispersion=gd3bj scf=xqc pop=npa geom=c
 heck
 ----------------------------------------------------------------------

 -----------------------------------
 CID_24709072_JID_9572_Energie_anion
 -----------------------------------
 Structure from the checkpoint file:  "JID_9572.chk"
 Charge = -1 Multiplicity = 2

                         Standard orientation:
 ---------------------------------------------------------------------
 Center     Atomic      Atomic             Coordinates (Angstroms)
 Number     Number       Type             X           Y           Z
 ---------------------------------------------------------------------
      1          6           0       -2.410719   -1.846011    1.881207
      2          6           0       -2.530903   -1.510142    0.398933
      3          6           0       -2.805799   -0.056599    0.050312
      4          6           0       -2.838734    0.312655   -1.300417
      5          6           0       -3.115218    1.625358   -1.673850
      6          6           0       -3.375252    2.590013   -0.698317
      7          6           0       -3.351612    2.229099    0.648024
      8          6           0       -3.065554    0.914588    1.019560
      9          8           0       -1.403171   -2.029498   -0.361689
     10          6           0       -0.188221   -1.448760   -0.253021
     11          7           0        0.032002   -0.509213    0.663397
     12          6           0        1.251617    0.034044    0.724112
     13          6           0        2.308420   -0.325644   -0.117129
     14          6           0        2.054625   -1.326274   -1.071873
     15          6           0        0.797937   -1.900013   -1.147049
     16          6           0        3.630685    0.315400    0.003802
     17          7           0        3.679858    1.520420    0.471522
     18          8           0        5.040187    1.936439    0.570751
     19          7           0        4.734294   -0.391657   -0.446661
     20          1           0       -1.638764   -1.245972    2.363807
     21          1           0       -2.156661   -2.904729    1.988716
     22          1           0       -3.370168   -1.675084    2.381145
     23          1           0       -3.346545   -2.111439   -0.017655
     24          1           0       -2.630265   -0.436138   -2.059499
     25          1           0       -3.129705    1.895901   -2.726102
     26          1           0       -3.593039    3.614583   -0.986503
     27          1           0       -3.547525    2.973218    1.415183
     28          1           0       -3.033183    0.654080    2.071755
     29          1           0        1.407065    0.794685    1.483693
     30          1           0        2.835172   -1.624528   -1.765261
     31          1           0        0.553183   -2.663782   -1.876276
     32          1           0        4.945272    2.839517    0.905792
     33          1           0        4.705544   -1.387879   -0.271127
     34          1           0        5.612758    0.038903   -0.183731
 ---------------------------------------------------------------------

 SCF Done:  E(UB3LYP) =  -857.474407576     A.U. after   33 cycles
 SCF Done:  E(UB3LYP) =  -857.474407576     a.u. after    1 cycles

 The electronic state is 2-A.
 Alpha  occ. eigenvalues --  -19.05425 -19.04927 -14.23440 -14.22366 -14.19341
 Alpha  occ. eigenvalues --  -10.15541 -10.13819 -10.13641 -10.09866 -10.08019
 Alpha  occ. eigenvalues --  -10.07896 -10.07841 -10.07768 -10.07560 -10.07520
 Alpha  occ. eigenvalues --  -10.07466 -10.07226 -10.06830 -10.06673  -0.97202
 Alpha  occ. eigenvalues --   -0.96973  -0.83748  -0.82571  -0.76164  -0.72955
 Alpha  occ. eigenvalues --   -0.70154  -0.69315  -0.65101  -0.64849  -0.62958
 Alpha  occ. eigenvalues --   -0.56511  -0.54306  -0.52086  -0.50800  -0.48620
 Alpha  occ. eigenvalues --   -0.47095  -0.44078  -0.43575  -0.42308  -0.40172
 Alpha  occ. eigenvalues --   -0.39591  -0.37034  -0.36482  -0.35841  -0.34975
 Alpha  occ. eigenvalues --   -0.34688  -0.34123  -0.33321  -0.32690  -0.31726
 Alpha  occ. eigenvalues --   -0.30619  -0.29993  -0.28935  -0.27997  -0.27847
 Alpha  occ. eigenvalues --   -0.26745  -0.26508  -0.25169  -0.23762  -0.22569
 Alpha  occ. eigenvalues --   -0.21740  -0.18655  -0.18153  -0.16797  -0.15840
 Alpha  occ. eigenvalues --   -0.14604  -0.14246  -0.11188   0.04393
 Alpha virt. eigenvalues --    0.05868   0.06489   0.06909   0.07323   0.07467
 Alpha virt. eigenvalues --    0.07753   0.08031   0.08365   0.08918   0.09384
 Alpha virt. eigenvalues --    0.09433   0.10456   0.10933   0.11659   0.11861

  Beta  occ. eigenvalues --  -19.05390 -19.04905 -14.23429 -14.22327 -14.19221
  Beta  occ. eigenvalues --  -10.15523 -10.13815 -10.13633 -10.09830 -10.07944
  Beta  occ. eigenvalues --  -10.07909 -10.07871 -10.07749 -10.07562 -10.07449
  Beta  occ. eigenvalues --  -10.07273 -10.07191 -10.06802 -10.06666  -0.97149
  Beta  occ. eigenvalues --   -0.96903  -0.83635  -0.82449  -0.76073  -0.72882
  Beta  occ. eigenvalues --   -0.69987  -0.69159  -0.65037  -0.64734  -0.62891
  Beta  occ. eigenvalues --   -0.56450  -0.54194  -0.51876  -0.50743  -0.48509
  Beta  occ. eigenvalues --   -0.47023  -0.44022  -0.43516  -0.42241  -0.40107
  Beta  occ. eigenvalues --   -0.39504  -0.36964  -0.36411  -0.35768  -0.34908
  Beta  occ. eigenvalues --   -0.34642  -0.34056  -0.33248  -0.32664  -0.31595
  Beta  occ. eigenvalues --   -0.30520  -0.29902  -0.28884  -0.27896  -0.27769
  Beta  occ. eigenvalues --   -0.26611  -0.26363  -0.25100  -0.23676  -0.22516
  Beta  occ. eigenvalues --   -0.21604  -0.18371  -0.17681  -0.16556  -0.15650
  Beta  occ. eigenvalues --   -0.14415  -0.13994  -0.11034
  Beta virt. eigenvalues --    0.06326   0.06769   0.07002   0.07379   0.07627
  Beta virt. eigenvalues --    0.07812   0.08265   0.08373   0.08620   0.09169
  Beta virt. eigenvalues --    0.09441   0.09665   0.10575   0.11144   0.11809

 Mulliken charges and spin densities:
               1          2
     1  C    0.256337  -0.559382
     2  C   -0.731729   0.046923
     3  C    1.203929  -0.042887
     4  C    0.553248  -0.250721
     5  C   -0.690226   0.176813
     6  C   -0.034435  -0.225964
     7  C   -0.301762  -0.140193
     8  C   -0.855498   0.350888
     9  O    0.038262  -0.021307
    10  C   -0.196585  -0.312344
    11  N    0.210509   0.033934
    12  C   -0.732192   0.190238
    13  C    2.125364  -1.098466
    14  C   -0.198962   0.068461
    15  C   -0.100131  -0.080232
    16  C   -1.046300   0.389273
    17  N   -0.192478  -0.152272
    18  O   -0.170286   0.066312
    19  N   -0.252129  -0.070365
    20  H    0.170926   0.003997
    21  H    0.038521   0.119725
    22  H   -0.000738   0.136322
    23  H   -0.332580   0.551867
    24  H    0.110446   0.048582
    25  H    0.063694   0.091511
    26  H    0.093687   0.029878
    27  H    0.052265   0.105666
    28  H    0.080724   0.049754
    29  H    0.146489   0.046954
    30  H   -0.125625   0.299760
    31  H   -0.056933   0.218457
    32  H    0.027853   0.246330
    33  H   -0.049947   0.273948
    34  H   -0.103718   0.408542
 Sum of Mulliken charges =  -1.00000   1.00000

 Dipole moment (field-independent basis, Debye):
    X=             -4.6867    Y=              0.0663    Z=              0.5811  Tot=              4.7230
 Quadrupole moment (field-independent basis, Debye-Ang):
   XX=           -205.1879   YY=           -143.1890   ZZ=           -131.1558
   XY=            -10.5627   XZ=              0.7509   YZ=             -1.2638

 Summary of Natural Population Analysis:

                                       Natural Population
                Natural  -----------------------------------------------
    Atom  No    Charge         Core      Valence    Rydberg      Total
 -----------------------------------------------------------------------
      C    1   -0.30242      0.99964     2.29657    0.00621     3.30242
      C    2    0.06251      0.99949     1.92275    0.01525     2.93749
      C    3   -0.01386      0.99949     2.00392    0.01045     3.01386
      C    4   -0.09074      0.99951     2.08178    0.00946     3.09074
      C    5   -0.10391      0.99957     2.09516    0.00918     3.10391
      C    6   -0.09692      0.99957     2.08754    0.00982     3.09692
      C    7   -0.09917      0.99957     2.09024    0.00936     3.09917
      C    8   -0.09653      0.99951     2.08784    0.00918     3.09653
      O    9   -0.27956      0.99986     3.27027    0.00943     4.27956
      C   10    0.27590      0.99945     1.70754    0.01710     2.72410
      N   11   -0.25255      0.99966     2.74302    0.00988     3.75255
      C   12    0.06201      0.99955     1.92543    0.01301     2.93799
      C   13   -0.08802      0.99947     2.07845    0.01010     3.08802
      C   14   -0.04202      0.99954     2.03322    0.00925     3.04202
      C   15   -0.13491      0.99952     2.12588    0.00951     3.13491
      C   16    0.19341      0.99959     1.78902    0.01798     2.80659
      N   17   -0.12418      0.99962     2.61124    0.01332     3.62418
      O   18   -0.30547      0.99990     3.29864    0.00693     4.30547
      N   19   -0.40383      0.99971     2.89445    0.00967     3.90383
      H   20    0.11353      0.00000     0.38528    0.00118     0.38647
      H   21    0.10384      0.00000     0.39532    0.00084     0.39616
      H   22    0.09906      0.00000     0.40007    0.00086     0.40094
      H   23    0.09824      0.00000     0.39977    0.00199     0.40176
      H   24    0.10344      0.00000     0.39522    0.00133     0.39656
      H   25    0.09778      0.00000     0.40144    0.00078     0.40222
      H   26    0.09617      0.00000     0.40309    0.00074     0.40383
      H   27    0.09687      0.00000     0.40234    0.00078     0.40313
      H   28    0.10099      0.00000     0.39793    0.00108     0.39901
      H   29    0.09713      0.00000     0.40141    0.00146     0.40287
      H   30    0.10198      0.00000     0.39689    0.00112     0.39802
      H   31    0.10527      0.00000     0.39366    0.00106     0.39473
      H   32    0.23642      0.00000     0.25879    0.00479     0.26358
      H   33    0.18922      0.00000     0.30859    0.00219     0.31078
      H   34    0.20029      0.00000     0.29705    0.00266     0.29971
 =======================================================================
   * Total *    0.00000     18.99221    48.77983    0.22796    68.00000

 Normal termination of Gaussian 16 at Sun Dec 13 17:20:48 2020.
