 Gaussian 16, Revision A.03,

 -----------------------------------------------------------
 # opt freq B3LYP/6-31G(d) empiricaldispersion=gd3bj scf=xqc
 -----------------------------------------------------------

 -------------------------------
 CID_113344055_JID_7815_neutraal
 -------------------------------
 Symbolic Z-matrix:
 Charge =  0 Multiplicity = 1

 SCF Done:  E(RB3LYP) =  -789.727315740     A.U. after   14 cycles
 SCF Done:  E(RB3LYP) =  -789.733263816     A.U. after   12 cycles
 SCF Done:  E(RB3LYP) =  -789.733444540     A.U. after   12 cycles
 SCF Done:  E(RB3LYP) =  -789.734137575     A.U. after   11 cycles
 SCF Done:  E(RB3LYP) =  -789.734498360     A.U. after   11 cycles
 SCF Done:  E(RB3LYP) =  -789.734680496     A.U. after   11 cycles
 SCF Done:  E(RB3LYP) =  -789.734829914     A.U. after   11 cycles
 SCF Done:  E(RB3LYP) =  -789.734897475     A.U. after   11 cycles
 SCF Done:  E(RB3LYP) =  -789.734934004     A.U. after   10 cycles
 SCF Done:  E(RB3LYP) =  -789.734947998     A.U. after    9 cycles
 SCF Done:  E(RB3LYP) =  -789.734954855     A.U. after    8 cycles
 SCF Done:  E(RB3LYP) =  -789.734956518     A.U. after    9 cycles
 SCF Done:  E(RB3LYP) =  -789.734957090     A.U. after    8 cycles
 SCF Done:  E(RB3LYP) =  -789.734957173     A.U. after    6 cycles
 SCF Done:  E(RB3LYP) =  -789.734957192     A.U. after    6 cycles
 Optimization completed.
    -- Stationary point found.
 Normal termination of Gaussian 16 at Fri Dec 11 13:20:42 2020.

 --------------------------------------------------------------------
 #N Geom=AllCheck Guess=TCheck SCRF=Check GenChk RB3LYP/6-31G(d) Freq
 --------------------------------------------------------------------

 Structure from the checkpoint file:  "JID_7815.chk"
 -------------------------------
 CID_113344055_JID_7815_neutraal
 -------------------------------
 Charge =  0 Multiplicity = 1

 SCF Done:  E(RB3LYP) =  -789.734957192     A.U. after    1 cycles

  Exact polarizability: 169.685  -0.541 151.849  -2.074  -0.199 121.472
 Approx polarizability: 206.059   3.278 222.430  -1.040   8.985 189.720

                      1                      2                      3
                      A                      A                      A
 Frequencies --     24.5877                29.2827                42.7684
 Red. masses --      4.0738                 3.7309                 3.4096
 Frc consts  --      0.0015                 0.0019                 0.0037
 IR Inten    --      0.3787                 0.4060                 0.4799

                      4                      5                      6
                      A                      A                      A
 Frequencies --     52.1354                64.7157               116.6642
 Red. masses --      3.9310                 3.9273                 3.6053
 Frc consts  --      0.0063                 0.0097                 0.0289
 IR Inten    --      2.0699                 1.2282                 0.4704

                      7                      8                      9
                      A                      A                      A
 Frequencies --    141.8914               157.4661               205.0977
 Red. masses --      3.2815                 3.5540                 2.5769
 Frc consts  --      0.0389                 0.0519                 0.0639
 IR Inten    --      2.7048                 2.2406                 0.6476

                     10                     11                     12
                      A                      A                      A
 Frequencies --    223.3504               245.5217               254.9967
 Red. masses --      2.3299                 2.3957                 2.1403
 Frc consts  --      0.0685                 0.0851                 0.0820
 IR Inten    --      1.8514                 4.8232                 2.4905

                     13                     14                     15
                      A                      A                      A
 Frequencies --    273.6884               283.9706               316.0448
 Red. masses --      1.2332                 1.2260                 2.6865
 Frc consts  --      0.0544                 0.0582                 0.1581
 IR Inten    --     19.5393                85.4840                 1.0005

                     16                     17                     18
                      A                      A                      A
 Frequencies --    343.5793               370.5803               374.8101
 Red. masses --      2.1360                 3.0863                 3.9385
 Frc consts  --      0.1486                 0.2497                 0.3260
 IR Inten    --      2.0196                 1.4607                 1.8732

                     19                     20                     21
                      A                      A                      A
 Frequencies --    393.2903               413.2727               448.2320
 Red. masses --      2.6918                 2.5695                 2.5815
 Frc consts  --      0.2453                 0.2586                 0.3056
 IR Inten    --      8.0060                 1.0261                 9.3226

                     22                     23                     24
                      A                      A                      A
 Frequencies --    454.8748               474.3387               498.2985
 Red. masses --      2.4446                 2.8591                 3.1966
 Frc consts  --      0.2980                 0.3790                 0.4676
 IR Inten    --      1.3575                11.3884                 3.8126

                     25                     26                     27
                      A                      A                      A
 Frequencies --    559.7884               599.2109               636.5384
 Red. masses --      2.3086                 1.8553                 4.3025
 Frc consts  --      0.4262                 0.3925                 1.0271
 IR Inten    --      3.5078                 1.5742                16.5047

                     28                     29                     30
                      A                      A                      A
 Frequencies --    707.8728               729.3632               743.0729
 Red. masses --      3.8306                 3.7253                 3.6050
 Frc consts  --      1.1309                 1.1676                 1.1728
 IR Inten    --     10.7494                 3.1224                 2.8948

                     31                     32                     33
                      A                      A                      A
 Frequencies --    771.8609               795.4440               857.4779
 Red. masses --      1.8135                 2.1942                 1.8001
 Frc consts  --      0.6366                 0.8180                 0.7798
 IR Inten    --      1.4312                 0.6240                 2.9911

                     34                     35                     36
                      A                      A                      A
 Frequencies --    890.0495               891.8433               897.3285
 Red. masses --      2.0756                 1.4993                 1.8421
 Frc consts  --      0.9688                 0.7026                 0.8739
 IR Inten    --      4.1122                 3.8821                 7.7865

                     37                     38                     39
                      A                      A                      A
 Frequencies --    914.9660               919.8804               940.7706
 Red. masses --      2.2513                 2.2572                 2.3040
 Frc consts  --      1.1104                 1.1253                 1.2014
 IR Inten    --      7.0092                 1.0743                10.0285

                     40                     41                     42
                      A                      A                      A
 Frequencies --    945.9440               952.0114               967.1855
 Red. masses --      2.8849                 2.3402                 1.9079
 Frc consts  --      1.5209                 1.2496                 1.0516
 IR Inten    --      4.1105                45.0477                 4.4934

                     43                     44                     45
                      A                      A                      A
 Frequencies --   1001.4618              1011.6269              1022.8600
 Red. masses --      1.8190                 2.0198                 1.8779
 Frc consts  --      1.0749                 1.2178                 1.1576
 IR Inten    --      2.8692                 3.5058                20.7912

                     46                     47                     48
                      A                      A                      A
 Frequencies --   1033.4760              1043.1627              1049.2512
 Red. masses --      1.5859                 1.8072                 3.2678
 Frc consts  --      0.9980                 1.1587                 2.1197
 IR Inten    --      1.4541                 1.6377                 2.2632

                     49                     50                     51
                      A                      A                      A
 Frequencies --   1078.5891              1102.9052              1115.0453
 Red. masses --      1.7548                 1.8545                 6.4114
 Frc consts  --      1.2028                 1.3291                 4.6967
 IR Inten    --      6.5985                 7.3891               154.7559

                     52                     53                     54
                      A                      A                      A
 Frequencies --   1131.2564              1141.4014              1171.5682
 Red. masses --      1.4715                 1.8821                 1.6373
 Frc consts  --      1.1095                 1.4446                 1.3241
 IR Inten    --     34.6171               103.7557                36.4914

                     55                     56                     57
                      A                      A                      A
 Frequencies --   1189.0839              1196.3657              1212.1523
 Red. masses --      1.9472                 1.6239                 1.6293
 Frc consts  --      1.6221                 1.3694                 1.4105
 IR Inten    --     22.7359                 1.1692                 9.9492

                     58                     59                     60
                      A                      A                      A
 Frequencies --   1220.2778              1236.9047              1240.2174
 Red. masses --      1.5145                 1.4907                 1.5079
 Frc consts  --      1.3287                 1.3437                 1.3665
 IR Inten    --     12.0530                 9.0419                17.0640

                     61                     62                     63
                      A                      A                      A
 Frequencies --   1271.8474              1280.2415              1285.4506
 Red. masses --      1.2742                 1.9176                 1.2868
 Frc consts  --      1.2144                 1.8518                 1.2528
 IR Inten    --      6.6940                 8.4061                18.4552

                     64                     65                     66
                      A                      A                      A
 Frequencies --   1297.6254              1326.2474              1328.6352
 Red. masses --      1.6089                 1.3692                 1.4444
 Frc consts  --      1.5961                 1.4190                 1.5023
 IR Inten    --     75.6096                38.8872                16.0963

                     67                     68                     69
                      A                      A                      A
 Frequencies --   1333.6969              1349.8959              1363.4458
 Red. masses --      1.2839                 1.3311                 1.3287
 Frc consts  --      1.3455                 1.4291                 1.4553
 IR Inten    --      4.6042                 4.1226                 6.2962

                     70                     71                     72
                      A                      A                      A
 Frequencies --   1365.7697              1382.5708              1386.4139
 Red. masses --      1.3419                 1.4502                 1.4376
 Frc consts  --      1.4747                 1.6333                 1.6281
 IR Inten    --      3.8637                 7.0274                24.6294

                     73                     74                     75
                      A                      A                      A
 Frequencies --   1394.3979              1409.3621              1414.5634
 Red. masses --      1.5308                 1.3795                 1.7456
 Frc consts  --      1.7537                 1.6144                 2.0580
 IR Inten    --      4.5154                12.7382                11.6178

                     76                     77                     78
                      A                      A                      A
 Frequencies --   1416.6226              1424.3453              1436.5864
 Red. masses --      1.4197                 1.4624                 1.2988
 Frc consts  --      1.6787                 1.7480                 1.5793
 IR Inten    --      1.0563                 5.9869                10.8033

                     79                     80                     81
                      A                      A                      A
 Frequencies --   1468.7630              1509.3025              1513.5117
 Red. masses --      2.7854                 1.0795                 1.0893
 Frc consts  --      3.5403                 1.4488                 1.4701
 IR Inten    --    177.1551                 1.5095                 0.1979

                     82                     83                     84
                      A                      A                      A
 Frequencies --   1515.3983              1516.8833              1520.5419
 Red. masses --      1.0904                 1.0776                 1.0866
 Frc consts  --      1.4754                 1.4608                 1.4802
 IR Inten    --      1.7273                 6.2196                 7.0397

                     85                     86                     87
                      A                      A                      A
 Frequencies --   1524.3653              1531.2201              1533.3632
 Red. masses --      1.0836                 1.0975                 1.0795
 Frc consts  --      1.4836                 1.5161                 1.4954
 IR Inten    --      3.7911                 6.7935                15.6074

                     88                     89                     90
                      A                      A                      A
 Frequencies --   1534.5855              1541.2328              1556.3992
 Red. masses --      1.0984                 1.0988                 1.0994
 Frc consts  --      1.5241                 1.5379                 1.5691
 IR Inten    --     12.7893                12.0343                 1.2524

                     91                     92                     93
                      A                      A                      A
 Frequencies --   1756.2779              2991.9552              3000.4519
 Red. masses --     10.2742                 1.0728                 1.0738
 Frc consts  --     18.6717                 5.6580                 5.6957
 IR Inten    --    303.8540                98.2540                41.6856

                     94                     95                     96
                      A                      A                      A
 Frequencies --   3020.9215              3022.4341              3032.5210
 Red. masses --      1.0722                 1.0851                 1.0606
 Frc consts  --      5.7652                 5.8402                 5.7464
 IR Inten    --     32.6881                46.2661                44.4577

                     97                     98                     99
                      A                      A                      A
 Frequencies --   3047.9292              3056.5822              3062.4878
 Red. masses --      1.0406                 1.0642                 1.0656
 Frc consts  --      5.6954                 5.8581                 5.8886
 IR Inten    --     14.9175                20.3811                13.8394

                    100                    101                    102
                      A                      A                      A
 Frequencies --   3067.9540              3071.7617              3073.8613
 Red. masses --      1.0616                 1.0629                 1.0991
 Frc consts  --      5.8871                 5.9091                 6.1185
 IR Inten    --      5.9972                16.1419                31.7920

                    103                    104                    105
                      A                      A                      A
 Frequencies --   3078.5710              3098.7261              3100.4579
 Red. masses --      1.0611                 1.1044                 1.0922
 Frc consts  --      5.9255                 6.2478                 6.1859
 IR Inten    --     45.3068                51.8417                45.0673

                    106                    107                    108
                      A                      A                      A
 Frequencies --   3108.5012              3113.6759              3114.1748
 Red. masses --      1.1012                 1.0988                 1.0987
 Frc consts  --      6.2690                 6.2766                 6.2778
 IR Inten    --     16.5405                 6.6368                40.6268

                    109                    110                    111
                      A                      A                      A
 Frequencies --   3123.8968              3130.6849              3142.0580
 Red. masses --      1.1045                 1.1032                 1.1011
 Frc consts  --      6.3503                 6.3708                 6.4045
 IR Inten    --     59.8232                39.6335                15.2675

                    112                    113                    114
                      A                      A                      A
 Frequencies --   3172.4333              3174.2089              3735.4686
 Red. masses --      1.0900                 1.0894                 1.0661
 Frc consts  --      6.4632                 6.4669                 8.7644
 IR Inten    --      3.2916                20.1140                10.6430

 - Thermochemistry -
 -------------------
 Temperature   298.150 Kelvin.  Pressure   1.00000 Atm.
 Atom     1 has atomic number  6 and mass  12.00000

 Molecular mass:   241.16779 amu.
 Principal axes and moments of inertia in atomic units:
                           1         2         3
     Eigenvalues --  2585.168306434.284358009.52247
           X            0.99995  -0.00262  -0.00958
           Y            0.00243   0.99982  -0.01891
           Z            0.00963   0.01888   0.99978
 This molecule is an asymmetric top.
 Rotational symmetry number  1.
 Warning -- assumption of classical behavior for rotation
           may cause significant error
 Rotational temperatures (Kelvin)      0.03350     0.01346     0.01081
 Rotational constants (GHZ):           0.69811     0.28049     0.22532
 Zero-point vibrational energy     939983.4 (Joules/Mol)
                                  224.66143 (Kcal/Mol)
 Warning -- explicit consideration of  26 degrees of freedom as
           vibrations may cause significant error
 Vibrational temperatures:     35.38    42.13    61.53    75.01    93.11
          (Kelvin)            167.85   204.15   226.56   295.09   321.35
                              353.25   366.88   393.78   408.57   454.72
                              494.33   533.18   539.27   565.86   594.61
                              644.91   654.46   682.47   716.94   805.41
                              862.13   915.84  1018.47  1049.39  1069.12
                             1110.54  1144.47  1233.72  1280.58  1283.16
                             1291.06  1316.43  1323.50  1353.56  1361.00
                             1369.73  1391.56  1440.88  1455.51  1471.67
                             1486.94  1500.88  1509.64  1551.85  1586.83
                             1604.30  1627.63  1642.22  1685.63  1710.83
                             1721.30  1744.02  1755.71  1779.63  1784.40
                             1829.90  1841.98  1849.48  1866.99  1908.17
                             1911.61  1918.89  1942.20  1961.69  1965.04
                             1989.21  1994.74  2006.23  2027.76  2035.24
                             2038.20  2049.32  2066.93  2113.22  2171.55
                             2177.61  2180.32  2182.46  2187.72  2193.22
                             2203.08  2206.17  2207.93  2217.49  2239.31
                             2526.89  4304.76  4316.98  4346.43  4348.61
                             4363.12  4385.29  4397.74  4406.24  4414.10
                             4419.58  4422.60  4429.38  4458.38  4460.87
                             4472.44  4479.89  4480.60  4494.59  4504.36
                             4520.72  4564.42  4566.98  5374.51

 Zero-point correction=                           0.358021 (Hartree/Particle)
 Thermal correction to Energy=                    0.375208
 Thermal correction to Enthalpy=                  0.376152
 Thermal correction to Gibbs Free Energy=         0.311520
 Sum of electronic and zero-point Energies=           -789.376936
 Sum of electronic and thermal Energies=              -789.359749
 Sum of electronic and thermal Enthalpies=            -789.358805
 Sum of electronic and thermal Free Energies=         -789.423438

                     E (Thermal)             CV                S
                      KCal/Mol        Cal/Mol-Kelvin    Cal/Mol-Kelvin
 Total                  235.447             66.171            136.031
 Electronic               0.000              0.000              0.000
 Translational            0.889              2.981             42.342
 Rotational               0.889              2.981             33.254
 Vibrational            233.669             60.209             60.434
 Vibration     1          0.593              1.985              6.224
 Vibration     2          0.593              1.984              5.877
 Vibration     3          0.595              1.980              5.127
 Vibration     4          0.596              1.977              4.735
 Vibration     5          0.597              1.971              4.308
 Vibration     6          0.608              1.936              3.155
 Vibration     7          0.615              1.911              2.778
 Vibration     8          0.621              1.894              2.580
 Vibration     9          0.640              1.833              2.087
 Vibration    10          0.649              1.806              1.932
 Vibration    11          0.660              1.770              1.763
 Vibration    12          0.665              1.754              1.696
 Vibration    13          0.676              1.722              1.573
 Vibration    14          0.682              1.703              1.510
 Vibration    15          0.703              1.643              1.330
 Vibration    16          0.722              1.588              1.195
 Vibration    17          0.743              1.533              1.077
 Vibration    18          0.746              1.524              1.060
 Vibration    19          0.760              1.485              0.988
 Vibration    20          0.777              1.441              0.915
 Vibration    21          0.807              1.365              0.801
 Vibration    22          0.813              1.350              0.781
 Vibration    23          0.831              1.307              0.725
 Vibration    24          0.854              1.254              0.662
 Vibration    25          0.915              1.118              0.524
 Vibration    26          0.957              1.033              0.451

 Optimization completed.
    -- Stationary point found.
 Normal termination of Gaussian 16 at Fri Dec 11 13:36:47 2020.

 ----------------------------------------------------------------------
 # B3LYP/6-311++G(d,p) empiricaldispersion=gd3bj scf=xqc pop=npa geom=c
 heck
 ----------------------------------------------------------------------

 ---------------------------------------
 CID_113344055_JID_7815_Energie_neutraal
 ---------------------------------------
 Structure from the checkpoint file:  "JID_7815.chk"
 Charge =  0 Multiplicity = 1

 SCF Done:  E(RB3LYP) =  -789.968262430     A.U. after   14 cycles
 Normal termination of Gaussian 16 at Fri Dec 11 13:44:49 2020.

 ----------------------------------------------------------------------
 # B3LYP/6-311++G(d,p) empiricaldispersion=gd3bj scf=xqc pop=npa geom=c
 heck
 ----------------------------------------------------------------------

 -------------------------------------
 CID_113344055_JID_7815_Energie_kation
 -------------------------------------
 Structure from the checkpoint file:  "JID_7815.chk"
 Charge =  1 Multiplicity = 2

 SCF Done:  E(UB3LYP) =  -789.663554818     A.U. after   25 cycles
 Normal termination of Gaussian 16 at Fri Dec 11 14:05:18 2020.
 Gaussian 16:  ES64L-G16RevA.03 25-Dec-2016

 ----------------------------------------------------------------------
 # B3LYP/6-311++G(d,p) empiricaldispersion=gd3bj scf=xqc pop=npa geom=c
 heck
 ----------------------------------------------------------------------

 ------------------------------------
 CID_113344055_JID_7815_Energie_anion
 ------------------------------------
 Structure from the checkpoint file:  "JID_7815.chk"
 Charge = -1 Multiplicity = 2

                         Standard orientation:
 ---------------------------------------------------------------------
 Center     Atomic      Atomic             Coordinates (Angstroms)
 Number     Number       Type             X           Y           Z
 ---------------------------------------------------------------------
      1          6           0       -1.030165   -1.686168    1.117916
      2          6           0       -1.944678   -1.495367   -0.094697
      3          6           0       -3.406213   -1.252090    0.317257
      4          6           0       -3.603890    0.128397    0.955609
      5          6           0       -3.069209    1.226003    0.034635
      6          7           0       -1.682117    0.959241   -0.348645
      7          6           0       -1.466900   -0.331710   -0.985376
      8          6           0       -0.762981    1.982564   -0.257261
      9          8           0       -1.053893    3.066043    0.241296
     10          6           0        0.656398    1.726734   -0.751110
     11          6           0        1.515537    1.037767    0.321269
     12          6           0        2.948945    0.771282   -0.137509
     13          6           0        3.078104   -0.395350   -1.142863
     14          6           0        3.475540   -1.576135   -0.245704
     15          6           0        4.345388   -0.871246    0.793664
     16          8           0        3.720785    0.390725    1.016134
     17          8           0       -1.854080   -2.637328   -0.955606
     18          1           0       -1.410915   -2.486530    1.765002
     19          1           0       -0.954210   -0.776186    1.719447
     20          1           0       -0.026089   -1.966984    0.783805
     21          1           0       -4.018965   -1.328696   -0.590510
     22          1           0       -3.736221   -2.048522    0.998299
     23          1           0       -3.087890    0.182506    1.921489
     24          1           0       -4.668080    0.305423    1.150635
     25          1           0       -3.087899    2.205656    0.509825
     26          1           0       -3.685301    1.272702   -0.877699
     27          1           0       -0.413761   -0.478553   -1.217411
     28          1           0       -2.027817   -0.386751   -1.930223
     29          1           0        0.667227    1.157206   -1.686367
     30          1           0        1.071081    2.714766   -0.968101
     31          1           0        1.548187    1.673415    1.212586
     32          1           0        1.065685    0.087659    0.629326
     33          1           0        3.375711    1.696351   -0.550203
     34          1           0        2.155276   -0.573392   -1.703263
     35          1           0        3.871154   -0.189724   -1.870141
     36          1           0        2.591578   -2.012560    0.234147
     37          1           0        4.000395   -2.371743   -0.782674
     38          1           0        4.404042   -1.393352    1.753922
     39          1           0        5.370780   -0.732820    0.413167
     40          1           0       -2.146889   -3.408173   -0.444135
 ---------------------------------------------------------------------

 SCF Done:  E(UB3LYP) =  -789.959321616     A.U. after   33 cycles
 SCF Done:  E(UB3LYP) =  -789.959321616     a.u. after    1 cycles

 The electronic state is 2-A.
 Alpha  occ. eigenvalues --  -19.03273 -19.02862 -18.99756 -14.25548 -10.18426
 Alpha  occ. eigenvalues --  -10.14159 -10.13586 -10.12680 -10.11836 -10.11255
 Alpha  occ. eigenvalues --  -10.09387 -10.08625 -10.08506 -10.08421 -10.08334
 Alpha  occ. eigenvalues --  -10.07606 -10.06813  -0.95082  -0.94988  -0.93424
 Alpha  occ. eigenvalues --   -0.85312  -0.72399  -0.71145  -0.69477  -0.68189
 Alpha  occ. eigenvalues --   -0.64747  -0.61284  -0.59492  -0.55993  -0.53242
 Alpha  occ. eigenvalues --   -0.51270  -0.49794  -0.48673  -0.45150  -0.42329
 Alpha  occ. eigenvalues --   -0.41581  -0.40456  -0.39859  -0.38717  -0.37984
 Alpha  occ. eigenvalues --   -0.37071  -0.36213  -0.35785  -0.34859  -0.33478
 Alpha  occ. eigenvalues --   -0.33137  -0.32147  -0.31792  -0.31573  -0.30160
 Alpha  occ. eigenvalues --   -0.28838  -0.28454  -0.27902  -0.27090  -0.26849
 Alpha  occ. eigenvalues --   -0.26631  -0.25467  -0.24999  -0.24760  -0.24315
 Alpha  occ. eigenvalues --   -0.23728  -0.23218  -0.18524  -0.17427  -0.16384
 Alpha  occ. eigenvalues --   -0.15538   0.03883
 Alpha virt. eigenvalues --    0.05455   0.06618   0.07267   0.07634   0.08176
 Alpha virt. eigenvalues --    0.08449   0.09443   0.09613   0.10074   0.10125
 Alpha virt. eigenvalues --    0.10374   0.10601   0.11231   0.11654   0.12343

  Beta  occ. eigenvalues --  -19.03272 -19.02826 -18.99754 -14.25548 -10.18424
  Beta  occ. eigenvalues --  -10.14161 -10.13584 -10.12664 -10.11819 -10.11248
  Beta  occ. eigenvalues --  -10.09382 -10.08606 -10.08501 -10.08407 -10.08309
  Beta  occ. eigenvalues --  -10.07573 -10.06777  -0.95077  -0.94981  -0.93360
  Beta  occ. eigenvalues --   -0.85305  -0.72382  -0.71114  -0.69446  -0.68158
  Beta  occ. eigenvalues --   -0.64724  -0.61234  -0.59456  -0.55961  -0.53201
  Beta  occ. eigenvalues --   -0.51209  -0.49740  -0.48650  -0.45105  -0.42310
  Beta  occ. eigenvalues --   -0.41540  -0.40410  -0.39833  -0.38686  -0.37960
  Beta  occ. eigenvalues --   -0.37047  -0.36180  -0.35755  -0.34840  -0.33451
  Beta  occ. eigenvalues --   -0.33107  -0.32120  -0.31762  -0.31551  -0.30140
  Beta  occ. eigenvalues --   -0.28812  -0.28421  -0.27881  -0.27058  -0.26821
  Beta  occ. eigenvalues --   -0.26601  -0.25438  -0.24971  -0.24726  -0.24285
  Beta  occ. eigenvalues --   -0.23690  -0.23204  -0.18487  -0.17417  -0.16374
  Beta  occ. eigenvalues --   -0.15529
  Beta virt. eigenvalues --    0.06022   0.06448   0.07217   0.07846   0.07949
  Beta virt. eigenvalues --    0.08530   0.08823   0.09744   0.09850   0.10255
  Beta virt. eigenvalues --    0.10429   0.10617   0.10861   0.11473   0.11831

 Mulliken charges and spin densities:
               1          2
     1  C    0.887485  -1.484891
     2  C   -1.324350   1.432086
     3  C    0.210992  -0.431751
     4  C    0.170057  -0.488461
     5  C   -0.432572   0.207809
     6  N    0.054482   0.129316
     7  C    0.833777  -1.470835
     8  C   -0.413667   0.124627
     9  O   -0.320238   0.003421
    10  C   -0.614287   0.189255
    11  C    0.519831  -0.452942
    12  C   -0.518572   0.172693
    13  C   -0.206087   0.026960
    14  C    0.431149  -0.747350
    15  C    0.189464  -0.457623
    16  O   -0.103270   0.011002
    17  O   -0.127276  -0.023244
    18  H   -0.755609   0.953159
    19  H   -0.069512   0.202300
    20  H    0.306220  -0.119234
    21  H    0.003874   0.178008
    22  H   -0.568250   0.741308
    23  H    0.191662  -0.041148
    24  H   -0.199848   0.387930
    25  H    0.137564   0.059536
    26  H    0.048794   0.103574
    27  H    0.500830  -0.359672
    28  H    0.084786   0.140187
    29  H    0.088596   0.093155
    30  H    0.134046   0.070603
    31  H    0.207923   0.021869
    32  H    0.726842  -0.563489
    33  H    0.158449   0.015652
    34  H   -0.159150   0.275977
    35  H   -0.350874   0.527527
    36  H   -0.024046   0.140131
    37  H   -0.353918   0.519668
    38  H   -0.064426   0.222885
    39  H   -0.051715   0.194112
    40  H   -0.229157   0.495890
 Sum of Mulliken charges =  -1.00000   1.00000

 Dipole moment (field-independent basis, Debye):
    X=              1.0167    Y=              5.4411    Z=             -1.4814  Tot=              5.7301
 Quadrupole moment (field-independent basis, Debye-Ang):
   XX=           -189.0334   YY=           -173.9878   ZZ=           -140.7831
   XY=             -7.1870   XZ=              7.7902   YZ=             -0.9682

 Summary of Natural Population Analysis:

                                       Natural Population
                Natural  -----------------------------------------------
    Atom  No    Charge         Core      Valence    Rydberg      Total
 -----------------------------------------------------------------------
      C    1   -0.30070      0.99961     2.29342    0.00767     3.30070
      C    2    0.12387      0.99952     1.86042    0.01619     2.87613
      C    3   -0.20230      0.99957     2.19143    0.01129     3.20230
      C    4   -0.19469      0.99962     2.18670    0.00837     3.19469
      C    5   -0.08681      0.99961     2.07723    0.00997     3.08681
      N    6   -0.25790      0.99963     2.74867    0.00960     3.75790
      C    7   -0.08750      0.99954     2.07628    0.01167     3.08750
      C    8    0.35085      0.99964     1.62690    0.02260     2.64915
      O    9   -0.32967      0.99988     3.32464    0.00516     4.32967
      C   10   -0.23066      0.99958     2.22391    0.00716     3.23066
      C   11   -0.19911      0.99959     2.19125    0.00827     3.19911
      C   12    0.06934      0.99955     1.91666    0.01445     2.93066
      C   13   -0.20469      0.99962     2.19669    0.00839     3.20469
      C   14   -0.20589      0.99964     2.19841    0.00784     3.20589
      C   15   -0.00830      0.99960     1.99610    0.01260     3.00830
      O   16   -0.30575      0.99989     3.29762    0.00824     4.30575
      O   17   -0.37629      0.99989     3.36998    0.00642     4.37629
      H   18    0.10607      0.00000     0.39218    0.00175     0.39393
      H   19    0.10291      0.00000     0.39575    0.00134     0.39709
      H   20    0.10325      0.00000     0.39505    0.00170     0.39675
      H   21    0.10136      0.00000     0.39705    0.00159     0.39864
      H   22    0.10652      0.00000     0.39073    0.00275     0.39348
      H   23    0.09826      0.00000     0.40043    0.00131     0.40174
      H   24    0.10214      0.00000     0.39692    0.00094     0.39786
      H   25    0.11781      0.00000     0.38108    0.00110     0.38219
      H   26    0.08868      0.00000     0.41031    0.00101     0.41132
      H   27    0.10632      0.00000     0.39210    0.00157     0.39368
      H   28    0.09853      0.00000     0.40024    0.00123     0.40147
      H   29    0.10175      0.00000     0.39700    0.00125     0.39825
      H   30    0.11044      0.00000     0.38840    0.00116     0.38956
      H   31    0.10702      0.00000     0.39186    0.00112     0.39298
      H   32    0.10101      0.00000     0.39687    0.00213     0.39899
      H   33    0.08304      0.00000     0.41565    0.00131     0.41696
      H   34    0.10390      0.00000     0.39492    0.00118     0.39610
      H   35    0.10082      0.00000     0.39784    0.00135     0.39918
      H   36    0.09893      0.00000     0.39925    0.00182     0.40107
      H   37    0.10613      0.00000     0.39226    0.00160     0.39387
      H   38    0.08997      0.00000     0.40891    0.00112     0.41003
      H   39    0.07654      0.00000     0.42211    0.00134     0.42346
      H   40    0.23476      0.00000     0.25901    0.00623     0.26524
 =======================================================================
   * Total *    0.00000     16.99397    48.79223    0.21381    66.00000

 Normal termination of Gaussian 16 at Fri Dec 11 14:31:22 2020.
