 Gaussian 16, Revision A.03,

 -----------------------------------------------------------
 # opt freq B3LYP/6-31G(d) empiricaldispersion=gd3bj scf=xqc
 -----------------------------------------------------------

 ------------------------------
 CID_79091126_JID_9786_neutraal
 ------------------------------
 Symbolic Z-matrix:
 Charge =  0 Multiplicity = 1

 SCF Done:  E(RB3LYP) =  -881.950086294     A.U. after   15 cycles
 SCF Done:  E(RB3LYP) =  -881.954839861     A.U. after   12 cycles
 SCF Done:  E(RB3LYP) =  -881.955415185     A.U. after   12 cycles
 SCF Done:  E(RB3LYP) =  -881.955290889     A.U. after   12 cycles
 SCF Done:  E(RB3LYP) =  -881.955523304     A.U. after   11 cycles
 SCF Done:  E(RB3LYP) =  -881.955573263     A.U. after   10 cycles
 SCF Done:  E(RB3LYP) =  -881.955582126     A.U. after   10 cycles
 SCF Done:  E(RB3LYP) =  -881.955594346     A.U. after   11 cycles
 SCF Done:  E(RB3LYP) =  -881.955625149     A.U. after   12 cycles
 SCF Done:  E(RB3LYP) =  -881.955637669     A.U. after   13 cycles
 SCF Done:  E(RB3LYP) =  -881.957386511     A.U. after   10 cycles
 SCF Done:  E(RB3LYP) =  -881.957394179     A.U. after    9 cycles
 SCF Done:  E(RB3LYP) =  -881.957398234     A.U. after    8 cycles
 SCF Done:  E(RB3LYP) =  -881.957399729     A.U. after    8 cycles
 SCF Done:  E(RB3LYP) =  -881.957400200     A.U. after    8 cycles
 SCF Done:  E(RB3LYP) =  -881.957400267     A.U. after    6 cycles
 Optimization completed.
    -- Stationary point found.
 Normal termination of Gaussian 16 at Sat Dec 12 10:21:18 2020.

 --------------------------------------------------------------------
 #N Geom=AllCheck Guess=TCheck SCRF=Check GenChk RB3LYP/6-31G(d) Freq
 --------------------------------------------------------------------

 Structure from the checkpoint file:  "JID_9786.chk"
 ------------------------------
 CID_79091126_JID_9786_neutraal
 ------------------------------
 Charge =  0 Multiplicity = 1

 SCF Done:  E(RB3LYP) =  -881.957400267     A.U. after    1 cycles

  Exact polarizability: 234.299   5.340 156.528   7.887  -3.766 121.038
 Approx polarizability: 279.606  -1.262 253.601  16.205 -13.974 188.583

                      1                      2                      3
                      A                      A                      A
 Frequencies --     21.5122                45.9391                49.7328
 Red. masses --      4.6815                 4.2571                 4.1819
 Frc consts  --      0.0013                 0.0053                 0.0061
 IR Inten    --      0.4015                 2.2261                 1.0382

                      4                      5                      6
                      A                      A                      A
 Frequencies --     71.0723                96.6175               102.9740
 Red. masses --      3.7293                 3.7641                 2.7523
 Frc consts  --      0.0111                 0.0207                 0.0172
 IR Inten    --      0.6186                 0.8833                 2.2989

                      7                      8                      9
                      A                      A                      A
 Frequencies --    127.5948               135.4540               156.2736
 Red. masses --      3.5468                 1.3347                 3.1360
 Frc consts  --      0.0340                 0.0144                 0.0451
 IR Inten    --      0.2368                 0.1308                 0.0744

                     10                     11                     12
                      A                      A                      A
 Frequencies --    172.6952               194.7368               208.8478
 Red. masses --      2.7802                 2.5775                 3.9165
 Frc consts  --      0.0489                 0.0576                 0.1006
 IR Inten    --      0.2843                 1.8860                 2.8340

                     13                     14                     15
                      A                      A                      A
 Frequencies --    217.2417               229.8055               242.7263
 Red. masses --      1.1338                 1.3581                 1.1443
 Frc consts  --      0.0315                 0.0423                 0.0397
 IR Inten    --      0.3527                 1.2209                 0.4286

                     16                     17                     18
                      A                      A                      A
 Frequencies --    255.9445               261.7079               287.2521
 Red. masses --      2.4024                 3.5980                 2.7839
 Frc consts  --      0.0927                 0.1452                 0.1353
 IR Inten    --      0.9222                 1.6787                 0.9678

                     19                     20                     21
                      A                      A                      A
 Frequencies --    326.1657               330.0004               364.0968
 Red. masses --      3.0065                 3.3475                 3.0384
 Frc consts  --      0.1884                 0.2148                 0.2373
 IR Inten    --      9.4116                 9.7151                 1.0279

                     22                     23                     24
                      A                      A                      A
 Frequencies --    401.0646               426.3373               452.8139
 Red. masses --      2.3903                 4.0676                 2.2346
 Frc consts  --      0.2265                 0.4356                 0.2699
 IR Inten    --      3.5539                 0.2365                 0.2913

                     25                     26                     27
                      A                      A                      A
 Frequencies --    474.0717               475.3091               523.0586
 Red. masses --      4.8855                 2.4072                 4.1042
 Frc consts  --      0.6469                 0.3204                 0.6616
 IR Inten    --      4.5749                 5.9017                 2.2162

                     28                     29                     30
                      A                      A                      A
 Frequencies --    543.1970               571.5346               617.6879
 Red. masses --      3.5756                 3.2550                 5.1048
 Frc consts  --      0.6216                 0.6264                 1.1475
 IR Inten    --     13.3653                 1.0033                 3.1465

                     31                     32                     33
                      A                      A                      A
 Frequencies --    644.4016               701.9944               743.0491
 Red. masses --      4.7969                 2.3270                 3.5080
 Frc consts  --      1.1736                 0.6756                 1.1411
 IR Inten    --      1.2482                 2.1627                 7.5170

                     34                     35                     36
                      A                      A                      A
 Frequencies --    754.4750               757.2943               802.1276
 Red. masses --      5.2791                 3.3813                 2.6700
 Frc consts  --      1.7705                 1.1425                 1.0122
 IR Inten    --     13.0123                 9.8300                 5.3426

                     37                     38                     39
                      A                      A                      A
 Frequencies --    807.7429               827.5004               883.6654
 Red. masses --      4.7335                 1.2627                 2.3471
 Frc consts  --      1.8196                 0.5094                 1.0799
 IR Inten    --      7.5916                33.2342                 1.1793

                     40                     41                     42
                      A                      A                      A
 Frequencies --    892.0201               919.1054               932.2989
 Red. masses --      1.3500                 1.7463                 2.5498
 Frc consts  --      0.6329                 0.8691                 1.3058
 IR Inten    --      1.0577                 8.2283                 4.4157

                     43                     44                     45
                      A                      A                      A
 Frequencies --    956.1595               965.5776               970.0386
 Red. masses --      5.3838                 2.0618                 2.4145
 Frc consts  --      2.9000                 1.1326                 1.3386
 IR Inten    --      5.9001                 7.7221                 7.4605

                     46                     47                     48
                      A                      A                      A
 Frequencies --   1003.5068              1029.3450              1049.7212
 Red. masses --      2.3884                 5.0796                 1.5351
 Frc consts  --      1.4171                 3.1710                 0.9966
 IR Inten    --      2.3881                45.4569                17.5251

                     49                     50                     51
                      A                      A                      A
 Frequencies --   1051.4245              1062.1061              1078.5867
 Red. masses --      1.8872                 2.0326                 1.9068
 Frc consts  --      1.2292                 1.3509                 1.3070
 IR Inten    --     11.6032                50.1642                 6.4163

                     52                     53                     54
                      A                      A                      A
 Frequencies --   1092.3186              1099.1449              1123.6182
 Red. masses --      1.8092                 2.2195                 1.8653
 Frc consts  --      1.2719                 1.5799                 1.3875
 IR Inten    --      4.0141                 5.4229                13.8568

                     55                     56                     57
                      A                      A                      A
 Frequencies --   1138.2037              1166.9979              1172.2703
 Red. masses --      1.7239                 1.5420                 2.1014
 Frc consts  --      1.3159                 1.2373                 1.7015
 IR Inten    --     28.1228                 6.8894                41.5011

                     58                     59                     60
                      A                      A                      A
 Frequencies --   1178.5709              1186.1567              1200.5881
 Red. masses --      3.0300                 1.2707                 2.8060
 Frc consts  --      2.4797                 1.0534                 2.3830
 IR Inten    --    183.3578                 0.8393                27.8235

                     61                     62                     63
                      A                      A                      A
 Frequencies --   1206.3669              1223.7774              1238.0574
 Red. masses --      2.2730                 1.6712                 1.8061
 Frc consts  --      1.9490                 1.4746                 1.6311
 IR Inten    --      8.3610               125.0477               173.5441

                     64                     65                     66
                      A                      A                      A
 Frequencies --   1255.9131              1271.7746              1280.9365
 Red. masses --      1.7606                 3.3306                 1.8329
 Frc consts  --      1.6362                 3.1739                 1.7720
 IR Inten    --     12.1519                28.1779                29.7689

                     67                     68                     69
                      A                      A                      A
 Frequencies --   1330.7749              1338.8873              1339.7827
 Red. masses --      1.7837                 1.9530                 1.4194
 Frc consts  --      1.8611                 2.0627                 1.5012
 IR Inten    --    179.3038               201.1662                 2.5463

                     70                     71                     72
                      A                      A                      A
 Frequencies --   1356.6774              1365.4195              1378.9155
 Red. masses --      1.9933                 1.4661                 1.3660
 Frc consts  --      2.1616                 1.6104                 1.5303
 IR Inten    --     43.5897                 7.6521                 8.3815

                     73                     74                     75
                      A                      A                      A
 Frequencies --   1400.4181              1406.5445              1412.6866
 Red. masses --      1.4433                 1.5928                 1.7818
 Frc consts  --      1.6677                 1.8566                 2.0950
 IR Inten    --     30.1382                20.8856                 8.6791

                     76                     77                     78
                      A                      A                      A
 Frequencies --   1422.3920              1432.7731              1433.1894
 Red. masses --      1.4320                 1.4607                 1.3965
 Frc consts  --      1.7070                 1.7667                 1.6901
 IR Inten    --     15.1351                 3.9442                14.1150

                     79                     80                     81
                      A                      A                      A
 Frequencies --   1443.1145              1485.1520              1492.3202
 Red. masses --      1.3630                 1.1561                 1.2283
 Frc consts  --      1.6724                 1.5024                 1.6117
 IR Inten    --     17.3068                 2.6981                10.0260

                     82                     83                     84
                      A                      A                      A
 Frequencies --   1508.6319              1512.0784              1514.2458
 Red. masses --      1.0901                 1.0482                 1.0637
 Frc consts  --      1.4618                 1.4120                 1.4371
 IR Inten    --      4.2640                 5.4879                 7.7086

                     85                     86                     87
                      A                      A                      A
 Frequencies --   1517.3037              1522.2568              1523.0937
 Red. masses --      1.0689                 1.0539                 1.0602
 Frc consts  --      1.4499                 1.4389                 1.4491
 IR Inten    --      4.3565                 5.5074                 7.8953

                     88                     89                     90
                      A                      A                      A
 Frequencies --   1526.4082              1530.0332              1540.7359
 Red. masses --      1.0600                 1.0914                 1.0839
 Frc consts  --      1.4552                 1.5054                 1.5160
 IR Inten    --     18.6440                 1.3384                 5.6342

                     91                     92                     93
                      A                      A                      A
 Frequencies --   1543.1602              1547.2696              1565.2084
 Red. masses --      1.0661                 1.0519                 6.2969
 Frc consts  --      1.4957                 1.4838                 9.0891
 IR Inten    --     10.9322                 2.0394               146.7194

                     94                     95                     96
                      A                      A                      A
 Frequencies --   1631.9785              1812.5589              2937.2346
 Red. masses --      6.5039                11.8173                 1.0709
 Frc consts  --     10.2060                22.8746                 5.4437
 IR Inten    --      9.5530               305.2543                36.5563

                     97                     98                     99
                      A                      A                      A
 Frequencies --   2955.6476              2974.1436              3009.3064
 Red. masses --      1.0693                 1.0615                 1.0827
 Frc consts  --      5.5037                 5.5323                 5.7768
 IR Inten    --     11.0120               133.4150                17.9419

                    100                    101                    102
                      A                      A                      A
 Frequencies --   3052.4319              3055.8102              3061.7270
 Red. masses --      1.0829                 1.0572                 1.0461
 Frc consts  --      5.9450                 5.8162                 5.7780
 IR Inten    --     35.3812                18.9221                17.3543

                    103                    104                    105
                      A                      A                      A
 Frequencies --   3070.1861              3071.4887              3073.1134
 Red. masses --      1.0364                 1.0750                 1.0298
 Frc consts  --      5.7556                 5.9752                 5.7298
 IR Inten    --     14.2988                73.2757                42.5128

                    106                    107                    108
                      A                      A                      A
 Frequencies --   3075.1877              3098.8618              3101.5049
 Red. masses --      1.0816                 1.0884                 1.1062
 Frc consts  --      6.0267                 6.1580                 6.2697
 IR Inten    --     47.2743                18.3560                40.7613

                    109                    110                    111
                      A                      A                      A
 Frequencies --   3115.3960              3127.7052              3140.1620
 Red. masses --      1.1035                 1.0995                 1.1029
 Frc consts  --      6.3103                 6.3370                 6.4077
 IR Inten    --     34.0792                29.5416                25.4031

                    112                    113                    114
                      A                      A                      A
 Frequencies --   3145.8918              3146.1252              3150.7771
 Red. masses --      1.1074                 1.1026                 1.1024
 Frc consts  --      6.4569                 6.4298                 6.4480
 IR Inten    --     20.9098                37.5692                16.6013

                    115                    116                    117
                      A                      A                      A
 Frequencies --   3179.9927              3284.0353              3301.2210
 Red. masses --      1.1068                 1.0944                 1.0994
 Frc consts  --      6.5942                 6.9542                 7.0589
 IR Inten    --     19.0895                 1.6282                 0.2840

 - Thermochemistry -
 -------------------
 Temperature   298.150 Kelvin.  Pressure   1.00000 Atm.
 Atom     1 has atomic number  6 and mass  12.00000

 Molecular mass:   266.16304 amu.
 Principal axes and moments of inertia in atomic units:
                           1         2         3
     Eigenvalues --  1703.15777********************
           X            0.99999   0.00507  -0.00128
           Y           -0.00507   0.99998  -0.00437
           Z            0.00126   0.00437   0.99999
 This molecule is an asymmetric top.
 Rotational symmetry number  1.
 Warning -- assumption of classical behavior for rotation
           may cause significant error
 Rotational temperatures (Kelvin)      0.05085     0.00737     0.00688
 Rotational constants (GHZ):           1.05964     0.15357     0.14329
 Zero-point vibrational energy     933160.6 (Joules/Mol)
                                  223.03073 (Kcal/Mol)
 Warning -- explicit consideration of  30 degrees of freedom as
           vibrations may cause significant error
 Vibrational temperatures:     30.95    66.10    71.55   102.26   139.01
          (Kelvin)            148.16   183.58   194.89   224.84   248.47
                              280.18   300.49   312.56   330.64   349.23
                              368.25   376.54   413.29   469.28   474.80
                              523.85   577.04   613.40   651.50   682.08
                              683.86   752.56   781.54   822.31   888.72
                              927.15  1010.01  1069.08  1085.52  1089.58
                             1154.08  1162.16  1190.59  1271.40  1283.42
                             1322.39  1341.37  1375.70  1389.25  1395.67
                             1443.82  1481.00  1510.31  1512.77  1528.13
                             1551.85  1571.60  1581.42  1616.64  1637.62
                             1679.05  1686.64  1695.70  1706.61  1727.38
                             1735.69  1760.74  1781.29  1806.98  1829.80
                             1842.98  1914.69  1926.36  1927.65  1951.96
                             1964.53  1983.95  2014.89  2023.70  2032.54
                             2046.50  2061.44  2062.04  2076.32  2136.80
                             2147.12  2170.58  2175.54  2178.66  2183.06
                             2190.19  2191.39  2196.16  2201.38  2216.78
                             2220.26  2226.18  2251.99  2348.05  2607.87
                             4226.03  4252.52  4279.13  4329.72  4391.77
                             4396.63  4405.14  4417.31  4419.19  4421.52
                             4424.51  4458.57  4462.37  4482.36  4500.07
                             4517.99  4526.24  4526.57  4533.27  4575.30
                             4724.99  4749.72

 Zero-point correction=                           0.355422 (Hartree/Particle)
 Thermal correction to Energy=                    0.374633
 Thermal correction to Enthalpy=                  0.375577
 Thermal correction to Gibbs Free Energy=         0.307319
 Sum of electronic and zero-point Energies=           -881.601978
 Sum of electronic and thermal Energies=              -881.582767
 Sum of electronic and thermal Enthalpies=            -881.581823
 Sum of electronic and thermal Free Energies=         -881.650081

                     E (Thermal)             CV                S
                      KCal/Mol        Cal/Mol-Kelvin    Cal/Mol-Kelvin
 Total                  235.086             72.482            143.661
 Electronic               0.000              0.000              0.000
 Translational            0.889              2.981             42.636
 Rotational               0.889              2.981             33.888
 Vibrational            233.308             66.520             67.137
 Vibration     1          0.593              1.985              6.489
 Vibration     2          0.595              1.979              4.985
 Vibration     3          0.595              1.978              4.828
 Vibration     4          0.598              1.968              4.123
 Vibration     5          0.603              1.952              3.521
 Vibration     6          0.605              1.947              3.397
 Vibration     7          0.611              1.926              2.982
 Vibration     8          0.613              1.918              2.867
 Vibration     9          0.620              1.896              2.594
 Vibration    10          0.626              1.876              2.406
 Vibration    11          0.635              1.847              2.182
 Vibration    12          0.642              1.827              2.054
 Vibration    13          0.646              1.815              1.982
 Vibration    14          0.652              1.795              1.880
 Vibration    15          0.659              1.775              1.783
 Vibration    16          0.666              1.753              1.689
 Vibration    17          0.669              1.743              1.650
 Vibration    18          0.684              1.697              1.490
 Vibration    19          0.710              1.623              1.279
 Vibration    20          0.713              1.616              1.260
 Vibration    21          0.738              1.546              1.105
 Vibration    22          0.767              1.468              0.959
 Vibration    23          0.788              1.413              0.871
 Vibration    24          0.811              1.355              0.787
 Vibration    25          0.831              1.308              0.726
 Vibration    26          0.832              1.305              0.723
 Vibration    27          0.878              1.199              0.603
 Vibration    28          0.898              1.155              0.558
 Vibration    29          0.928              1.093              0.501
 Vibration    30          0.977              0.995              0.420

                           ! Non-Optimized Parameters !
 Normal termination of Gaussian 16 at Sat Dec 12 10:40:09 2020.

 ----------------------------------------------------------------------
 # B3LYP/6-311++G(d,p) empiricaldispersion=gd3bj scf=xqc pop=npa geom=c
 heck
 ----------------------------------------------------------------------

 --------------------------------------
 CID_79091126_JID_9786_Energie_neutraal
 --------------------------------------
 Structure from the checkpoint file:  "JID_9786.chk"
 Charge =  0 Multiplicity = 1

 SCF Done:  E(RB3LYP) =  -882.201939472     A.U. after   15 cycles
 Normal termination of Gaussian 16 at Sat Dec 12 10:47:45 2020.

 ----------------------------------------------------------------------
 # B3LYP/6-311++G(d,p) empiricaldispersion=gd3bj scf=xqc pop=npa geom=c
 heck
 ----------------------------------------------------------------------

 ------------------------------------
 CID_79091126_JID_9786_Energie_kation
 ------------------------------------
 Structure from the checkpoint file:  "JID_9786.chk"
 Charge =  1 Multiplicity = 2

 SCF Done:  E(UB3LYP) =  -881.931425770     A.U. after   25 cycles
 Normal termination of Gaussian 16 at Sat Dec 12 11:05:13 2020.
 Gaussian 16:  ES64L-G16RevA.03 25-Dec-2016

 ----------------------------------------------------------------------
 # B3LYP/6-311++G(d,p) empiricaldispersion=gd3bj scf=xqc pop=npa geom=c
 heck
 ----------------------------------------------------------------------

 -----------------------------------
 CID_79091126_JID_9786_Energie_anion
 -----------------------------------
 Structure from the checkpoint file:  "JID_9786.chk"
 Charge = -1 Multiplicity = 2

                         Standard orientation:
 ---------------------------------------------------------------------
 Center     Atomic      Atomic             Coordinates (Angstroms)
 Number     Number       Type             X           Y           Z
 ---------------------------------------------------------------------
      1          6           0        2.740517   -2.412483   -0.089618
      2          6           0        3.175916   -1.132363   -0.808987
      3          6           0        2.035423   -0.098780   -0.888341
      4          7           0        1.742086    0.425263    0.447422
      5          6           0        2.916687    1.089971    1.008346
      6          6           0        4.071009    0.082312    1.091524
      7          7           0        4.385362   -0.565854   -0.183438
      8          6           0        5.154936    0.284231   -1.082813
      9          6           0        0.512751    1.219844    0.536164
     10          6           0        0.382132    2.378985   -0.471437
     11          6           0       -0.666432    0.288952    0.476830
     12          6           0       -0.813760   -1.047456    0.748520
     13          6           0       -2.192866   -1.347711    0.557532
     14          6           0       -2.798395   -0.175657    0.184511
     15          8           0       -1.866109    0.827959    0.132294
     16          6           0       -4.172130    0.186270   -0.154552
     17          8           0       -4.552974    1.294350   -0.472771
     18          8           0       -4.980845   -0.900291   -0.064650
     19          6           0       -6.356937   -0.648642   -0.378584
     20          1           0        1.922948   -2.895823   -0.636354
     21          1           0        2.383811   -2.199220    0.921493
     22          1           0        3.580884   -3.109456   -0.023900
     23          1           0        3.451879   -1.399305   -1.836556
     24          1           0        2.322532    0.707009   -1.587606
     25          1           0        1.132050   -0.569587   -1.288315
     26          1           0        2.671932    1.449455    2.014925
     27          1           0        3.222854    1.970487    0.411637
     28          1           0        3.799205   -0.691087    1.818588
     29          1           0        4.975850    0.576575    1.462170
     30          1           0        4.637583    1.196738   -1.428968
     31          1           0        6.076391    0.596421   -0.578903
     32          1           0        5.436362   -0.294155   -1.969608
     33          1           0        0.524701    1.664504    1.542530
     34          1           0        0.301974    2.010364   -1.498092
     35          1           0       -0.513223    2.968401   -0.258766
     36          1           0        1.254434    3.036362   -0.403937
     37          1           0       -0.021953   -1.717824    1.044406
     38          1           0       -2.687161   -2.300801    0.675634
     39          1           0       -6.777701    0.096056    0.302510
     40          1           0       -6.457934   -0.285060   -1.404811
     41          1           0       -6.863240   -1.606898   -0.259509
 ---------------------------------------------------------------------

 SCF Done:  E(UB3LYP) =  -882.199016741     A.U. after   31 cycles

 The electronic state is 2-A.
 Alpha  occ. eigenvalues --  -19.05622 -19.04549 -18.97023 -14.20674 -14.20394
 Alpha  occ. eigenvalues --  -10.15851 -10.12617 -10.10505 -10.10451 -10.10002
 Alpha  occ. eigenvalues --  -10.09477 -10.09324 -10.09181 -10.09124 -10.08912
 Alpha  occ. eigenvalues --  -10.06336 -10.05440 -10.04945 -10.04893  -0.99215
 Alpha  occ. eigenvalues --   -0.97862  -0.88912  -0.85006  -0.80807  -0.68433
 Alpha  occ. eigenvalues --   -0.68223  -0.68055  -0.64376  -0.62759  -0.60088
 Alpha  occ. eigenvalues --   -0.58307  -0.55946  -0.53632  -0.51466  -0.48638
 Alpha  occ. eigenvalues --   -0.47305  -0.43671  -0.42991  -0.42357  -0.40047
 Alpha  occ. eigenvalues --   -0.38007  -0.37579  -0.37217  -0.36901  -0.35684
 Alpha  occ. eigenvalues --   -0.34884  -0.34106  -0.33561  -0.33124  -0.31863
 Alpha  occ. eigenvalues --   -0.31224  -0.30817  -0.30623  -0.29492  -0.29066
 Alpha  occ. eigenvalues --   -0.28060  -0.27940  -0.27395  -0.26764  -0.26147
 Alpha  occ. eigenvalues --   -0.25613  -0.25326  -0.24690  -0.24162  -0.23667
 Alpha  occ. eigenvalues --   -0.23131  -0.19266  -0.16642  -0.15477  -0.13321
 Alpha  occ. eigenvalues --   -0.11272  -0.10485   0.04224
 Alpha virt. eigenvalues --    0.05814   0.07032   0.07249   0.07688   0.08056
 Alpha virt. eigenvalues --    0.09382   0.09690   0.09850   0.10386   0.10582
 Alpha virt. eigenvalues --    0.10878   0.11267   0.11806   0.12378   0.13016

  Beta  occ. eigenvalues --  -19.05423 -19.04488 -18.96778 -14.20674 -14.20390
  Beta  occ. eigenvalues --  -10.15641 -10.12621 -10.10519 -10.10446 -10.09790
  Beta  occ. eigenvalues --  -10.09466 -10.09257 -10.09159 -10.09094 -10.08900
  Beta  occ. eigenvalues --  -10.06334 -10.05412 -10.04984 -10.04778  -0.98898
  Beta  occ. eigenvalues --   -0.97619  -0.88539  -0.84992  -0.80788  -0.68355
  Beta  occ. eigenvalues --   -0.68017  -0.67916  -0.64186  -0.62709  -0.59958
  Beta  occ. eigenvalues --   -0.58277  -0.55880  -0.53580  -0.51262  -0.48465
  Beta  occ. eigenvalues --   -0.47149  -0.43616  -0.42806  -0.42244  -0.39949
  Beta  occ. eigenvalues --   -0.37911  -0.37267  -0.37145  -0.36873  -0.35616
  Beta  occ. eigenvalues --   -0.34634  -0.33901  -0.33233  -0.32956  -0.31755
  Beta  occ. eigenvalues --   -0.31023  -0.30777  -0.30528  -0.29419  -0.29024
  Beta  occ. eigenvalues --   -0.27937  -0.27531  -0.27058  -0.26691  -0.26035
  Beta  occ. eigenvalues --   -0.25546  -0.25210  -0.24538  -0.24113  -0.23608
  Beta  occ. eigenvalues --   -0.23065  -0.18446  -0.15904  -0.15251  -0.13288
  Beta  occ. eigenvalues --   -0.10697  -0.10013
  Beta virt. eigenvalues --    0.06294   0.07005   0.07602   0.07772   0.08255
  Beta virt. eigenvalues --    0.09030   0.09492   0.09849   0.10010   0.10421
  Beta virt. eigenvalues --    0.10679   0.10926   0.11255   0.11963   0.12399

 Mulliken charges and spin densities:
               1          2
     1  C   -0.271676  -0.241979
     2  C   -0.805346   0.295219
     3  C   -0.022891  -0.413989
     4  N    0.381988   0.001702
     5  C    0.242265  -0.219909
     6  C   -0.047432  -0.598988
     7  N    0.124715   0.098846
     8  C    0.644364  -0.888321
     9  C   -0.940342   0.476376
    10  C    0.234981  -0.800868
    11  C    0.043935   0.185242
    12  C   -0.419046   0.065832
    13  C   -0.178799   0.150620
    14  C   -0.450695   0.094610
    15  O    0.006375   0.043753
    16  C    0.451208   0.049183
    17  O   -0.347829   0.082738
    18  O   -0.126705   0.009027
    19  C   -0.208063  -0.009683
    20  H    0.155793  -0.025124
    21  H    0.140041   0.008520
    22  H    0.105768   0.056939
    23  H    0.005055   0.163506
    24  H    0.067102   0.060834
    25  H    0.133402   0.038395
    26  H   -0.198426   0.340555
    27  H    0.116280   0.011093
    28  H    0.146920   0.007295
    29  H   -0.198688   0.372689
    30  H   -0.140944   0.262650
    31  H   -0.242207   0.382131
    32  H   -0.113894   0.252107
    33  H   -0.053756   0.248580
    34  H    0.107762   0.053503
    35  H    0.108764   0.065908
    36  H   -0.114096   0.259756
    37  H    0.057709   0.052592
    38  H    0.169221  -0.000356
    39  H    0.160051   0.001025
    40  H    0.153676   0.007955
    41  H    0.123460   0.000035
 Sum of Mulliken charges =  -1.00000   1.00000

 Dipole moment (field-independent basis, Debye):
    X=             -1.8377    Y=             -4.0977    Z=              0.0206  Tot=              4.4910
 Quadrupole moment (field-independent basis, Debye-Ang):
   XX=           -210.1546   YY=           -145.6136   ZZ=           -136.8663
   XY=              4.4734   XZ=              1.0247   YZ=              1.5273

 Summary of Natural Population Analysis:

                                       Natural Population
                Natural  -----------------------------------------------
    Atom  No    Charge         Core      Valence    Rydberg      Total
 -----------------------------------------------------------------------
      C    1   -0.28915      0.99964     2.28420    0.00530     3.28915
      C    2   -0.00769      0.99959     1.99462    0.01349     3.00769
      C    3   -0.09803      0.99959     2.08726    0.01118     3.09803
      N    4   -0.28642      0.99971     2.77401    0.01271     3.78642
      C    5   -0.09241      0.99961     2.08187    0.01094     3.09241
      C    6   -0.08801      0.99960     2.07602    0.01238     3.08801
      N    7   -0.28391      0.99972     2.76972    0.01447     3.78391
      C    8   -0.17762      0.99964     2.16922    0.00876     3.17762
      C    9   -0.02341      0.99955     2.01129    0.01257     3.02341
      C   10   -0.29520      0.99965     2.28940    0.00615     3.29520
      C   11    0.19858      0.99946     1.78625    0.01571     2.80142
      C   12   -0.17746      0.99950     2.17023    0.00774     3.17746
      C   13   -0.09488      0.99953     2.08812    0.00723     3.09488
      C   14    0.09388      0.99941     1.89189    0.01482     2.90612
      O   15   -0.21062      0.99985     3.20352    0.00725     4.21062
      C   16    0.39969      0.99962     1.57835    0.02233     2.60031
      O   17   -0.29289      0.99988     3.28715    0.00587     4.29289
      O   18   -0.28068      0.99987     3.27288    0.00793     4.28068
      C   19   -0.10510      0.99962     2.09687    0.00861     3.10510
      H   20    0.09817      0.00000     0.40107    0.00075     0.40183
      H   21    0.10228      0.00000     0.39648    0.00125     0.39772
      H   22    0.10003      0.00000     0.39886    0.00110     0.39997
      H   23    0.09448      0.00000     0.40454    0.00099     0.40552
      H   24    0.08586      0.00000     0.41288    0.00126     0.41414
      H   25    0.10606      0.00000     0.39288    0.00106     0.39394
      H   26    0.09837      0.00000     0.40021    0.00142     0.40163
      H   27    0.08110      0.00000     0.41733    0.00157     0.41890
      H   28    0.09406      0.00000     0.40461    0.00134     0.40594
      H   29    0.09662      0.00000     0.40241    0.00097     0.40338
      H   30    0.08219      0.00000     0.41611    0.00170     0.41781
      H   31    0.09519      0.00000     0.40366    0.00114     0.40481
      H   32    0.09326      0.00000     0.40554    0.00120     0.40674
      H   33    0.10427      0.00000     0.39427    0.00146     0.39573
      H   34    0.09968      0.00000     0.39950    0.00082     0.40032
      H   35    0.10989      0.00000     0.38905    0.00106     0.39011
      H   36    0.09789      0.00000     0.40123    0.00088     0.40211
      H   37    0.10887      0.00000     0.39003    0.00109     0.39113
      H   38    0.10459      0.00000     0.39462    0.00079     0.39541
      H   39    0.08745      0.00000     0.41134    0.00122     0.41255
      H   40    0.08762      0.00000     0.41116    0.00122     0.41238
      H   41    0.08340      0.00000     0.41580    0.00081     0.41660
 =======================================================================
   * Total *   -0.00000     18.99303    52.77644    0.23053    72.00000

 Normal termination of Gaussian 16 at Sat Dec 12 11:26:40 2020.
