 Gaussian 16, Revision A.03,

 -----------------------------------------------------------
 # opt freq B3LYP/6-31G(d) empiricaldispersion=gd3bj scf=xqc
 -----------------------------------------------------------

 ------------------------------
 CID_62071433_JID_7317_neutraal
 ------------------------------
 Symbolic Z-matrix:
 Charge =  0 Multiplicity = 1

 SCF Done:  E(RB3LYP) =  -1055.70789406     A.U. after   15 cycles
 SCF Done:  E(RB3LYP) =  -1055.71279129     A.U. after   12 cycles
 SCF Done:  E(RB3LYP) =  -1055.71358490     A.U. after   13 cycles
 SCF Done:  E(RB3LYP) =  -1055.71453833     A.U. after   13 cycles
 SCF Done:  E(RB3LYP) =  -1055.71335324     A.U. after   16 cycles
 SCF Done:  E(RB3LYP) =  -1055.71667286     A.U. after   13 cycles
 SCF Done:  E(RB3LYP) =  -1055.71704794     A.U. after   13 cycles
 SCF Done:  E(RB3LYP) =  -1055.71817234     A.U. after   12 cycles
 SCF Done:  E(RB3LYP) =  -1055.71824600     A.U. after   12 cycles
 SCF Done:  E(RB3LYP) =  -1055.71833896     A.U. after   11 cycles
 SCF Done:  E(RB3LYP) =  -1055.71991670     A.U. after   10 cycles
 SCF Done:  E(RB3LYP) =  -1055.71991600     A.U. after    8 cycles
 SCF Done:  E(RB3LYP) =  -1055.71991691     A.U. after    9 cycles
 SCF Done:  E(RB3LYP) =  -1055.71991691     A.U. after    7 cycles
 SCF Done:  E(RB3LYP) =  -1055.71991695     A.U. after    6 cycles
 Optimization completed.
    -- Stationary point found.
 Normal termination of Gaussian 16 at Fri Dec 11 13:04:39 2020.

 --------------------------------------------------------------------
 #N Geom=AllCheck Guess=TCheck SCRF=Check GenChk RB3LYP/6-31G(d) Freq
 --------------------------------------------------------------------

 Structure from the checkpoint file:  "JID_7317.chk"
 ------------------------------
 CID_62071433_JID_7317_neutraal
 ------------------------------
 Charge =  0 Multiplicity = 1

 SCF Done:  E(RB3LYP) =  -1055.71991695     A.U. after    1 cycles

  Exact polarizability: 204.076  -6.418 178.296  -4.145  -8.829 134.821
 Approx polarizability: 274.433  -8.471 273.541  -7.027 -29.146 212.476

                      1                      2                      3
                      A                      A                      A
 Frequencies --     17.5573                41.9266                51.9751
 Red. masses --      3.5634                 3.2330                 3.0331
 Frc consts  --      0.0006                 0.0033                 0.0048
 IR Inten    --      0.0156                 0.1002                 0.1710

                      4                      5                      6
                      A                      A                      A
 Frequencies --     80.2999                84.4432               100.9023
 Red. masses --      2.7955                 3.5675                 4.0459
 Frc consts  --      0.0106                 0.0150                 0.0243
 IR Inten    --      0.2452                 1.7282                 1.0563

                      7                      8                      9
                      A                      A                      A
 Frequencies --    113.6816               154.4982               183.1132
 Red. masses --      2.5783                 3.1891                 1.4104
 Frc consts  --      0.0196                 0.0449                 0.0279
 IR Inten    --      0.5521                 0.4392                 0.8801

                     10                     11                     12
                      A                      A                      A
 Frequencies --    195.8593               238.0937               243.9734
 Red. masses --      2.9125                 1.1013                 1.8886
 Frc consts  --      0.0658                 0.0368                 0.0662
 IR Inten    --      1.4679                 0.5309                 2.3432

                     13                     14                     15
                      A                      A                      A
 Frequencies --    265.8480               275.6566               286.3478
 Red. masses --      3.9924                 1.5402                 2.0610
 Frc consts  --      0.1662                 0.0690                 0.0996
 IR Inten    --      1.3676                 0.0390                 0.3844

                     16                     17                     18
                      A                      A                      A
 Frequencies --    294.0539               301.2891               306.0912
 Red. masses --      1.4706                 2.4608                 1.1464
 Frc consts  --      0.0749                 0.1316                 0.0633
 IR Inten    --      0.2989                 1.0707                 0.0720

                     19                     20                     21
                      A                      A                      A
 Frequencies --    322.4695               333.6119               385.7967
 Red. masses --      2.9670                 2.8750                 3.1794
 Frc consts  --      0.1818                 0.1885                 0.2788
 IR Inten    --      1.5097                 0.9462                 0.2932

                     22                     23                     24
                      A                      A                      A
 Frequencies --    411.3378               452.2047               484.9237
 Red. masses --      3.0138                 3.6379                 2.4814
 Frc consts  --      0.3004                 0.4383                 0.3438
 IR Inten    --      1.0391                 1.2464                 2.2598

                     25                     26                     27
                      A                      A                      A
 Frequencies --    507.0863               544.8587               555.2939
 Red. masses --      4.0010                 3.5557                 3.3549
 Frc consts  --      0.6062                 0.6219                 0.6095
 IR Inten    --      2.5865                 2.6554                 0.8046

                     28                     29                     30
                      A                      A                      A
 Frequencies --    575.6317               615.3737               685.3287
 Red. masses --      2.3839                 2.5801                 8.5315
 Frc consts  --      0.4654                 0.5757                 2.3609
 IR Inten    --      5.0557                 1.2259                 9.8234

                     31                     32                     33
                      A                      A                      A
 Frequencies --    719.5915               739.8048               770.7963
 Red. masses --      2.6755                 2.5070                 1.5609
 Frc consts  --      0.8163                 0.8084                 0.5464
 IR Inten    --     11.9987                34.7120                20.9073

                     34                     35                     36
                      A                      A                      A
 Frequencies --    787.7588               815.5573               833.1440
 Red. masses --      2.6497                 2.7360                 1.8204
 Frc consts  --      0.9688                 1.0722                 0.7445
 IR Inten    --      2.4338                 9.1649                34.3233

                     37                     38                     39
                      A                      A                      A
 Frequencies --    858.5471               871.9300               879.6963
 Red. masses --      2.0940                 3.4010                 2.0976
 Frc consts  --      0.9094                 1.5234                 0.9564
 IR Inten    --     10.6675                 9.4893                 0.3147

                     40                     41                     42
                      A                      A                      A
 Frequencies --    918.5879               937.2236               943.8267
 Red. masses --      2.4966                 2.0198                 1.7789
 Frc consts  --      1.2412                 1.0453                 0.9337
 IR Inten    --      0.7355                 2.2946                 0.6346

                     43                     44                     45
                      A                      A                      A
 Frequencies --    952.9291               960.6112               975.0672
 Red. masses --      2.0057                 2.5443                 1.5099
 Frc consts  --      1.0731                 1.3833                 0.8458
 IR Inten    --      1.6848                 7.0537                 3.3297

                     46                     47                     48
                      A                      A                      A
 Frequencies --    976.6884              1008.6523              1023.2604
 Red. masses --      1.2352                 2.0471                 2.3889
 Frc consts  --      0.6942                 1.2271                 1.4737
 IR Inten    --      0.7045                12.2002                 9.3859

                     49                     50                     51
                      A                      A                      A
 Frequencies --   1046.5621              1059.5473              1061.0099
 Red. masses --      1.5287                 1.4185                 1.3997
 Frc consts  --      0.9865                 0.9383                 0.9284
 IR Inten    --      0.3264                 3.3489                 0.0612

                     52                     53                     54
                      A                      A                      A
 Frequencies --   1072.9134              1088.5259              1133.8003
 Red. masses --      1.7890                 2.3919                 1.8675
 Frc consts  --      1.2134                 1.6698                 1.4145
 IR Inten    --     13.7395                 8.3406                27.2740

                     55                     56                     57
                      A                      A                      A
 Frequencies --   1144.2116              1162.4634              1176.3513
 Red. masses --      1.9775                 1.5573                 1.8639
 Frc consts  --      1.5254                 1.2399                 1.5196
 IR Inten    --      3.8573                 7.8566                44.3307

                     58                     59                     60
                      A                      A                      A
 Frequencies --   1200.7022              1206.8658              1216.4353
 Red. masses --      1.7196                 1.8009                 1.9876
 Frc consts  --      1.4607                 1.5454                 1.7329
 IR Inten    --     19.3151                11.6130                 9.8894

                     61                     62                     63
                      A                      A                      A
 Frequencies --   1245.0455              1249.4528              1263.1665
 Red. masses --      2.6724                 2.7423                 1.4082
 Frc consts  --      2.4407                 2.5223                 1.3239
 IR Inten    --      3.1667                14.2129                 0.4403

                     64                     65                     66
                      A                      A                      A
 Frequencies --   1269.9822              1278.3045              1305.4526
 Red. masses --      1.3740                 2.2528                 1.4402
 Frc consts  --      1.3057                 2.1689                 1.4461
 IR Inten    --      3.7400                22.3124                 0.9259

                     67                     68                     69
                      A                      A                      A
 Frequencies --   1324.9211              1339.7802              1346.0223
 Red. masses --      1.3049                 1.2973                 4.0035
 Frc consts  --      1.3496                 1.3720                 4.2736
 IR Inten    --      0.2342                 0.8495                 0.0131

                     70                     71                     72
                      A                      A                      A
 Frequencies --   1359.6849              1370.4603              1373.0950
 Red. masses --      1.2472                 1.3659                 1.4325
 Frc consts  --      1.3585                 1.5115                 1.5913
 IR Inten    --      0.8926                 1.0689                18.3249

                     73                     74                     75
                      A                      A                      A
 Frequencies --   1374.5235              1403.9161              1418.2619
 Red. masses --      1.3279                 1.4275                 1.2223
 Frc consts  --      1.4781                 1.6577                 1.4485
 IR Inten    --      1.1065                13.8434                 4.4187

                     76                     77                     78
                      A                      A                      A
 Frequencies --   1423.8903              1451.9451              1483.1169
 Red. masses --      1.2486                 1.2383                 1.1634
 Frc consts  --      1.4915                 1.5380                 1.5077
 IR Inten    --      6.7892                 4.9145                 2.5787

                     79                     80                     81
                      A                      A                      A
 Frequencies --   1507.2345              1509.0686              1514.6868
 Red. masses --      1.0519                 1.2160                 1.0960
 Frc consts  --      1.4079                 1.6316                 1.4815
 IR Inten    --      0.0279                16.3515                 5.4299

                     82                     83                     84
                      A                      A                      A
 Frequencies --   1519.9665              1520.8155              1521.0898
 Red. masses --      1.0753                 1.0547                 1.0564
 Frc consts  --      1.4637                 1.4373                 1.4401
 IR Inten    --      0.3095                 7.6548                 2.3498

                     85                     86                     87
                      A                      A                      A
 Frequencies --   1522.3463              1522.8507              1530.3467
 Red. masses --      1.0639                 1.0855                 1.0592
 Frc consts  --      1.4527                 1.4832                 1.4615
 IR Inten    --      3.2562                 2.1830                 5.7846

                     88                     89                     90
                      A                      A                      A
 Frequencies --   1534.1410              1536.3459              1543.9077
 Red. masses --      1.0778                 2.0683                 1.1221
 Frc consts  --      1.4946                 2.8764                 1.5759
 IR Inten    --      6.2795                 4.5568                 7.5265

                     91                     92                     93
                      A                      A                      A
 Frequencies --   1547.0238              1560.2979              1582.4011
 Red. masses --      1.0538                 1.6064                 7.8567
 Frc consts  --      1.4859                 2.3042                11.5910
 IR Inten    --     14.6446                 3.8785                51.5486

                     94                     95                     96
                      A                      A                      A
 Frequencies --   2977.2766              3025.4580              3034.9017
 Red. masses --      1.0579                 1.0828                 1.0674
 Frc consts  --      5.5252                 5.8393                 5.7924
 IR Inten    --     81.0076                10.2470                43.9881

                     97                     98                     99
                      A                      A                      A
 Frequencies --   3038.7770              3044.2642              3044.8774
 Red. masses --      1.0808                 1.0348                 1.0356
 Frc consts  --      5.8802                 5.6502                 5.6570
 IR Inten    --     22.7489                21.4700                28.9483

                    100                    101                    102
                      A                      A                      A
 Frequencies --   3052.0799              3053.3418              3069.5249
 Red. masses --      1.0366                 1.0639                 1.0623
 Frc consts  --      5.6891                 5.8436                 5.8972
 IR Inten    --     27.6196                42.8106                69.4681

                    103                    104                    105
                      A                      A                      A
 Frequencies --   3072.0443              3082.6006              3085.9605
 Red. masses --      1.0668                 1.0763                 1.1036
 Frc consts  --      5.9317                 6.0258                 6.1922
 IR Inten    --     15.9634                40.7573                24.8791

                    106                    107                    108
                      A                      A                      A
 Frequencies --   3093.9581              3109.1335              3111.4808
 Red. masses --      1.0958                 1.1029                 1.1025
 Frc consts  --      6.1801                 6.2817                 6.2885
 IR Inten    --     33.9292                 6.1763                12.7476

                    109                    110                    111
                      A                      A                      A
 Frequencies --   3115.0614              3118.5105              3119.2459
 Red. masses --      1.1024                 1.1053                 1.1018
 Frc consts  --      6.3027                 6.3331                 6.3162
 IR Inten    --     44.8871                53.2653                67.9817

                    112                    113                    114
                      A                      A                      A
 Frequencies --   3128.1356              3134.3785              3135.8526
 Red. masses --      1.1030                 1.1015                 1.0994
 Frc consts  --      6.3591                 6.3760                 6.3695
 IR Inten    --     28.0103                 7.7488                26.9522

                    115                    116                    117
                      A                      A                      A
 Frequencies --   3139.1326              3282.7121              3495.1754
 Red. masses --      1.1002                 1.0937                 1.0738
 Frc consts  --      6.3878                 6.9443                 7.7285
 IR Inten    --     31.9658                 1.5151                 0.8464

 - Thermochemistry -
 -------------------
 Temperature   298.150 Kelvin.  Pressure   1.00000 Atm.
 Atom     1 has atomic number  6 and mass  12.00000

 Molecular mass:   252.16602 amu.
 Principal axes and moments of inertia in atomic units:
                           1         2         3
     Eigenvalues --  3144.185525573.769567597.01654
           X            0.99994  -0.01105  -0.00102
           Y            0.01106   0.99990   0.00876
           Z            0.00092  -0.00877   0.99996
 This molecule is an asymmetric top.
 Rotational symmetry number  1.
 Warning -- assumption of classical behavior for rotation
           may cause significant error
 Rotational temperatures (Kelvin)      0.02755     0.01554     0.01140
 Rotational constants (GHZ):           0.57399     0.32379     0.23756
 Zero-point vibrational energy     959823.9 (Joules/Mol)
                                  229.40341 (Kcal/Mol)
 Warning -- explicit consideration of  29 degrees of freedom as
           vibrations may cause significant error
 Vibrational temperatures:     25.26    60.32    74.78   115.53   121.49
          (Kelvin)            145.18   163.56   222.29   263.46   281.80
                              342.56   351.02   382.50   396.61   411.99
                              423.08   433.49   440.40   463.96   479.99
                              555.08   591.82   650.62   697.70   729.58
                              783.93   798.94   828.21   885.39   986.04
                             1035.33  1064.41  1109.00  1133.41  1173.41
                             1198.71  1235.26  1254.51  1265.69  1321.64
                             1348.46  1357.96  1371.05  1382.11  1402.90
                             1405.24  1451.23  1472.24  1505.77  1524.45
                             1526.56  1543.68  1566.15  1631.29  1646.27
                             1672.53  1692.51  1727.54  1736.41  1750.18
                             1791.34  1797.68  1817.41  1827.22  1839.20
                             1878.26  1906.27  1927.64  1936.63  1956.28
                             1971.79  1975.58  1977.63  2019.92  2040.56
                             2048.66  2089.03  2133.87  2168.57  2171.21
                             2179.30  2186.89  2188.11  2188.51  2190.32
                             2191.04  2201.83  2207.29  2210.46  2221.34
                             2225.82  2244.92  2276.72  4283.64  4352.96
                             4366.55  4372.12  4380.02  4380.90  4391.26
                             4393.08  4416.36  4419.99  4435.17  4440.01
                             4451.52  4473.35  4476.73  4481.88  4486.84
                             4487.90  4500.69  4509.67  4511.79  4516.51
                             4723.09  5028.78

 Zero-point correction=                           0.365578 (Hartree/Particle)
 Thermal correction to Energy=                    0.383898
 Thermal correction to Enthalpy=                  0.384842
 Thermal correction to Gibbs Free Energy=         0.318590
 Sum of electronic and zero-point Energies=          -1055.354339
 Sum of electronic and thermal Energies=             -1055.336019
 Sum of electronic and thermal Enthalpies=           -1055.335075
 Sum of electronic and thermal Free Energies=        -1055.401326

                     E (Thermal)             CV                S
                      KCal/Mol        Cal/Mol-Kelvin    Cal/Mol-Kelvin
 Total                  240.900             70.278            139.439
 Electronic               0.000              0.000              0.000
 Translational            0.889              2.981             42.475
 Rotational               0.889              2.981             33.254
 Vibrational            239.122             64.316             63.710
 Vibration     1          0.593              1.986              6.893
 Vibration     2          0.595              1.980              5.166
 Vibration     3          0.596              1.977              4.741
 Vibration     4          0.600              1.963              3.884
 Vibration     5          0.601              1.960              3.785
 Vibration     6          0.604              1.948              3.437
 Vibration     7          0.607              1.938              3.205
 Vibration     8          0.620              1.898              2.616
 Vibration     9          0.631              1.863              2.296
 Vibration    10          0.636              1.846              2.172
 Vibration    11          0.656              1.782              1.817
 Vibration    12          0.659              1.773              1.774
 Vibration    13          0.672              1.736              1.623
 Vibration    14          0.677              1.718              1.560
 Vibration    15          0.684              1.699              1.495
 Vibration    16          0.689              1.685              1.451
 Vibration    17          0.693              1.671              1.410
 Vibration    18          0.696              1.662              1.383
 Vibration    19          0.707              1.630              1.298
 Vibration    20          0.715              1.608              1.243
 Vibration    21          0.754              1.501              1.016
 Vibration    22          0.775              1.446              0.922
 Vibration    23          0.811              1.356              0.789
 Vibration    24          0.841              1.283              0.697
 Vibration    25          0.862              1.234              0.641
 Vibration    26          0.900              1.151              0.555
 Vibration    27          0.911              1.128              0.533
 Vibration    28          0.932              1.084              0.494
 Vibration    29          0.975              0.999              0.424

 Optimization completed.
    -- Stationary point found.
 Normal termination of Gaussian 16 at Fri Dec 11 13:27:32 2020.

 ----------------------------------------------------------------------
 # B3LYP/6-311++G(d,p) empiricaldispersion=gd3bj scf=xqc pop=npa geom=c
 heck
 ----------------------------------------------------------------------

 --------------------------------------
 CID_62071433_JID_7317_Energie_neutraal
 --------------------------------------
 Structure from the checkpoint file:  "JID_7317.chk"
 Charge =  0 Multiplicity = 1

 SCF Done:  E(RB3LYP) =  -1055.92289129     A.U. after   16 cycles
 Normal termination of Gaussian 16 at Fri Dec 11 13:39:15 2020.

 ----------------------------------------------------------------------
 # B3LYP/6-311++G(d,p) empiricaldispersion=gd3bj scf=xqc pop=npa geom=c
 heck
 ----------------------------------------------------------------------

 ------------------------------------
 CID_62071433_JID_7317_Energie_kation
 ------------------------------------
 Structure from the checkpoint file:  "JID_7317.chk"
 Charge =  1 Multiplicity = 2

 SCF Done:  E(UB3LYP) =  -1055.63062837     A.U. after   23 cycles
 Normal termination of Gaussian 16 at Fri Dec 11 14:02:31 2020.
 Gaussian 16:  ES64L-G16RevA.03 25-Dec-2016

 ----------------------------------------------------------------------
 # B3LYP/6-311++G(d,p) empiricaldispersion=gd3bj scf=xqc pop=npa geom=c
 heck
 ----------------------------------------------------------------------

 -----------------------------------
 CID_62071433_JID_7317_Energie_anion
 -----------------------------------
 Structure from the checkpoint file:  "JID_7317.chk"
 Charge = -1 Multiplicity = 2

                         Standard orientation:
 ---------------------------------------------------------------------
 Center     Atomic      Atomic             Coordinates (Angstroms)
 Number     Number       Type             X           Y           Z
 ---------------------------------------------------------------------
      1          6           0       -4.299386   -0.474958    0.366362
      2          6           0       -3.066946    0.267830   -0.169228
      3          6           0       -3.256513    0.565980   -1.671280
      4          6           0       -2.895644    1.597020    0.594315
      5          6           0       -1.811657   -0.566554    0.004168
      6          6           0       -1.712096   -1.829825    0.517623
      7         16           0       -0.066289   -2.388040    0.494505
      8          6           0        0.392209   -0.842823   -0.213027
      9          7           0       -0.601100   -0.026134   -0.402410
     10          6           0        1.844281   -0.593757   -0.559488
     11          6           0        2.332252    0.828110   -0.194559
     12          6           0        1.746229    1.962644   -1.076205
     13          6           0        1.624463    3.166067   -0.128702
     14          6           0        1.183773    2.521775    1.194183
     15          6           0        2.032077    1.237409    1.281308
     16          7           0        2.634646   -1.666637    0.054951
     17          6           0        3.917414   -1.927690   -0.585125
     18          1           0       -5.195560    0.140501    0.232411
     19          1           0       -4.199830   -0.695133    1.435356
     20          1           0       -4.459493   -1.419421   -0.165959
     21          1           0       -4.132055    1.207788   -1.826004
     22          1           0       -2.376018    1.073695   -2.075685
     23          1           0       -3.405544   -0.360628   -2.236976
     24          1           0       -2.750792    1.417434    1.665694
     25          1           0       -2.027651    2.147108    0.220378
     26          1           0       -3.785249    2.225712    0.469120
     27          1           0       -2.502951   -2.457188    0.901495
     28          1           0        1.945957   -0.719938   -1.647062
     29          1           0        3.419419    0.810537   -0.339585
     30          1           0        2.373681    2.164250   -1.951603
     31          1           0        0.751869    1.678062   -1.427994
     32          1           0        0.923398    3.925324   -0.492286
     33          1           0        2.601075    3.653514   -0.001533
     34          1           0        0.124188    2.253611    1.131048
     35          1           0        1.314642    3.176850    2.062216
     36          1           0        1.511760    0.447321    1.835229
     37          1           0        2.969188    1.436646    1.813673
     38          1           0        2.773505   -1.452652    1.041052
     39          1           0        4.588664   -1.053964   -0.651866
     40          1           0        4.438322   -2.714140   -0.030594
     41          1           0        3.742554   -2.294641   -1.602481
 ---------------------------------------------------------------------

 SCF Done:  E(UB3LYP) =  -1055.91016282     A.U. after   33 cycles
 SCF Done:  E(UB3LYP) =  -1055.91016282     a.u. after    1 cycles

 The electronic state is 2-A.
 Alpha  occ. eigenvalues --  -88.77303 -14.20844 -14.20553 -10.12994 -10.11430
 Alpha  occ. eigenvalues --  -10.10439 -10.09870 -10.09145 -10.09121 -10.07258
 Alpha  occ. eigenvalues --  -10.07072 -10.06594 -10.06510 -10.06352 -10.06349
 Alpha  occ. eigenvalues --  -10.06192 -10.05605  -7.85879  -5.82144  -5.81788
 Alpha  occ. eigenvalues --   -5.81514  -0.86346  -0.81791  -0.73642  -0.73097
 Alpha  occ. eigenvalues --   -0.69102  -0.66179  -0.61748  -0.60828  -0.59848
 Alpha  occ. eigenvalues --   -0.59358  -0.58162  -0.54045  -0.50080  -0.47634
 Alpha  occ. eigenvalues --   -0.47135  -0.44800  -0.42659  -0.40853  -0.38849
 Alpha  occ. eigenvalues --   -0.38094  -0.36662  -0.36091  -0.35215  -0.34133
 Alpha  occ. eigenvalues --   -0.33293  -0.32470  -0.31338  -0.30917  -0.30434
 Alpha  occ. eigenvalues --   -0.30153  -0.29193  -0.28468  -0.28082  -0.27544
 Alpha  occ. eigenvalues --   -0.27142  -0.25041  -0.24400  -0.24220  -0.24037
 Alpha  occ. eigenvalues --   -0.23562  -0.23350  -0.22733  -0.22542  -0.21657
 Alpha  occ. eigenvalues --   -0.17885  -0.16865  -0.14014  -0.13364   0.04174
 Alpha virt. eigenvalues --    0.05635   0.06810   0.07032   0.07387   0.07978
 Alpha virt. eigenvalues --    0.08278   0.08574   0.09219   0.09475   0.09946
 Alpha virt. eigenvalues --    0.10116   0.10482   0.10944   0.11331   0.11852

  Beta  occ. eigenvalues --  -88.77294 -14.20839 -14.20529 -10.12921 -10.11431
  Beta  occ. eigenvalues --  -10.10444 -10.09869 -10.09101 -10.09075 -10.07243
  Beta  occ. eigenvalues --  -10.07052 -10.06585 -10.06491 -10.06337 -10.06335
  Beta  occ. eigenvalues --  -10.06187 -10.05594  -7.85869  -5.82139  -5.81784
  Beta  occ. eigenvalues --   -5.81484  -0.86276  -0.81774  -0.73618  -0.73079
  Beta  occ. eigenvalues --   -0.69037  -0.66117  -0.61700  -0.60796  -0.59812
  Beta  occ. eigenvalues --   -0.59329  -0.58105  -0.53981  -0.50018  -0.47564
  Beta  occ. eigenvalues --   -0.47095  -0.44759  -0.42606  -0.40807  -0.38816
  Beta  occ. eigenvalues --   -0.38051  -0.36629  -0.36037  -0.35188  -0.34099
  Beta  occ. eigenvalues --   -0.33250  -0.32399  -0.31310  -0.30867  -0.30399
  Beta  occ. eigenvalues --   -0.30111  -0.29145  -0.28417  -0.28008  -0.27520
  Beta  occ. eigenvalues --   -0.27097  -0.25013  -0.24374  -0.24195  -0.24011
  Beta  occ. eigenvalues --   -0.23539  -0.23318  -0.22708  -0.22504  -0.21622
  Beta  occ. eigenvalues --   -0.17696  -0.16828  -0.13874  -0.13256
  Beta virt. eigenvalues --    0.05965   0.06604   0.07304   0.07371   0.07853
  Beta virt. eigenvalues --    0.08352   0.08610   0.08828   0.09396   0.09680
  Beta virt. eigenvalues --    0.10149   0.10474   0.10647   0.11118   0.11553

 Mulliken charges and spin densities:
               1          2
     1  C    0.279426  -0.895767
     2  C   -1.349212   2.277897
     3  C   -0.124170  -0.536080
     4  C   -0.361971  -0.317762
     5  C    0.044494  -1.577937
     6  C    0.301468   0.631355
     7  S   -0.323124  -0.170222
     8  C   -0.272988  -0.118995
     9  N    0.339667   0.061665
    10  C   -0.940596   0.347325
    11  C    1.878463  -1.111952
    12  C   -0.498459   0.054156
    13  C   -0.107541  -0.461109
    14  C    0.029106  -0.188806
    15  C   -0.355253  -0.184415
    16  N    0.055577   0.013422
    17  C    0.990468  -1.281753
    18  H   -0.225809   0.385631
    19  H    0.023543   0.105398
    20  H    0.011380   0.112376
    21  H   -0.098673   0.252130
    22  H    0.043199   0.101119
    23  H    0.001263   0.139566
    24  H   -0.005224   0.147491
    25  H    0.236978  -0.076412
    26  H    0.012537   0.134014
    27  H   -0.000655   0.279142
    28  H   -0.083932   0.298586
    29  H    0.434297  -0.192626
    30  H   -0.272788   0.429567
    31  H    0.265978  -0.087024
    32  H   -0.046747   0.201346
    33  H   -0.017234   0.140807
    34  H    0.245700  -0.157934
    35  H   -0.000373   0.161820
    36  H    0.156123   0.005378
    37  H   -0.467686   0.638002
    38  H    0.159552   0.070813
    39  H   -0.511758   0.632188
    40  H   -0.216610   0.357996
    41  H   -0.228419   0.379605
 Sum of Mulliken charges =  -1.00000   1.00000

 Dipole moment (field-independent basis, Debye):
    X=             -3.8059    Y=             -0.5696    Z=              1.4303  Tot=              4.1055
 Quadrupole moment (field-independent basis, Debye-Ang):
   XX=           -207.8376   YY=           -160.0044   ZZ=           -148.4745
   XY=              2.1766   XZ=              2.1687   YZ=             -1.7179

 Summary of Natural Population Analysis:

                                       Natural Population
                Natural  -----------------------------------------------
    Atom  No    Charge         Core      Valence    Rydberg      Total
 -----------------------------------------------------------------------
      C    1   -0.28479      0.99964     2.27781    0.00734     3.28479
      C    2   -0.05798      0.99955     2.04700    0.01144     3.05798
      C    3   -0.27873      0.99963     2.27346    0.00564     3.27873
      C    4   -0.27930      0.99963     2.27386    0.00580     3.27930
      C    5    0.06904      0.99945     1.91404    0.01747     2.93096
      C    6   -0.20891      0.99944     2.20058    0.00889     3.20891
      S    7    0.20162      4.99942     2.77951    0.01945     7.79838
      C    8    0.05974      0.99957     1.92067    0.02001     2.94026
      N    9   -0.25691      0.99961     2.74610    0.01119     3.75691
      C   10   -0.02694      0.99950     2.01310    0.01435     3.02694
      C   11   -0.11303      0.99959     2.10103    0.01240     3.11303
      C   12   -0.19463      0.99962     2.18664    0.00838     3.19463
      C   13   -0.18924      0.99964     2.18216    0.00744     3.18924
      C   14   -0.19320      0.99963     2.18590    0.00767     3.19320
      C   15   -0.19474      0.99963     2.18611    0.00900     3.19474
      N   16   -0.34042      0.99975     2.82908    0.01159     3.84042
      C   17   -0.17557      0.99966     2.16798    0.00794     3.17557
      H   18    0.10060      0.00000     0.39855    0.00084     0.39940
      H   19    0.10107      0.00000     0.39798    0.00095     0.39893
      H   20    0.10004      0.00000     0.39901    0.00096     0.39996
      H   21    0.09621      0.00000     0.40285    0.00094     0.40379
      H   22    0.10744      0.00000     0.39149    0.00107     0.39256
      H   23    0.09927      0.00000     0.39983    0.00090     0.40073
      H   24    0.09974      0.00000     0.39934    0.00093     0.40026
      H   25    0.10668      0.00000     0.39218    0.00114     0.39332
      H   26    0.09584      0.00000     0.40334    0.00082     0.40416
      H   27    0.11150      0.00000     0.38738    0.00112     0.38850
      H   28    0.10757      0.00000     0.39052    0.00191     0.39243
      H   29    0.10303      0.00000     0.39488    0.00209     0.39697
      H   30    0.09804      0.00000     0.40100    0.00095     0.40196
      H   31    0.10909      0.00000     0.38883    0.00208     0.39091
      H   32    0.09687      0.00000     0.40237    0.00076     0.40313
      H   33    0.09219      0.00000     0.40662    0.00119     0.40781
      H   34    0.10021      0.00000     0.39799    0.00180     0.39979
      H   35    0.09504      0.00000     0.40412    0.00085     0.40496
      H   36    0.09861      0.00000     0.40012    0.00127     0.40139
      H   37    0.09851      0.00000     0.40014    0.00136     0.40149
      H   38    0.17461      0.00000     0.32287    0.00252     0.32539
      H   39    0.08399      0.00000     0.41385    0.00216     0.41601
      H   40    0.09523      0.00000     0.40387    0.00089     0.40477
      H   41    0.09259      0.00000     0.40622    0.00119     0.40741
 =======================================================================
   * Total *    0.00000     20.99294    47.79038    0.21668    69.00000

 Normal termination of Gaussian 16 at Fri Dec 11 14:35:10 2020.
