 Gaussian 16, Revision A.03,

 -----------------------------------------------------------
 # opt freq B3LYP/6-31G(d) empiricaldispersion=gd3bj scf=xqc
 -----------------------------------------------------------

 -------------------------------
 CID_121009118_JID_5694_neutraal
 -------------------------------
 Symbolic Z-matrix:
 Charge =  0 Multiplicity = 1

 SCF Done:  E(RB3LYP) =  -669.151495987     A.U. after   16 cycles
 SCF Done:  E(RB3LYP) =  -669.157588848     A.U. after   13 cycles
 SCF Done:  E(RB3LYP) =  -669.158631763     A.U. after   13 cycles
 SCF Done:  E(RB3LYP) =  -669.159294356     A.U. after   15 cycles
 SCF Done:  E(RB3LYP) =  -669.159860452     A.U. after   14 cycles
 SCF Done:  E(RB3LYP) =  -669.160233512     A.U. after   12 cycles
 SCF Done:  E(RB3LYP) =  -669.160342325     A.U. after   15 cycles
 SCF Done:  E(RB3LYP) =  -669.160632789     A.U. after   11 cycles
 SCF Done:  E(RB3LYP) =  -669.161192247     A.U. after   15 cycles
 SCF Done:  E(RB3LYP) =  -669.162336177     A.U. after   15 cycles
 SCF Done:  E(RB3LYP) =  -669.170766172     A.U. after   11 cycles
 SCF Done:  E(RB3LYP) =  -669.170788098     A.U. after   12 cycles
 SCF Done:  E(RB3LYP) =  -669.170789711     A.U. after    9 cycles
 SCF Done:  E(RB3LYP) =  -669.170785564     A.U. after   10 cycles
 SCF Done:  E(RB3LYP) =  -669.170791908     A.U. after   11 cycles
 SCF Done:  E(RB3LYP) =  -669.170792182     A.U. after    9 cycles
 Optimization completed.
    -- Stationary point found.
 Normal termination of Gaussian 16 at Thu Dec 10 16:51:15 2020.

 --------------------------------------------------------------------
 #N Geom=AllCheck Guess=TCheck SCRF=Check GenChk RB3LYP/6-31G(d) Freq
 --------------------------------------------------------------------

 Structure from the checkpoint file:  "JID_5694.chk"
 -------------------------------
 CID_121009118_JID_5694_neutraal
 -------------------------------
 Charge =  0 Multiplicity = 1

 SCF Done:  E(RB3LYP) =  -669.170792182     A.U. after    1 cycles

  Exact polarizability: 215.796   2.311 133.693  -4.125 -13.442  70.073
 Approx polarizability: 345.339  10.231 209.539 -11.413 -30.543 115.794

                      1                      2                      3
                      A                      A                      A
 Frequencies --     34.0546                49.9572                74.1776
 Red. masses --      5.4517                 4.7097                 5.1678
 Frc consts  --      0.0037                 0.0069                 0.0168
 IR Inten    --      0.6291                 0.5775                 0.2359

                      4                      5                      6
                      A                      A                      A
 Frequencies --     93.5511               111.2372               177.2259
 Red. masses --      2.5129                 3.2483                 4.0603
 Frc consts  --      0.0130                 0.0237                 0.0751
 IR Inten    --      1.6513                 1.3900                 1.7187

                      7                      8                      9
                      A                      A                      A
 Frequencies --    237.9142               260.6640               302.2719
 Red. masses --      6.1168                 4.9953                 6.9696
 Frc consts  --      0.2040                 0.2000                 0.3752
 IR Inten    --      6.0517                 8.6684                 1.6291

                     10                     11                     12
                      A                      A                      A
 Frequencies --    346.8878               395.5217               414.4998
 Red. masses --      4.3869                 8.8677                 2.9501
 Frc consts  --      0.3110                 0.8173                 0.2986
 IR Inten    --     12.5075                 1.1804                 0.7581

                     13                     14                     15
                      A                      A                      A
 Frequencies --    425.5647               465.8541               495.8907
 Red. masses --      4.1312                 1.2830                 3.6952
 Frc consts  --      0.4408                 0.1640                 0.5354
 IR Inten    --      3.2719               188.4731                29.6479

                     16                     17                     18
                      A                      A                      A
 Frequencies --    560.1880               579.1710               597.0242
 Red. masses --      2.2400                 3.4042                 4.3476
 Frc consts  --      0.4142                 0.6728                 0.9130
 IR Inten    --     12.9068                17.4255                 9.8611

                     19                     20                     21
                      A                      A                      A
 Frequencies --    626.4778               636.9043               681.9972
 Red. masses --      4.2465                 5.3960                 4.4876
 Frc consts  --      0.9820                 1.2897                 1.2298
 IR Inten    --     26.2812                 9.0876                 4.4871

                     22                     23                     24
                      A                      A                      A
 Frequencies --    699.4239               708.3575               716.3193
 Red. masses --      1.7602                 4.3977                 1.3859
 Frc consts  --      0.5073                 1.3001                 0.4190
 IR Inten    --     26.0975                 6.4316                18.4280

                     25                     26                     27
                      A                      A                      A
 Frequencies --    774.9828               789.4100               846.2921
 Red. masses --      2.0801                 2.8370                 1.2567
 Frc consts  --      0.7361                 1.0416                 0.5303
 IR Inten    --     30.5546                 3.2264                 4.6676

                     28                     29                     30
                      A                      A                      A
 Frequencies --    856.3680               914.5640               932.5883
 Red. masses --      1.8356                 6.0307                 1.4278
 Frc consts  --      0.7931                 2.9720                 0.7316
 IR Inten    --      5.9506                 0.2047                 1.2868

                     31                     32                     33
                      A                      A                      A
 Frequencies --    965.3225               996.0552               998.7050
 Red. masses --      1.3588                 1.5250                 3.0968
 Frc consts  --      0.7460                 0.8914                 1.8198
 IR Inten    --      2.3310                 2.7564                14.1624

                     34                     35                     36
                      A                      A                      A
 Frequencies --   1019.0767              1022.7176              1026.5216
 Red. masses --      2.2555                 5.8871                 2.7939
 Frc consts  --      1.3801                 3.6280                 1.7346
 IR Inten    --      0.9690                 2.4274                 1.5727

                     37                     38                     39
                      A                      A                      A
 Frequencies --   1059.6731              1069.9744              1125.6191
 Red. masses --      2.8571                 2.0998                 1.6720
 Frc consts  --      1.8903                 1.4164                 1.2482
 IR Inten    --      1.1238                11.3631                 3.3848

                     40                     41                     42
                      A                      A                      A
 Frequencies --   1164.1500              1175.5652              1197.4771
 Red. masses --      1.9404                 1.2211                 1.0936
 Frc consts  --      1.5494                 0.9942                 0.9239
 IR Inten    --      4.6714                 0.6001                 0.2895

                     43                     44                     45
                      A                      A                      A
 Frequencies --   1226.0442              1240.7874              1258.4770
 Red. masses --      1.1408                 3.4755                 1.2188
 Frc consts  --      1.0104                 3.1525                 1.1373
 IR Inten    --      9.9457                37.9470                 3.8046

                     46                     47                     48
                      A                      A                      A
 Frequencies --   1291.9021              1306.9160              1340.7589
 Red. masses --      1.6368                 4.0676                 1.8128
 Frc consts  --      1.6096                 4.0934                 1.9200
 IR Inten    --      7.7291               160.1940                16.8081

                     49                     50                     51
                      A                      A                      A
 Frequencies --   1356.0369              1377.2635              1391.3974
 Red. masses --      3.6611                 1.8250                 3.0541
 Frc consts  --      3.9665                 2.0396                 3.4836
 IR Inten    --     25.0138                 3.9966                89.8865

                     52                     53                     54
                      A                      A                      A
 Frequencies --   1481.8699              1492.0790              1509.8404
 Red. masses --      1.0791                 2.2436                 1.1225
 Frc consts  --      1.3962                 2.9429                 1.5077
 IR Inten    --      2.3676                11.9419                13.9458

                     55                     56                     57
                      A                      A                      A
 Frequencies --   1546.5319              1622.7658              1636.0622
 Red. masses --      2.1490                 6.4352                 1.3643
 Frc consts  --      3.0284                 9.9845                 2.1516
 IR Inten    --      2.4469               180.1377               344.8466

                     58                     59                     60
                      A                      A                      A
 Frequencies --   1643.3400              1662.4085              1768.1247
 Red. masses --      6.1391                 5.3799                 7.5429
 Frc consts  --      9.7681                 8.7599                13.8936
 IR Inten    --     58.1952                 9.3292                27.4163

                     61                     62                     63
                      A                      A                      A
 Frequencies --   1783.4158              3057.7182              3078.9495
 Red. masses --     11.0853                 1.0633                 1.0649
 Frc consts  --     20.7732                 5.8576                 5.9477
 IR Inten    --    599.1616                16.9653                 8.4726

                     64                     65                     66
                      A                      A                      A
 Frequencies --   3094.7799              3122.2737              3188.0140
 Red. masses --      1.0977                 1.1026                 1.0854
 Frc consts  --      6.1943                 6.3328                 6.4994
 IR Inten    --      8.4348                 9.3842                 0.0801

                     67                     68                     69
                      A                      A                      A
 Frequencies --   3199.0373              3209.2172              3217.0453
 Red. masses --      1.0891                 1.0930                 1.0961
 Frc consts  --      6.5670                 6.6323                 6.6838
 IR Inten    --      9.1304                32.3957                20.5685

                     70                     71                     72
                      A                      A                      A
 Frequencies --   3269.0038              3486.5077              3678.4459
 Red. masses --      1.0922                 1.0549                 1.0968
 Frc consts  --      6.8769                 7.5554                 8.7438
 IR Inten    --      1.7810               114.9158                85.1105

 - Thermochemistry -
 -------------------
 Temperature   298.150 Kelvin.  Pressure   1.00000 Atm.
 Atom     1 has atomic number  6 and mass  12.00000

 Molecular mass:   201.07898 amu.
 Principal axes and moments of inertia in atomic units:
                           1         2         3
     Eigenvalues --  1584.969804220.967075550.29763
           X            1.00000  -0.00139  -0.00066
           Y            0.00138   0.99992  -0.01278
           Z            0.00067   0.01278   0.99992
 This molecule is an asymmetric top.
 Rotational symmetry number  1.
 Warning -- assumption of classical behavior for rotation
           may cause significant error
 Rotational temperatures (Kelvin)      0.05465     0.02052     0.01561
 Rotational constants (GHZ):           1.13866     0.42757     0.32516
 Zero-point vibrational energy     545277.1 (Joules/Mol)
                                  130.32436 (Kcal/Mol)
 Warning -- explicit consideration of  18 degrees of freedom as
           vibrations may cause significant error
 Vibrational temperatures:     49.00    71.88   106.73   134.60   160.05
          (Kelvin)            254.99   342.31   375.04   434.90   499.09
                              569.07   596.37   612.29   670.26   713.48
                              805.99   833.30   858.98   901.36   916.36
                              981.24  1006.31  1019.17  1030.62  1115.03
                             1135.78  1217.63  1232.12  1315.85  1341.79
                             1388.88  1433.10  1436.91  1466.22  1471.46
                             1476.94  1524.63  1539.45  1619.51  1674.95
                             1691.38  1722.90  1764.00  1785.22  1810.67
                             1858.76  1880.36  1929.05  1951.03  1981.57
                             2001.91  2132.08  2146.77  2172.32  2225.11
                             2334.80  2353.93  2364.40  2391.84  2543.94
                             2565.94  4399.37  4429.92  4452.70  4492.26
                             4586.84  4602.70  4617.35  4628.61  4703.37
                             5016.31  5292.46

 Zero-point correction=                           0.207685 (Hartree/Particle)
 Thermal correction to Energy=                    0.220327
 Thermal correction to Enthalpy=                  0.221271
 Thermal correction to Gibbs Free Energy=         0.167400
 Sum of electronic and zero-point Energies=           -668.963107
 Sum of electronic and thermal Energies=              -668.950466
 Sum of electronic and thermal Enthalpies=            -668.949521
 Sum of electronic and thermal Free Energies=         -669.003392

                     E (Thermal)             CV                S
                      KCal/Mol        Cal/Mol-Kelvin    Cal/Mol-Kelvin
 Total                  138.257             48.872            113.380
 Electronic               0.000              0.000              0.000
 Translational            0.889              2.981             41.800
 Rotational               0.889              2.981             31.985
 Vibrational            136.480             42.910             39.595
 Vibration     1          0.594              1.983              5.578
 Vibration     2          0.595              1.978              4.819
 Vibration     3          0.599              1.966              4.039
 Vibration     4          0.603              1.954              3.584
 Vibration     5          0.607              1.940              3.247
 Vibration     6          0.628              1.870              2.357
 Vibration     7          0.656              1.783              1.818
 Vibration     8          0.669              1.745              1.657
 Vibration     9          0.694              1.669              1.404
 Vibration    10          0.725              1.582              1.180
 Vibration    11          0.762              1.480              0.979
 Vibration    12          0.778              1.439              0.911
 Vibration    13          0.787              1.415              0.873
 Vibration    14          0.823              1.326              0.749
 Vibration    15          0.851              1.259              0.668
 Vibration    16          0.916              1.117              0.523
 Vibration    17          0.936              1.076              0.487
 Vibration    18          0.955              1.038              0.455

 Optimization completed.
    -- Stationary point found.
 Normal termination of Gaussian 16 at Thu Dec 10 16:59:26 2020.

 ----------------------------------------------------------------------
 # B3LYP/6-311++G(d,p) empiricaldispersion=gd3bj scf=xqc pop=npa geom=c
 heck
 ----------------------------------------------------------------------

 ---------------------------------------
 CID_121009118_JID_5694_Energie_neutraal
 ---------------------------------------
 Structure from the checkpoint file:  "JID_5694.chk"
 Charge =  0 Multiplicity = 1

 SCF Done:  E(RB3LYP) =  -669.359101960     A.U. after   15 cycles
 Normal termination of Gaussian 16 at Thu Dec 10 17:03:13 2020.

 ----------------------------------------------------------------------
 # B3LYP/6-311++G(d,p) empiricaldispersion=gd3bj scf=xqc pop=npa geom=c
 heck
 ----------------------------------------------------------------------

 -------------------------------------
 CID_121009118_JID_5694_Energie_kation
 -------------------------------------
 Structure from the checkpoint file:  "JID_5694.chk"
 Charge =  1 Multiplicity = 2

 SCF Done:  E(UB3LYP) =  -669.048215554     A.U. after   28 cycles
 Normal termination of Gaussian 16 at Thu Dec 10 17:14:23 2020.
 Gaussian 16:  ES64L-G16RevA.03 25-Dec-2016

 ----------------------------------------------------------------------
 # B3LYP/6-311++G(d,p) empiricaldispersion=gd3bj scf=xqc pop=npa geom=c
 heck
 ----------------------------------------------------------------------

 ------------------------------------
 CID_121009118_JID_5694_Energie_anion
 ------------------------------------
 Structure from the checkpoint file:  "JID_5694.chk"
 Charge = -1 Multiplicity = 2

                         Standard orientation:
 ---------------------------------------------------------------------
 Center     Atomic      Atomic             Coordinates (Angstroms)
 Number     Number       Type             X           Y           Z
 ---------------------------------------------------------------------
      1          6           0        0.527518   -2.145364   -0.096798
      2          6           0        2.048454   -2.196060   -0.263605
      3          6           0        2.501604   -0.749606   -0.119005
      4          8           0        3.676101   -0.397562   -0.124031
      5          6           0        1.301004    0.111027    0.012097
      6          6           0        0.176045   -0.667300   -0.014567
      7          6           0       -1.242943   -0.291059   -0.013625
      8          6           0       -1.708957    0.859109   -0.675175
      9          6           0       -3.069323    1.143110   -0.724180
     10          6           0       -3.991460    0.298834   -0.102358
     11          6           0       -3.544848   -0.846238    0.557890
     12          6           0       -2.186156   -1.146504    0.586531
     13          6           0        1.382272    1.591620    0.259105
     14          8           0        0.409282    2.279942    0.557071
     15          7           0        2.634526    2.105318    0.132150
     16          1           0       -0.017584   -2.620544   -0.919550
     17          1           0        0.205123   -2.655868    0.818945
     18          1           0        2.560371   -2.818134    0.476885
     19          1           0        2.349290   -2.563228   -1.250997
     20          1           0       -1.001010    1.526086   -1.145598
     21          1           0       -3.410487    2.032574   -1.245454
     22          1           0       -5.052186    0.531210   -0.134016
     23          1           0       -4.253706   -1.508704    1.045996
     24          1           0       -1.854097   -2.041750    1.101768
     25          1           0        3.430480    1.480227    0.029951
     26          1           0        2.759801    3.072455    0.394834
 ---------------------------------------------------------------------

 SCF Done:  E(UB3LYP) =  -669.393327306     A.U. after   23 cycles

 The electronic state is 2-A.
 Alpha  occ. eigenvalues --  -18.94972 -18.93514 -14.18030 -10.12403 -10.09456
 Alpha  occ. eigenvalues --  -10.04420 -10.04372 -10.04291 -10.03958 -10.03860
 Alpha  occ. eigenvalues --  -10.03766 -10.03627 -10.02979 -10.02705 -10.01608
 Alpha  occ. eigenvalues --   -0.89078  -0.88290  -0.75708  -0.72781  -0.70174
 Alpha  occ. eigenvalues --   -0.62519  -0.61404  -0.58864  -0.54281  -0.48491
 Alpha  occ. eigenvalues --   -0.46949  -0.46636  -0.41740  -0.41007  -0.38343
 Alpha  occ. eigenvalues --   -0.36083  -0.34381  -0.33596  -0.31694  -0.31390
 Alpha  occ. eigenvalues --   -0.29683  -0.29248  -0.27199  -0.26852  -0.26304
 Alpha  occ. eigenvalues --   -0.25830  -0.24785  -0.24123  -0.23193  -0.21664
 Alpha  occ. eigenvalues --   -0.20879  -0.20319  -0.15092  -0.13106  -0.12680
 Alpha  occ. eigenvalues --   -0.11469  -0.10341  -0.09759   0.02339
 Alpha virt. eigenvalues --    0.08392   0.09221   0.09928   0.10417   0.11041
 Alpha virt. eigenvalues --    0.11405   0.11740   0.12545   0.13005   0.13463
 Alpha virt. eigenvalues --    0.14062   0.14391   0.14531   0.15787   0.16517

  Beta  occ. eigenvalues --  -18.94730 -18.93471 -14.17995 -10.12349 -10.09284
  Beta  occ. eigenvalues --  -10.04495 -10.04410 -10.04305 -10.04015 -10.03891
  Beta  occ. eigenvalues --  -10.03542 -10.03459 -10.02818 -10.02046 -10.01571
  Beta  occ. eigenvalues --   -0.88838  -0.87988  -0.75619  -0.72404  -0.69767
  Beta  occ. eigenvalues --   -0.62155  -0.61194  -0.58591  -0.53731  -0.48120
  Beta  occ. eigenvalues --   -0.46798  -0.46407  -0.41363  -0.40920  -0.38119
  Beta  occ. eigenvalues --   -0.35812  -0.33978  -0.33315  -0.31556  -0.31223
  Beta  occ. eigenvalues --   -0.29546  -0.29179  -0.26750  -0.26594  -0.26053
  Beta  occ. eigenvalues --   -0.25275  -0.24586  -0.23753  -0.22737  -0.21009
  Beta  occ. eigenvalues --   -0.20457  -0.20047  -0.13699  -0.12765  -0.12146
  Beta  occ. eigenvalues --   -0.11019  -0.10020  -0.08709
  Beta virt. eigenvalues --    0.08351   0.08595   0.09209   0.09916   0.10401
  Beta virt. eigenvalues --    0.11133   0.11424   0.12029   0.12566   0.13669
  Beta virt. eigenvalues --    0.14054   0.14394   0.14890   0.14966   0.15954

 Mulliken charges and spin densities:
               1          2
     1  C   -0.565609  -0.038288
     2  C   -0.553061  -0.003626
     3  C   -0.384287   0.079897
     4  O   -0.416110   0.086997
     5  C    0.474630   0.031684
     6  C    0.691072   0.433760
     7  C    1.146331  -0.039657
     8  C   -0.662606   0.123464
     9  C   -0.411679  -0.046936
    10  C   -0.243025   0.175846
    11  C   -0.421814  -0.053949
    12  C   -0.245007   0.137294
    13  C   -0.263025   0.041863
    14  O   -0.381403   0.016878
    15  N   -0.396587   0.017766
    16  H    0.146852   0.014033
    17  H    0.066080   0.031161
    18  H    0.150497   0.002682
    19  H    0.139586   0.014130
    20  H    0.129791  -0.007615
    21  H    0.128416   0.003551
    22  H    0.099217  -0.013658
    23  H    0.121962   0.004116
    24  H    0.102504  -0.008596
    25  H    0.293215  -0.001929
    26  H    0.254060  -0.000868
 Sum of Mulliken charges =  -1.00000   1.00000

 Dipole moment (field-independent basis, Debye):
    X=             -1.5423    Y=             -2.0215    Z=             -0.4782  Tot=              2.5873
 Quadrupole moment (field-independent basis, Debye-Ang):
   XX=           -129.7519   YY=           -100.4307   ZZ=            -95.7527
   XY=              4.7808   XZ=              1.1639   YZ=             -3.9827

 Summary of Natural Population Analysis:

                                       Natural Population
                Natural  -----------------------------------------------
    Atom  No    Charge         Core      Valence    Rydberg      Total
 -----------------------------------------------------------------------
      C    1   -0.20600      0.99962     2.20037    0.00601     3.20600
      C    2   -0.22976      0.99961     2.22248    0.00768     3.22976
      C    3    0.29836      0.99962     1.68154    0.02048     2.70164
      O    4   -0.31293      0.99987     3.30506    0.00801     4.31293
      C    5   -0.13495      0.99933     2.12493    0.01069     3.13495
      C    6    0.18745      0.99948     1.80443    0.00864     2.81255
      C    7   -0.04461      0.99949     2.03589    0.00923     3.04461
      C    8   -0.03471      0.99953     2.02675    0.00843     3.03471
      C    9   -0.12801      0.99957     2.11915    0.00929     3.12801
      C   10   -0.06298      0.99957     2.05383    0.00957     3.06298
      C   11   -0.13375      0.99957     2.12458    0.00959     3.13375
      C   12   -0.05815      0.99954     2.05052    0.00809     3.05815
      C   13    0.33830      0.99966     1.64054    0.02149     2.66170
      O   14   -0.33613      0.99988     3.32921    0.00704     4.33613
      N   15   -0.40866      0.99970     2.90154    0.00741     3.90866
      H   16    0.10084      0.00000     0.39789    0.00127     0.39916
      H   17    0.10261      0.00000     0.39626    0.00113     0.39739
      H   18    0.10152      0.00000     0.39727    0.00121     0.39848
      H   19    0.10345      0.00000     0.39547    0.00109     0.39655
      H   20    0.10636      0.00000     0.39226    0.00138     0.39364
      H   21    0.09226      0.00000     0.40668    0.00106     0.40774
      H   22    0.08749      0.00000     0.41146    0.00104     0.41251
      H   23    0.09086      0.00000     0.40805    0.00110     0.40914
      H   24    0.09157      0.00000     0.40701    0.00142     0.40843
      H   25    0.20891      0.00000     0.28922    0.00187     0.29109
      H   26    0.18065      0.00000     0.31610    0.00325     0.31935
 =======================================================================
   * Total *   -0.00000     14.99405    37.83848    0.16747    53.00000

 Normal termination of Gaussian 16 at Thu Dec 10 17:22:31 2020.
