 Gaussian 16, Revision A.03,

 -----------------------------------------------------------
 # opt freq B3LYP/6-31G(d) empiricaldispersion=gd3bj scf=xqc
 -----------------------------------------------------------

 -------------------------------
 CID_107558596_JID_8552_neutraal
 -------------------------------
 Symbolic Z-matrix:
 Charge =  0 Multiplicity = 1

 SCF Done:  E(RB3LYP) =  -1130.88198600     A.U. after   14 cycles
 SCF Done:  E(RB3LYP) =  -1130.89045155     A.U. after   13 cycles
 SCF Done:  E(RB3LYP) =  -1130.88984677     A.U. after   14 cycles
 SCF Done:  E(RB3LYP) =  -1130.89134706     A.U. after   12 cycles
 SCF Done:  E(RB3LYP) =  -1130.89237284     A.U. after   12 cycles
 SCF Done:  E(RB3LYP) =  -1130.89263752     A.U. after   11 cycles
 SCF Done:  E(RB3LYP) =  -1130.89271146     A.U. after   11 cycles
 SCF Done:  E(RB3LYP) =  -1130.89273278     A.U. after   10 cycles
 SCF Done:  E(RB3LYP) =  -1130.89273721     A.U. after    8 cycles
 SCF Done:  E(RB3LYP) =  -1130.89273816     A.U. after    8 cycles
 SCF Done:  E(RB3LYP) =  -1130.89273838     A.U. after    8 cycles
 SCF Done:  E(RB3LYP) =  -1130.89273851     A.U. after    8 cycles
 SCF Done:  E(RB3LYP) =  -1130.89273865     A.U. after    7 cycles
 SCF Done:  E(RB3LYP) =  -1130.89273890     A.U. after    7 cycles
 Optimization completed.
    -- Stationary point found.
 Normal termination of Gaussian 16 at Fri Dec 11 21:07:31 2020.

 --------------------------------------------------------------------
 #N Geom=AllCheck Guess=TCheck SCRF=Check GenChk RB3LYP/6-31G(d) Freq
 --------------------------------------------------------------------

 Structure from the checkpoint file:  "JID_8552.chk"
 -------------------------------
 CID_107558596_JID_8552_neutraal
 -------------------------------
 Charge =  0 Multiplicity = 1

 SCF Done:  E(RB3LYP) =  -1130.89273890     A.U. after    1 cycles

  Exact polarizability: 213.361  -7.558 153.061  -2.931  -9.566 160.534
 Approx polarizability: 280.736  -6.867 233.639  -4.986 -34.216 259.107

                      1                      2                      3
                      A                      A                      A
 Frequencies --     12.7992                18.7073                24.7825
 Red. masses --      4.4315                 3.4698                 3.7084
 Frc consts  --      0.0004                 0.0007                 0.0013
 IR Inten    --      0.0125                 0.0349                 0.1938

                      4                      5                      6
                      A                      A                      A
 Frequencies --     41.6695                60.5063                69.7526
 Red. masses --      4.3784                 4.1412                 3.8823
 Frc consts  --      0.0045                 0.0089                 0.0111
 IR Inten    --      0.6499                 0.0454                 0.5763

                      7                      8                      9
                      A                      A                      A
 Frequencies --     90.0372               107.6792               140.2497
 Red. masses --      3.3188                 2.9980                 2.4358
 Frc consts  --      0.0159                 0.0205                 0.0282
 IR Inten    --      1.1385                 1.4799                 1.8394

                     10                     11                     12
                      A                      A                      A
 Frequencies --    162.8862               175.6427               194.8540
 Red. masses --      2.4410                 2.0266                 3.1165
 Frc consts  --      0.0382                 0.0368                 0.0697
 IR Inten    --      0.6616                 0.0649                 4.6517

                     13                     14                     15
                      A                      A                      A
 Frequencies --    207.2473               245.2115               246.9890
 Red. masses --      3.0426                 1.4836                 1.2498
 Frc consts  --      0.0770                 0.0526                 0.0449
 IR Inten    --      5.1683                 5.6691                 1.2281

                     16                     17                     18
                      A                      A                      A
 Frequencies --    292.6037               305.2797               320.9606
 Red. masses --      2.2864                 2.0883                 3.8050
 Frc consts  --      0.1153                 0.1147                 0.2309
 IR Inten    --      0.8329                 1.2123                 3.8334

                     19                     20                     21
                      A                      A                      A
 Frequencies --    331.2613               373.8192               388.1171
 Red. masses --      2.6160                 2.3538                 2.2270
 Frc consts  --      0.1691                 0.1938                 0.1977
 IR Inten    --      1.7011                 2.9499                 1.4565

                     22                     23                     24
                      A                      A                      A
 Frequencies --    419.1052               424.9704               488.8010
 Red. masses --      2.7056                 2.3978                 5.2468
 Frc consts  --      0.2800                 0.2551                 0.7386
 IR Inten    --     12.3097                20.2120                 4.4303

                     25                     26                     27
                      A                      A                      A
 Frequencies --    506.6787               562.6908               591.2925
 Red. masses --      3.8805                 3.4047                 3.3644
 Frc consts  --      0.5869                 0.6351                 0.6930
 IR Inten    --      4.7520                 2.4064                 0.1091

                     28                     29                     30
                      A                      A                      A
 Frequencies --    616.3307               636.5210               655.2886
 Red. masses --      2.8760                 2.7265                 2.9473
 Frc consts  --      0.6437                 0.6508                 0.7457
 IR Inten    --      4.0863                 2.2192                25.1850

                     31                     32                     33
                      A                      A                      A
 Frequencies --    668.0551               674.0616               758.6774
 Red. masses --      5.7290                 5.7872                 2.0407
 Frc consts  --      1.5064                 1.5492                 0.6921
 IR Inten    --      5.9190                 4.8610                 2.6059

                     34                     35                     36
                      A                      A                      A
 Frequencies --    763.2387               793.5012               810.5035
 Red. masses --      4.1501                 1.7557                 1.7815
 Frc consts  --      1.4244                 0.6513                 0.6895
 IR Inten    --      5.7056               180.5603                 5.4942

                     37                     38                     39
                      A                      A                      A
 Frequencies --    819.4096               858.1202               885.6935
 Red. masses --      1.3503                 1.9121                 1.4600
 Frc consts  --      0.5342                 0.8296                 0.6748
 IR Inten    --     28.0524                 3.0508                 3.5543

                     40                     41                     42
                      A                      A                      A
 Frequencies --    904.0191               923.7661               930.7598
 Red. masses --      1.9824                 2.3413                 2.1757
 Frc consts  --      0.9546                 1.1771                 1.1105
 IR Inten    --     17.5945                 5.7150                 3.6745

                     43                     44                     45
                      A                      A                      A
 Frequencies --    939.9231               951.5769               987.4556
 Red. masses --      2.5557                 2.1337                 1.5700
 Frc consts  --      1.3303                 1.1383                 0.9019
 IR Inten    --      4.4915                 3.0035                 2.8771

                     46                     47                     48
                      A                      A                      A
 Frequencies --    999.5821              1021.2669              1040.9423
 Red. masses --      2.2449                 1.8392                 2.4943
 Frc consts  --      1.3216                 1.1302                 1.5924
 IR Inten    --     11.0408                10.6926                 2.0655

                     49                     50                     51
                      A                      A                      A
 Frequencies --   1050.1269              1065.5852              1090.8632
 Red. masses --      1.8501                 1.4983                 2.1587
 Frc consts  --      1.2021                 1.0023                 1.5135
 IR Inten    --     14.0796                10.5454                82.6488

                     52                     53                     54
                      A                      A                      A
 Frequencies --   1106.7630              1118.8485              1131.7231
 Red. masses --      1.8759                 2.1771                 2.4240
 Frc consts  --      1.3538                 1.6057                 1.8292
 IR Inten    --      9.1604                19.7914                54.6736

                     55                     56                     57
                      A                      A                      A
 Frequencies --   1153.9058              1156.5654              1157.0410
 Red. masses --      2.9990                 1.8563                 1.5298
 Frc consts  --      2.3527                 1.4630                 1.2066
 IR Inten    --     29.6998                10.2371                17.3585

                     58                     59                     60
                      A                      A                      A
 Frequencies --   1174.9266              1189.6906              1192.7063
 Red. masses --      1.8363                 3.1286                 1.9902
 Frc consts  --      1.4935                 2.6090                 1.6681
 IR Inten    --     22.4604                27.6157                22.0467

                     61                     62                     63
                      A                      A                      A
 Frequencies --   1194.4344              1233.3214              1249.9321
 Red. masses --      2.4626                 1.5933                 1.5454
 Frc consts  --      2.0700                 1.4279                 1.4226
 IR Inten    --     14.5661                16.4984                 6.5452

                     64                     65                     66
                      A                      A                      A
 Frequencies --   1254.2568              1261.0511              1281.7333
 Red. masses --      1.4926                 1.3434                 1.5459
 Frc consts  --      1.3835                 1.2587                 1.4963
 IR Inten    --     18.9972                11.1860                11.1949

                     67                     68                     69
                      A                      A                      A
 Frequencies --   1297.1121              1308.5722              1324.9198
 Red. masses --      1.4640                 1.3057                 1.3956
 Frc consts  --      1.4513                 1.3173                 1.4434
 IR Inten    --     14.2596                 6.4844                 0.4011

                     70                     71                     72
                      A                      A                      A
 Frequencies --   1333.1747              1338.3143              1342.4417
 Red. masses --      1.2644                 1.2347                 1.3056
 Frc consts  --      1.3240                 1.3030                 1.3862
 IR Inten    --      5.0596                 2.5664                 0.8199

                     73                     74                     75
                      A                      A                      A
 Frequencies --   1379.1198              1379.8657              1383.5378
 Red. masses --      1.3616                 1.3224                 1.5979
 Frc consts  --      1.5258                 1.4835                 1.8021
 IR Inten    --     15.6703                 0.5069                33.2451

                     76                     77                     78
                      A                      A                      A
 Frequencies --   1399.8805              1405.6751              1408.9966
 Red. masses --      1.5278                 1.4485                 1.3620
 Frc consts  --      1.7640                 1.6863                 1.5931
 IR Inten    --      3.5366                19.1552                15.7846

                     79                     80                     81
                      A                      A                      A
 Frequencies --   1426.7247              1452.6399              1479.2388
 Red. masses --      1.3538                 1.3134                 1.1631
 Frc consts  --      1.6236                 1.6329                 1.4995
 IR Inten    --     12.2792                 4.2142                 0.7181

                     82                     83                     84
                      A                      A                      A
 Frequencies --   1483.0287              1495.5741              1508.1109
 Red. masses --      1.1915                 1.0964                 1.0837
 Frc consts  --      1.5439                 1.4449                 1.4523
 IR Inten    --      1.5942                 1.6828                 3.9227

                     85                     86                     87
                      A                      A                      A
 Frequencies --   1512.2103              1514.8281              1519.4095
 Red. masses --      1.1611                 1.0936                 1.0740
 Frc consts  --      1.5644                 1.4785                 1.4608
 IR Inten    --      7.9777                 5.4180                 3.5602

                     88                     89                     90
                      A                      A                      A
 Frequencies --   1520.9052              1523.8742              1530.7930
 Red. masses --      1.0644                 1.0703                 1.0679
 Frc consts  --      1.4506                 1.4644                 1.4744
 IR Inten    --      5.5509                 3.3945                 5.4994

                     91                     92                     93
                      A                      A                      A
 Frequencies --   1533.6367              1540.7722              1546.2572
 Red. masses --      1.1044                 1.0900                 4.1716
 Frc consts  --      1.5304                 1.5246                 5.8765
 IR Inten    --      3.1528                 5.0265                 4.4084

                     94                     95                     96
                      A                      A                      A
 Frequencies --   1549.5231              1554.0857              1618.5164
 Red. masses --      1.1272                 1.1069                 5.6637
 Frc consts  --      1.5946                 1.5751                 8.7414
 IR Inten    --      8.5099                 6.9524                 1.7269

                     97                     98                     99
                      A                      A                      A
 Frequencies --   2889.6851              2918.9587              2940.0494
 Red. masses --      1.0815                 1.0734                 1.0623
 Frc consts  --      5.3208                 5.3884                 5.4102
 IR Inten    --     57.7088                79.8084               148.8948

                    100                    101                    102
                      A                      A                      A
 Frequencies --   2992.1324              3032.5686              3046.4067
 Red. masses --      1.0523                 1.0644                 1.0592
 Frc consts  --      5.5508                 5.7675                 5.7917
 IR Inten    --     52.2849                18.5759                85.3518

                    103                    104                    105
                      A                      A                      A
 Frequencies --   3047.3099              3051.6522              3071.8147
 Red. masses --      1.0593                 1.0603                 1.0713
 Frc consts  --      5.7956                 5.8174                 5.9560
 IR Inten    --     40.6444                 2.0246                14.6452

                    106                    107                    108
                      A                      A                      A
 Frequencies --   3074.1722              3074.7703              3080.6510
 Red. masses --      1.0830                 1.0987                 1.0737
 Frc consts  --      6.0304                 6.1201                 6.0036
 IR Inten    --     52.6797                 6.6516                45.2734

                    109                    110                    111
                      A                      A                      A
 Frequencies --   3083.1851              3087.6544              3090.4216
 Red. masses --      1.0712                 1.0737                 1.1056
 Frc consts  --      5.9998                 6.0311                 6.2213
 IR Inten    --     65.0092                16.6145                17.9916

                    112                    113                    114
                      A                      A                      A
 Frequencies --   3098.0347              3100.6030              3116.3928
 Red. masses --      1.1054                 1.1037                 1.1031
 Frc consts  --      6.2508                 6.2514                 6.3122
 IR Inten    --      6.6213                45.0961                41.1765

                    115                    116                    117
                      A                      A                      A
 Frequencies --   3121.1583              3125.5837              3151.3408
 Red. masses --      1.1014                 1.1032                 1.0996
 Frc consts  --      6.3216                 6.3497                 6.4336
 IR Inten    --     31.0249                26.0231                18.4523

                    118                    119                    120
                      A                      A                      A
 Frequencies --   3204.0866              3218.9361              3489.9876
 Red. masses --      1.0890                 1.0967                 1.0740
 Frc consts  --      6.5868                 6.6953                 7.7074
 IR Inten    --     13.4968                 9.1873                 0.5210

 - Thermochemistry -
 -------------------
 Temperature   298.150 Kelvin.  Pressure   1.00000 Atm.
 Atom     1 has atomic number  6 and mass  12.00000

 Molecular mass:   268.16094 amu.
 Principal axes and moments of inertia in atomic units:
                           1         2         3
     Eigenvalues --  2262.90435********************
           X            0.99997  -0.00696  -0.00310
           Y            0.00727   0.99337   0.11472
           Z            0.00228  -0.11474   0.99339
 This molecule is an asymmetric top.
 Rotational symmetry number  1.
 Warning -- assumption of classical behavior for rotation
           may cause significant error
 Rotational temperatures (Kelvin)      0.03828     0.00813     0.00805
 Rotational constants (GHZ):           0.79753     0.16950     0.16784
 Zero-point vibrational energy     976308.6 (Joules/Mol)
                                  233.34336 (Kcal/Mol)
 Warning -- explicit consideration of  28 degrees of freedom as
           vibrations may cause significant error
 Vibrational temperatures:     18.42    26.92    35.66    59.95    87.05
          (Kelvin)            100.36   129.54   154.93   201.79   234.36
                              252.71   280.35   298.18   352.80   355.36
                              420.99   439.23   461.79   476.61   537.84
                              558.41   603.00   611.44   703.28   729.00
                              809.59   850.74   886.76   915.81   942.81
                              961.18   969.82  1091.57  1098.13  1141.67
                             1166.13  1178.95  1234.64  1274.32  1300.68
                             1329.09  1339.16  1352.34  1369.11  1420.73
                             1438.18  1469.38  1497.68  1510.90  1533.14
                             1569.51  1592.39  1609.77  1628.30  1660.21
                             1664.04  1664.72  1690.46  1711.70  1716.04
                             1718.52  1774.47  1798.37  1804.60  1814.37
                             1844.13  1866.26  1882.74  1906.26  1918.14
                             1925.54  1931.47  1984.25  1985.32  1990.60
                             2014.12  2022.45  2027.23  2052.74  2090.02
                             2128.29  2133.75  2151.80  2169.84  2175.73
                             2179.50  2186.09  2188.24  2192.52  2202.47
                             2206.56  2216.83  2224.72  2229.42  2235.98
                             2328.68  4157.61  4199.73  4230.08  4305.01
                             4363.19  4383.10  4384.40  4390.65  4419.66
                             4423.05  4423.91  4432.37  4436.02  4442.45
                             4446.43  4457.38  4461.08  4483.79  4490.65
                             4497.02  4534.08  4609.97  4631.33  5021.31

 Zero-point correction=                           0.371856 (Hartree/Particle)
 Thermal correction to Energy=                    0.391093
 Thermal correction to Enthalpy=                  0.392037
 Thermal correction to Gibbs Free Energy=         0.320575
 Sum of electronic and zero-point Energies=          -1130.520883
 Sum of electronic and thermal Energies=             -1130.501646
 Sum of electronic and thermal Enthalpies=           -1130.500702
 Sum of electronic and thermal Free Energies=        -1130.572164

                     E (Thermal)             CV                S
                      KCal/Mol        Cal/Mol-Kelvin    Cal/Mol-Kelvin
 Total                  245.415             71.484            150.406
 Electronic               0.000              0.000              0.000
 Translational            0.889              2.981             42.658
 Rotational               0.889              2.981             33.915
 Vibrational            243.637             65.523             73.832
 Vibration     1          0.593              1.987              7.521
 Vibration     2          0.593              1.986              6.767
 Vibration     3          0.593              1.985              6.209
 Vibration     4          0.594              1.981              5.178
 Vibration     5          0.597              1.973              4.441
 Vibration     6          0.598              1.969              4.160
 Vibration     7          0.602              1.956              3.659
 Vibration     8          0.606              1.943              3.310
 Vibration     9          0.615              1.913              2.800
 Vibration    10          0.623              1.888              2.516
 Vibration    11          0.628              1.872              2.374
 Vibration    12          0.636              1.847              2.181
 Vibration    13          0.641              1.830              2.068
 Vibration    14          0.660              1.771              1.765
 Vibration    15          0.661              1.768              1.752
 Vibration    16          0.688              1.688              1.459
 Vibration    17          0.696              1.664              1.388
 Vibration    18          0.706              1.633              1.305
 Vibration    19          0.714              1.613              1.254
 Vibration    20          0.745              1.526              1.064
 Vibration    21          0.756              1.496              1.007
 Vibration    22          0.782              1.429              0.895
 Vibration    23          0.787              1.416              0.875
 Vibration    24          0.845              1.275              0.687
 Vibration    25          0.862              1.235              0.642
 Vibration    26          0.918              1.112              0.518
 Vibration    27          0.949              1.050              0.465
 Vibration    28          0.976              0.997              0.422

                           ! Non-Optimized Parameters !
 Normal termination of Gaussian 16 at Fri Dec 11 21:26:10 2020.

 ----------------------------------------------------------------------
 # B3LYP/6-311++G(d,p) empiricaldispersion=gd3bj scf=xqc pop=npa geom=c
 heck
 ----------------------------------------------------------------------

 ---------------------------------------
 CID_107558596_JID_8552_Energie_neutraal
 ---------------------------------------
 Structure from the checkpoint file:  "JID_8552.chk"
 Charge =  0 Multiplicity = 1

 SCF Done:  E(RB3LYP) =  -1131.12331531     A.U. after   15 cycles
 Normal termination of Gaussian 16 at Fri Dec 11 21:34:23 2020.

 ----------------------------------------------------------------------
 # B3LYP/6-311++G(d,p) empiricaldispersion=gd3bj scf=xqc pop=npa geom=c
 heck
 ----------------------------------------------------------------------

 -------------------------------------
 CID_107558596_JID_8552_Energie_kation
 -------------------------------------
 Structure from the checkpoint file:  "JID_8552.chk"
 Charge =  1 Multiplicity = 2

 SCF Done:  E(UB3LYP) =  -1130.84560845     A.U. after   29 cycles
 Normal termination of Gaussian 16 at Fri Dec 11 21:55:42 2020.
 Gaussian 16:  ES64L-G16RevA.03 25-Dec-2016

 ----------------------------------------------------------------------
 # B3LYP/6-311++G(d,p) empiricaldispersion=gd3bj scf=xqc pop=npa geom=c
 heck
 ----------------------------------------------------------------------

 ------------------------------------
 CID_107558596_JID_8552_Energie_anion
 ------------------------------------
 Structure from the checkpoint file:  "JID_8552.chk"
 Charge = -1 Multiplicity = 2

                         Standard orientation:
 ---------------------------------------------------------------------
 Center     Atomic      Atomic             Coordinates (Angstroms)
 Number     Number       Type             X           Y           Z
 ---------------------------------------------------------------------
      1          6           0       -4.639222    1.916166    0.650512
      2          7           0       -5.144825    0.548139    0.714637
      3          6           0       -4.776294   -0.269733   -0.445223
      4          6           0       -3.298834   -0.397293   -0.719218
      5          6           0       -2.555399    0.218359   -1.690400
      6          6           0       -1.154580   -0.044996   -1.586758
      7          6           0       -0.831545   -0.863498   -0.538305
      8         16           0       -2.265551   -1.316349    0.355112
      9          6           0        0.526252   -1.342531   -0.123629
     10          8           0        0.829379   -1.059431    1.240484
     11          6           0        0.970192    0.332341    1.530933
     12          6           0        2.402315    0.719585    1.899523
     13          6           0        3.466796    0.505507    0.812598
     14          6           0        3.939980   -0.957777    0.638718
     15          6           0        4.223644   -1.110187   -0.878291
     16          6           0        4.009785    0.302904   -1.439854
     17          7           0        3.021660    0.888010   -0.535375
     18          6           0        2.845250    2.315266   -0.723199
     19          1           0       -5.095151    2.423421   -0.208468
     20          1           0       -3.544712    1.997825    0.544465
     21          1           0       -4.944430    2.451558    1.555070
     22          1           0       -4.790586    0.099886    1.558072
     23          1           0       -5.227646   -1.259200   -0.306391
     24          1           0       -5.245603    0.174320   -1.332139
     25          1           0       -2.999175    0.851211   -2.452491
     26          1           0       -0.405682    0.358901   -2.260507
     27          1           0        0.605278   -2.432039   -0.206302
     28          1           0        1.267867   -0.880183   -0.786405
     29          1           0        0.620466    0.928481    0.681555
     30          1           0        0.312315    0.556929    2.379972
     31          1           0        2.380210    1.778096    2.194518
     32          1           0        2.711535    0.162872    2.792849
     33          1           0        4.348118    1.119974    1.091143
     34          1           0        3.163467   -1.647779    0.971293
     35          1           0        4.830462   -1.142598    1.247255
     36          1           0        3.516124   -1.810006   -1.333389
     37          1           0        5.230986   -1.480580   -1.089079
     38          1           0        3.641264    0.316504   -2.471802
     39          1           0        4.959947    0.873935   -1.417666
     40          1           0        2.065612    2.694230   -0.055278
     41          1           0        3.773545    2.887740   -0.527978
     42          1           0        2.531676    2.515807   -1.753241
 ---------------------------------------------------------------------

 SCF Done:  E(UB3LYP) =  -1131.11038695     A.U. after   33 cycles
 SCF Done:  E(UB3LYP) =  -1131.11038695     a.u. after    1 cycles

 The electronic state is 2-A.
 Alpha  occ. eigenvalues --  -88.77013 -19.02324 -14.21435 -14.20686 -10.12462
 Alpha  occ. eigenvalues --  -10.11796 -10.11095 -10.10003 -10.09795 -10.09627
 Alpha  occ. eigenvalues --  -10.09449 -10.09441 -10.08519 -10.07537 -10.07438
 Alpha  occ. eigenvalues --  -10.07415 -10.06964 -10.06787  -7.85651  -5.81934
 Alpha  occ. eigenvalues --   -5.81578  -5.81254  -0.93424  -0.83999  -0.82207
 Alpha  occ. eigenvalues --   -0.77694  -0.69116  -0.68306  -0.66482  -0.63673
 Alpha  occ. eigenvalues --   -0.62324  -0.60365  -0.57802  -0.56952  -0.53908
 Alpha  occ. eigenvalues --   -0.51250  -0.48892  -0.45938  -0.45236  -0.43828
 Alpha  occ. eigenvalues --   -0.41012  -0.40302  -0.39690  -0.39357  -0.38416
 Alpha  occ. eigenvalues --   -0.36453  -0.36387  -0.36029  -0.33665  -0.33505
 Alpha  occ. eigenvalues --   -0.32593  -0.31542  -0.31263  -0.30770  -0.29467
 Alpha  occ. eigenvalues --   -0.28820  -0.28659  -0.28056  -0.27544  -0.26643
 Alpha  occ. eigenvalues --   -0.26357  -0.25941  -0.24890  -0.24290  -0.24035
 Alpha  occ. eigenvalues --   -0.23152  -0.22690  -0.21571  -0.16260  -0.15694
 Alpha  occ. eigenvalues --   -0.14734  -0.13187  -0.12631   0.04347
 Alpha virt. eigenvalues --    0.05884   0.06170   0.07050   0.07302   0.07851
 Alpha virt. eigenvalues --    0.08194   0.08292   0.09407   0.09628   0.09772
 Alpha virt. eigenvalues --    0.10138   0.10405   0.10800   0.11063   0.11837

  Beta  occ. eigenvalues --  -88.77005 -19.02307 -14.21417 -14.20672 -10.12468
  Beta  occ. eigenvalues --  -10.11802 -10.11088 -10.09994 -10.09688 -10.09533
  Beta  occ. eigenvalues --  -10.09433 -10.09419 -10.08482 -10.07534 -10.07429
  Beta  occ. eigenvalues --  -10.07403 -10.06951 -10.06782  -7.85643  -5.81932
  Beta  occ. eigenvalues --   -5.81576  -5.81221  -0.93386  -0.83977  -0.82162
  Beta  occ. eigenvalues --   -0.77596  -0.69083  -0.68268  -0.66374  -0.63615
  Beta  occ. eigenvalues --   -0.62287  -0.60318  -0.57745  -0.56900  -0.53869
  Beta  occ. eigenvalues --   -0.51212  -0.48858  -0.45880  -0.45156  -0.43720
  Beta  occ. eigenvalues --   -0.40964  -0.40266  -0.39637  -0.39303  -0.38362
  Beta  occ. eigenvalues --   -0.36415  -0.36346  -0.35984  -0.33633  -0.33472
  Beta  occ. eigenvalues --   -0.32553  -0.31504  -0.31213  -0.30726  -0.29437
  Beta  occ. eigenvalues --   -0.28765  -0.28591  -0.28017  -0.27508  -0.26601
  Beta  occ. eigenvalues --   -0.26197  -0.25909  -0.24861  -0.24241  -0.23982
  Beta  occ. eigenvalues --   -0.23120  -0.22670  -0.21535  -0.16191  -0.15537
  Beta  occ. eigenvalues --   -0.14610  -0.12794  -0.12533
  Beta virt. eigenvalues --    0.06181   0.06591   0.06802   0.07491   0.07854
  Beta virt. eigenvalues --    0.08047   0.08349   0.08544   0.09689   0.09914
  Beta virt. eigenvalues --    0.10122   0.10350   0.10583   0.10919   0.11178

 Mulliken charges and spin densities:
               1          2
     1  C    0.142096  -0.606147
     2  N   -0.159178   0.060671
     3  C   -0.726442  -0.001648
     4  C    0.224687   0.029739
     5  C   -0.047692   0.013136
     6  C   -0.469580  -0.228257
     7  C    1.595783  -0.015860
     8  S   -0.227546   0.234281
     9  C   -1.321901  -0.125131
    10  O    0.010401   0.004370
    11  C   -0.917341   0.619447
    12  C    0.629892  -1.344575
    13  C   -0.330632   0.607345
    14  C   -0.204351  -0.378012
    15  C   -0.392659   0.172008
    16  C    0.557187  -0.948544
    17  N    0.012336   0.094592
    18  C    0.733073  -1.117611
    19  H   -0.020474   0.169439
    20  H   -0.182470   0.351197
    21  H   -0.072174   0.200129
    22  H    0.210834   0.012150
    23  H    0.181822  -0.003018
    24  H    0.144611   0.006686
    25  H   -0.071387   0.238945
    26  H   -0.030356   0.173413
    27  H    0.149804  -0.001230
    28  H    0.378827  -0.148268
    29  H    0.719795  -0.589108
    30  H   -0.176400   0.344995
    31  H   -0.099375   0.275087
    32  H    0.113905   0.051821
    33  H   -0.193355   0.377368
    34  H    0.124662   0.052273
    35  H   -0.001483   0.142390
    36  H    0.126773   0.001073
    37  H   -0.191051   0.360520
    38  H   -0.149494   0.305415
    39  H   -0.140310   0.265414
    40  H   -0.474706   0.614697
    41  H   -0.204309   0.326194
    42  H   -0.251821   0.402615
 Sum of Mulliken charges =  -1.00000   1.00000

 Dipole moment (field-independent basis, Debye):
    X=             -3.4504    Y=             -6.0766    Z=              0.2038  Tot=              6.9908
 Quadrupole moment (field-independent basis, Debye-Ang):
   XX=           -214.8535   YY=           -164.6975   ZZ=           -154.4320
   XY=             -3.9639   XZ=              6.3054   YZ=              1.9061

 Summary of Natural Population Analysis:

                                       Natural Population
                Natural  -----------------------------------------------
    Atom  No    Charge         Core      Valence    Rydberg      Total
 -----------------------------------------------------------------------
      C    1   -0.18475      0.99966     2.17621    0.00888     3.18475
      N    2   -0.33509      0.99977     2.82363    0.01169     3.83509
      C    3   -0.10387      0.99957     2.09129    0.01301     3.10387
      C    4   -0.09236      0.99949     2.08101    0.01186     3.09236
      C    5   -0.12960      0.99946     2.11904    0.01110     3.12960
      C    6   -0.12366      0.99946     2.11289    0.01131     3.12366
      C    7   -0.09663      0.99949     2.08571    0.01143     3.09663
      S    8    0.19653      4.99936     2.78427    0.01984     7.80347
      C    9   -0.02985      0.99949     2.01768    0.01268     3.02985
      O   10   -0.30452      0.99989     3.29650    0.00813     4.30452
      C   11   -0.01395      0.99956     2.00057    0.01382     3.01395
      C   12   -0.20323      0.99960     2.19389    0.00974     3.20323
      C   13   -0.00175      0.99959     1.98862    0.01354     3.00175
      C   14   -0.19615      0.99961     2.18827    0.00827     3.19615
      C   15   -0.19468      0.99963     2.18753    0.00751     3.19468
      C   16   -0.08097      0.99962     2.07050    0.01085     3.08097
      N   17   -0.29117      0.99970     2.77777    0.01370     3.79117
      C   18   -0.17586      0.99964     2.16728    0.00894     3.17586
      H   19    0.08913      0.00000     0.40982    0.00106     0.41087
      H   20    0.09060      0.00000     0.40773    0.00167     0.40940
      H   21    0.09353      0.00000     0.40555    0.00091     0.40647
      H   22    0.17096      0.00000     0.32705    0.00199     0.32904
      H   23    0.09729      0.00000     0.40170    0.00101     0.40271
      H   24    0.09700      0.00000     0.40191    0.00109     0.40300
      H   25    0.10500      0.00000     0.39398    0.00102     0.39500
      H   26    0.10905      0.00000     0.38960    0.00135     0.39095
      H   27    0.09187      0.00000     0.40708    0.00105     0.40813
      H   28    0.10044      0.00000     0.39694    0.00263     0.39956
      H   29    0.09109      0.00000     0.40649    0.00242     0.40891
      H   30    0.08734      0.00000     0.41151    0.00115     0.41266
      H   31    0.10200      0.00000     0.39690    0.00110     0.39800
      H   32    0.09949      0.00000     0.39956    0.00095     0.40051
      H   33    0.08272      0.00000     0.41497    0.00231     0.41728
      H   34    0.10733      0.00000     0.39122    0.00145     0.39267
      H   35    0.09730      0.00000     0.40182    0.00088     0.40270
      H   36    0.09587      0.00000     0.40306    0.00107     0.40413
      H   37    0.09854      0.00000     0.40057    0.00089     0.40146
      H   38    0.09624      0.00000     0.40265    0.00112     0.40376
      H   39    0.08057      0.00000     0.41767    0.00176     0.41943
      H   40    0.09732      0.00000     0.40098    0.00169     0.40268
      H   41    0.08265      0.00000     0.41568    0.00167     0.41735
      H   42    0.09826      0.00000     0.40026    0.00149     0.40174
 =======================================================================
   * Total *    0.00000     21.99259    50.76738    0.24003    73.00000

 Normal termination of Gaussian 16 at Fri Dec 11 22:21:53 2020.
