 Gaussian 16, Revision A.03,

 -----------------------------------------------------------
 # opt freq B3LYP/6-31G(d) empiricaldispersion=gd3bj scf=xqc
 -----------------------------------------------------------

 ------------------------------
 CID_63230739_JID_7531_neutraal
 ------------------------------
 Symbolic Z-matrix:
 Charge =  0 Multiplicity = 1

 SCF Done:  E(RB3LYP) =  -695.620995347     A.U. after   14 cycles
 SCF Done:  E(RB3LYP) =  -695.626949374     A.U. after   12 cycles
 SCF Done:  E(RB3LYP) =  -695.624064767     A.U. after   12 cycles
 SCF Done:  E(RB3LYP) =  -695.624986720     A.U. after   12 cycles
 SCF Done:  E(RB3LYP) =  -695.627695562     A.U. after    9 cycles
 SCF Done:  E(RB3LYP) =  -695.628128087     A.U. after   11 cycles
 SCF Done:  E(RB3LYP) =  -695.628221644     A.U. after   10 cycles
 SCF Done:  E(RB3LYP) =  -695.628250553     A.U. after   10 cycles
 SCF Done:  E(RB3LYP) =  -695.628278330     A.U. after   10 cycles
 SCF Done:  E(RB3LYP) =  -695.628298233     A.U. after   10 cycles
 SCF Done:  E(RB3LYP) =  -695.628312483     A.U. after    8 cycles
 SCF Done:  E(RB3LYP) =  -695.628312803     A.U. after    7 cycles
 SCF Done:  E(RB3LYP) =  -695.628312922     A.U. after    7 cycles
 SCF Done:  E(RB3LYP) =  -695.628312962     A.U. after    6 cycles
 SCF Done:  E(RB3LYP) =  -695.628312991     A.U. after    6 cycles
 SCF Done:  E(RB3LYP) =  -695.628313011     A.U. after    6 cycles
 Optimization completed.
    -- Stationary point found.
 Normal termination of Gaussian 16 at Sun Dec 13 12:38:24 2020.

 --------------------------------------------------------------------
 #N Geom=AllCheck Guess=TCheck SCRF=Check GenChk RB3LYP/6-31G(d) Freq
 --------------------------------------------------------------------

 Structure from the checkpoint file:  "JID_7531.chk"
 ------------------------------
 CID_63230739_JID_7531_neutraal
 ------------------------------
 Charge =  0 Multiplicity = 1

 SCF Done:  E(RB3LYP) =  -695.628313011     A.U. after    1 cycles

  Exact polarizability: 219.931  -7.003 177.436   0.424  11.034 115.778
 Approx polarizability: 302.469 -11.535 268.475  -1.489  23.667 171.064

                      1                      2                      3
                      A                      A                      A
 Frequencies --     30.6293                46.0390                54.1048
 Red. masses --      3.4719                 2.6240                 4.0118
 Frc consts  --      0.0019                 0.0033                 0.0069
 IR Inten    --      0.3244                 0.0104                 0.6200

                      4                      5                      6
                      A                      A                      A
 Frequencies --     75.0574                94.4197               103.6514
 Red. masses --      2.7536                 2.9194                 2.2727
 Frc consts  --      0.0091                 0.0153                 0.0144
 IR Inten    --      0.2620                 0.5147                 0.0657

                      7                      8                      9
                      A                      A                      A
 Frequencies --    129.9815               183.2711               215.7413
 Red. masses --      2.2069                 3.0075                 3.9336
 Frc consts  --      0.0220                 0.0595                 0.1079
 IR Inten    --      0.1379                 0.6055                 3.8631

                     10                     11                     12
                      A                      A                      A
 Frequencies --    230.6845               240.3980               253.1447
 Red. masses --      2.6673                 2.6935                 2.3256
 Frc consts  --      0.0836                 0.0917                 0.0878
 IR Inten    --      0.1545                 0.5181                 3.3895

                     13                     14                     15
                      A                      A                      A
 Frequencies --    273.4168               285.2526               313.6656
 Red. masses --      1.6814                 1.0579                 2.2081
 Frc consts  --      0.0741                 0.0507                 0.1280
 IR Inten    --      0.5720                23.2281                 0.6905

                     16                     17                     18
                      A                      A                      A
 Frequencies --    335.0843               380.8304               430.7154
 Red. masses --      2.6712                 3.5166                 2.7129
 Frc consts  --      0.1767                 0.3005                 0.2965
 IR Inten    --      0.4516                 4.1155                 3.2493

                     19                     20                     21
                      A                      A                      A
 Frequencies --    437.6615               456.1459               469.8346
 Red. masses --      2.6256                 2.5338                 3.1162
 Frc consts  --      0.2963                 0.3106                 0.4053
 IR Inten    --      3.0103                 3.4528                 4.3325

                     22                     23                     24
                      A                      A                      A
 Frequencies --    490.6729               519.1926               545.9798
 Red. masses --      3.3216                 2.4886                 5.8614
 Frc consts  --      0.4712                 0.3952                 1.0294
 IR Inten    --      4.2815                 1.8599                 8.6363

                     25                     26                     27
                      A                      A                      A
 Frequencies --    594.1159               613.0657               615.9265
 Red. masses --      2.1654                 2.1403                 2.7590
 Frc consts  --      0.4503                 0.4739                 0.6167
 IR Inten    --      1.1057               146.3805                10.4189

                     28                     29                     30
                      A                      A                      A
 Frequencies --    672.8774               708.2986               720.3489
 Red. masses --      2.1142                 2.0801                 3.2915
 Frc consts  --      0.5640                 0.6148                 1.0063
 IR Inten    --    199.3468                 6.5767                10.4334

                     31                     32                     33
                      A                      A                      A
 Frequencies --    762.3559               776.4886               787.6380
 Red. masses --      1.3307                 1.2991                 1.6456
 Frc consts  --      0.4557                 0.4615                 0.6015
 IR Inten    --     48.5700                 2.0820                 4.9630

                     34                     35                     36
                      A                      A                      A
 Frequencies --    809.7960               821.5688               831.1377
 Red. masses --      1.7512                 1.7968                 1.4757
 Frc consts  --      0.6766                 0.7145                 0.6006
 IR Inten    --      1.8467                53.8810                 2.5558

                     37                     38                     39
                      A                      A                      A
 Frequencies --    850.9364               867.2823               896.0325
 Red. masses --      2.4839                 2.7920                 1.5571
 Frc consts  --      1.0597                 1.2374                 0.7366
 IR Inten    --      2.1615                 3.0367                 2.0840

                     40                     41                     42
                      A                      A                      A
 Frequencies --    913.3850               924.1171               928.1140
 Red. masses --      1.9258                 1.6395                 2.4195
 Frc consts  --      0.9466                 0.8249                 1.2280
 IR Inten    --      1.7952                 5.9179                 3.0274

                     43                     44                     45
                      A                      A                      A
 Frequencies --    951.1360               960.5709               999.2008
 Red. masses --      1.2288                 1.7001                 2.5955
 Frc consts  --      0.6550                 0.9242                 1.5268
 IR Inten    --      0.4389                 1.3918                 0.0412

                     46                     47                     48
                      A                      A                      A
 Frequencies --   1013.0246              1027.6989              1046.5982
 Red. masses --      3.7397                 2.0273                 1.8194
 Frc consts  --      2.2611                 1.2616                 1.1742
 IR Inten    --      5.7962                 9.0142                 0.6407

                     49                     50                     51
                      A                      A                      A
 Frequencies --   1083.0821              1098.5731              1108.5463
 Red. masses --      2.1431                 1.9872                 2.5747
 Frc consts  --      1.4812                 1.4130                 1.8642
 IR Inten    --     25.8768                 7.1654                 7.1007

                     52                     53                     54
                      A                      A                      A
 Frequencies --   1112.5427              1121.0098              1144.1009
 Red. masses --      2.3115                 1.9615                 1.2670
 Frc consts  --      1.6857                 1.4523                 0.9772
 IR Inten    --      5.0276                 0.1092                 8.6876

                     55                     56                     57
                      A                      A                      A
 Frequencies --   1152.7435              1157.9311              1175.2962
 Red. masses --      1.3969                 1.6517                 1.9168
 Frc consts  --      1.0937                 1.3048                 1.5600
 IR Inten    --     21.4641                 5.8103                10.5270

                     58                     59                     60
                      A                      A                      A
 Frequencies --   1215.8230              1216.7040              1223.6199
 Red. masses --      1.2367                 2.2968                 1.2647
 Frc consts  --      1.0771                 2.0033                 1.1157
 IR Inten    --     32.7827                30.7296                 2.5307

                     61                     62                     63
                      A                      A                      A
 Frequencies --   1257.9363              1271.1150              1288.4355
 Red. masses --      1.7234                 1.3417                 1.2879
 Frc consts  --      1.6067                 1.2773                 1.2596
 IR Inten    --     95.9877                 2.6250                 5.5620

                     64                     65                     66
                      A                      A                      A
 Frequencies --   1313.2453              1318.5415              1330.0264
 Red. masses --      1.1969                 1.3145                 1.7165
 Frc consts  --      1.2162                 1.3465                 1.7890
 IR Inten    --      6.5873                10.6768                29.6454

                     67                     68                     69
                      A                      A                      A
 Frequencies --   1348.1738              1357.8675              1374.1506
 Red. masses --      1.5291                 1.4725                 1.8548
 Frc consts  --      1.6374                 1.5996                 2.0635
 IR Inten    --     20.7898                19.5481                 6.7189

                     70                     71                     72
                      A                      A                      A
 Frequencies --   1378.4912              1382.0588              1390.1974
 Red. masses --      1.6356                 1.7163                 1.4449
 Frc consts  --      1.8312                 1.9315                 1.6453
 IR Inten    --     13.6029                19.5934                 3.6262

                     73                     74                     75
                      A                      A                      A
 Frequencies --   1394.3871              1398.7020              1401.3707
 Red. masses --      1.2667                 1.3662                 1.4295
 Frc consts  --      1.4511                 1.5748                 1.6540
 IR Inten    --      7.1217                 2.1049                 1.5443

                     76                     77                     78
                      A                      A                      A
 Frequencies --   1409.0147              1415.5470              1441.7093
 Red. masses --      1.4534                 1.3398                 1.2785
 Frc consts  --      1.7001                 1.5818                 1.5657
 IR Inten    --     54.8996                16.8105                15.8005

                     79                     80                     81
                      A                      A                      A
 Frequencies --   1474.6932              1511.0750              1515.9931
 Red. masses --      1.4488                 1.2864                 1.0769
 Frc consts  --      1.8563                 1.7305                 1.4582
 IR Inten    --      8.7367                 2.0910                 0.2213

                     82                     83                     84
                      A                      A                      A
 Frequencies --   1517.0916              1521.5253              1527.6994
 Red. masses --      1.8402                 1.0893                 1.0686
 Frc consts  --      2.4954                 1.4857                 1.4695
 IR Inten    --      3.5126                 2.5279                 2.2666

                     85                     86                     87
                      A                      A                      A
 Frequencies --   1533.1339              1535.3808              1541.7026
 Red. masses --      1.0888                 1.0813                 1.0712
 Frc consts  --      1.5079                 1.5019                 1.5000
 IR Inten    --      2.1105                 5.2863                11.3713

                     88                     89                     90
                      A                      A                      A
 Frequencies --   1543.8710              1548.9299              1562.5037
 Red. masses --      1.2043                 1.1159                 2.3102
 Frc consts  --      1.6912                 1.5775                 3.3230
 IR Inten    --     10.6412                14.7761               133.6369

                     91                     92                     93
                      A                      A                      A
 Frequencies --   1638.4363              1670.5855              1694.1235
 Red. masses --      4.9194                 4.8785                 1.1988
 Frc consts  --      7.7808                 8.0218                 2.0271
 IR Inten    --     62.1865               274.7009               123.7676

                     94                     95                     96
                      A                      A                      A
 Frequencies --   3028.7129              3033.7798              3035.9243
 Red. masses --      1.0702                 1.0650                 1.0636
 Frc consts  --      5.7838                 5.7751                 5.7759
 IR Inten    --     15.7269                18.0352                10.7791

                     97                     98                     99
                      A                      A                      A
 Frequencies --   3042.0602              3044.4631              3046.3179
 Red. masses --      1.0626                 1.0424                 1.0635
 Frc consts  --      5.7939                 5.6923                 5.8148
 IR Inten    --     46.3601                20.5473                64.0953

                    100                    101                    102
                      A                      A                      A
 Frequencies --   3048.9332              3065.7332              3069.4810
 Red. masses --      1.0702                 1.0711                 1.0922
 Frc consts  --      5.8615                 5.9313                 6.0627
 IR Inten    --     21.5700                31.8910                15.4560

                    103                    104                    105
                      A                      A                      A
 Frequencies --   3070.7816              3078.4447              3082.9017
 Red. masses --      1.0937                 1.0967                 1.0946
 Frc consts  --      6.0763                 6.1237                 6.1297
 IR Inten    --     37.5444                 1.5979                64.1559

                    106                    107                    108
                      A                      A                      A
 Frequencies --   3090.4266              3090.8397              3111.2020
 Red. masses --      1.0973                 1.1011                 1.0995
 Frc consts  --      6.1744                 6.1980                 6.2708
 IR Inten    --     49.5374                55.1505                48.7710

                    109                    110                    111
                      A                      A                      A
 Frequencies --   3122.4931              3127.5844              3131.1945
 Red. masses --      1.0954                 1.0942                 1.1010
 Frc consts  --      6.2923                 6.3059                 6.3599
 IR Inten    --     26.9596                52.9832                31.1635

                    112                    113                    114
                      A                      A                      A
 Frequencies --   3176.0275              3194.2245              3221.3356
 Red. masses --      1.0863                 1.0945                 1.0877
 Frc consts  --      6.4561                 6.5797                 6.6501
 IR Inten    --     12.1511                33.6077                13.5936

                    115                    116                    117
                      A                      A                      A
 Frequencies --   3272.2881              3542.2767              3640.0387
 Red. masses --      1.0892                 1.0480                 1.0973
 Frc consts  --      6.8718                 7.7479                 8.5663
 IR Inten    --      8.4485                 6.7289                 4.9362

 - Thermochemistry -
 -------------------
 Temperature   298.150 Kelvin.  Pressure   1.00000 Atm.
 Atom     1 has atomic number  6 and mass  12.00000

 Molecular mass:   232.19395 amu.
 Principal axes and moments of inertia in atomic units:
                           1         2         3
     Eigenvalues --  2742.763275692.120927401.98324
           X            0.99992   0.01206   0.00316
           Y           -0.01205   0.99992  -0.00337
           Z           -0.00320   0.00333   0.99999
 This molecule is an asymmetric top.
 Rotational symmetry number  1.
 Warning -- assumption of classical behavior for rotation
           may cause significant error
 Rotational temperatures (Kelvin)      0.03158     0.01522     0.01170
 Rotational constants (GHZ):           0.65800     0.31706     0.24382
 Zero-point vibrational energy     978978.6 (Joules/Mol)
                                  233.98150 (Kcal/Mol)
 Warning -- explicit consideration of  27 degrees of freedom as
           vibrations may cause significant error
 Vibrational temperatures:     44.07    66.24    77.84   107.99   135.85
          (Kelvin)            149.13   187.01   263.69   310.40   331.90
                              345.88   364.22   393.39   410.41   451.29
                              482.11   547.93   619.70   629.70   656.29
                              675.99   705.97   747.00   785.54   854.80
                              882.06   886.18   968.12  1019.08  1036.42
                             1096.86  1117.19  1133.24  1165.12  1182.05
                             1195.82  1224.31  1247.83  1289.19  1314.16
                             1329.60  1335.35  1368.47  1382.05  1437.63
                             1457.52  1478.63  1505.82  1558.31  1580.60
                             1594.95  1600.70  1612.88  1646.11  1658.54
                             1666.00  1690.99  1749.30  1750.57  1760.52
                             1809.89  1828.85  1853.77  1889.47  1897.09
                             1913.61  1939.72  1953.67  1977.10  1983.34
                             1988.47  2000.18  2006.21  2012.42  2016.26
                             2027.26  2036.66  2074.30  2121.75  2174.10
                             2181.18  2182.76  2189.14  2198.02  2205.84
                             2209.07  2218.17  2221.29  2228.56  2248.09
                             2357.34  2403.60  2437.47  4357.64  4364.93
                             4368.02  4376.85  4380.30  4382.97  4386.73
                             4410.91  4416.30  4418.17  4429.20  4435.61
                             4446.43  4447.03  4476.33  4492.57  4499.90
                             4505.09  4569.60  4595.78  4634.78  4708.09
                             5096.55  5237.20

 Zero-point correction=                           0.372873 (Hartree/Particle)
 Thermal correction to Energy=                    0.389810
 Thermal correction to Enthalpy=                  0.390754
 Thermal correction to Gibbs Free Energy=         0.327958
 Sum of electronic and zero-point Energies=           -695.255440
 Sum of electronic and thermal Energies=              -695.238503
 Sum of electronic and thermal Enthalpies=            -695.237559
 Sum of electronic and thermal Free Energies=         -695.300355

                     E (Thermal)             CV                S
                      KCal/Mol        Cal/Mol-Kelvin    Cal/Mol-Kelvin
 Total                  244.609             66.795            132.164
 Electronic               0.000              0.000              0.000
 Translational            0.889              2.981             42.229
 Rotational               0.889              2.981             33.113
 Vibrational            242.832             60.834             56.822
 Vibration     1          0.594              1.984              5.788
 Vibration     2          0.595              1.979              4.981
 Vibration     3          0.596              1.976              4.661
 Vibration     4          0.599              1.966              4.016
 Vibration     5          0.603              1.953              3.566
 Vibration     6          0.605              1.946              3.384
 Vibration     7          0.612              1.923              2.946
 Vibration     8          0.631              1.863              2.295
 Vibration     9          0.645              1.817              1.995
 Vibration    10          0.652              1.794              1.874
 Vibration    11          0.657              1.779              1.800
 Vibration    12          0.664              1.757              1.709
 Vibration    13          0.676              1.722              1.575
 Vibration    14          0.683              1.701              1.502
 Vibration    15          0.702              1.648              1.343
 Vibration    16          0.716              1.605              1.235
 Vibration    17          0.751              1.511              1.036
 Vibration    18          0.792              1.403              0.856
 Vibration    19          0.798              1.388              0.834
 Vibration    20          0.814              1.347              0.777
 Vibration    21          0.827              1.317              0.738
 Vibration    22          0.846              1.271              0.682
 Vibration    23          0.874              1.207              0.612
 Vibration    24          0.901              1.148              0.553
 Vibration    25          0.952              1.044              0.460
 Vibration    26          0.972              1.004              0.428
 Vibration    27          0.976              0.998              0.423

 Optimization completed.
    -- Stationary point found.
 Normal termination of Gaussian 16 at Sun Dec 13 12:57:58 2020.

 ----------------------------------------------------------------------
 # B3LYP/6-311++G(d,p) empiricaldispersion=gd3bj scf=xqc pop=npa geom=c
 heck
 ----------------------------------------------------------------------

 --------------------------------------
 CID_63230739_JID_7531_Energie_neutraal
 --------------------------------------
 Structure from the checkpoint file:  "JID_7531.chk"
 Charge =  0 Multiplicity = 1

 SCF Done:  E(RB3LYP) =  -695.819605548     A.U. after   15 cycles
 Normal termination of Gaussian 16 at Sun Dec 13 13:07:35 2020.

 ----------------------------------------------------------------------
 # B3LYP/6-311++G(d,p) empiricaldispersion=gd3bj scf=xqc pop=npa geom=c
 heck
 ----------------------------------------------------------------------

 ------------------------------------
 CID_63230739_JID_7531_Energie_kation
 ------------------------------------
 Structure from the checkpoint file:  "JID_7531.chk"
 Charge =  1 Multiplicity = 2

 SCF Done:  E(UB3LYP) =  -695.577200141     A.U. after   22 cycles
 Normal termination of Gaussian 16 at Sun Dec 13 13:27:36 2020.
 Gaussian 16:  ES64L-G16RevA.03 25-Dec-2016

 ----------------------------------------------------------------------
 # B3LYP/6-311++G(d,p) empiricaldispersion=gd3bj scf=xqc pop=npa geom=c
 heck
 ----------------------------------------------------------------------

 -----------------------------------
 CID_63230739_JID_7531_Energie_anion
 -----------------------------------
 Structure from the checkpoint file:  "JID_7531.chk"
 Charge = -1 Multiplicity = 2

                         Standard orientation:
 ---------------------------------------------------------------------
 Center     Atomic      Atomic             Coordinates (Angstroms)
 Number     Number       Type             X           Y           Z
 ---------------------------------------------------------------------
      1          6           0       -0.630660    3.376767   -1.077753
      2          6           0        0.494645    3.112632   -0.076106
      3          6           0        0.167701    1.999467    0.932891
      4          7           0       -0.083030    0.691928    0.334682
      5          6           0       -1.491289    0.292648    0.205258
      6          6           0       -1.861743   -0.240450   -1.210797
      7          6           0       -2.873297   -1.394463   -1.152744
      8          6           0       -4.015335   -1.062605   -0.184881
      9          6           0       -3.502758   -0.847116    1.265456
     10          6           0       -1.978525   -0.632564    1.338326
     11          6           0        0.977779   -0.187910    0.130593
     12          6           0        0.780135   -1.551711   -0.192641
     13          6           0        1.871134   -2.391791   -0.391402
     14          6           0        3.181827   -1.941581   -0.277807
     15          6           0        3.400300   -0.594260    0.041686
     16          6           0        2.310999    0.262597    0.238354
     17          7           0        4.704781   -0.082612    0.102827
     18          1           0       -0.830956    2.485051   -1.679934
     19          1           0       -0.366733    4.189826   -1.762638
     20          1           0       -1.561301    3.658518   -0.568612
     21          1           0        1.408235    2.850884   -0.622222
     22          1           0        0.715377    4.028522    0.489872
     23          1           0        0.975409    1.914114    1.669277
     24          1           0       -0.726301    2.285349    1.499644
     25          1           0       -2.048946    1.224506    0.333764
     26          1           0       -2.298075    0.584915   -1.786615
     27          1           0       -0.962612   -0.547974   -1.748870
     28          1           0       -2.375277   -2.319127   -0.830166
     29          1           0       -3.266408   -1.593492   -2.156701
     30          1           0       -4.776258   -1.850944   -0.205595
     31          1           0       -4.511233   -0.150083   -0.542369
     32          1           0       -3.767260   -1.707051    1.891553
     33          1           0       -4.012969    0.018388    1.706513
     34          1           0       -1.459162   -1.593246    1.298103
     35          1           0       -1.706997   -0.181819    2.300212
     36          1           0       -0.211986   -1.967214   -0.276936
     37          1           0        1.686202   -3.435608   -0.632887
     38          1           0        4.022025   -2.611009   -0.440533
     39          1           0        2.525172    1.303025    0.448964
     40          1           0        5.407943   -0.777832    0.322354
     41          1           0        4.804382    0.729120    0.700646
 ---------------------------------------------------------------------

 SCF Done:  E(UB3LYP) =  -695.807038604     A.U. after   31 cycles

 The electronic state is 2-A.
 Alpha  occ. eigenvalues --  -14.22832 -14.21660 -10.11679 -10.11198 -10.11179
 Alpha  occ. eigenvalues --  -10.10371 -10.07533 -10.07440 -10.07363 -10.07338
 Alpha  occ. eigenvalues --  -10.07322 -10.07083 -10.06946 -10.06623 -10.05904
 Alpha  occ. eigenvalues --  -10.05842 -10.05828  -0.85088  -0.81789  -0.73903
 Alpha  occ. eigenvalues --   -0.72906  -0.68648  -0.65632  -0.65061  -0.62766
 Alpha  occ. eigenvalues --   -0.62634  -0.58082  -0.53647  -0.52660  -0.51376
 Alpha  occ. eigenvalues --   -0.49878  -0.47927  -0.44996  -0.41834  -0.41362
 Alpha  occ. eigenvalues --   -0.39991  -0.39202  -0.38235  -0.37135  -0.35742
 Alpha  occ. eigenvalues --   -0.34675  -0.34366  -0.33815  -0.32530  -0.31321
 Alpha  occ. eigenvalues --   -0.30739  -0.30181  -0.29460  -0.28597  -0.28123
 Alpha  occ. eigenvalues --   -0.28064  -0.26680  -0.26408  -0.25824  -0.25605
 Alpha  occ. eigenvalues --   -0.24617  -0.24054  -0.22673  -0.22167  -0.21557
 Alpha  occ. eigenvalues --   -0.20915  -0.17800  -0.11571  -0.09260   0.04010
 Alpha virt. eigenvalues --    0.05367   0.06252   0.07191   0.07423   0.07538
 Alpha virt. eigenvalues --    0.08372   0.08980   0.09243   0.09582   0.09850
 Alpha virt. eigenvalues --    0.10418   0.10701   0.10915   0.11239   0.11787

  Beta  occ. eigenvalues --  -14.22831 -14.21613 -10.11676 -10.11191 -10.11172
  Beta  occ. eigenvalues --  -10.10354 -10.07521 -10.07439 -10.07345 -10.07325
  Beta  occ. eigenvalues --  -10.07302 -10.07076 -10.06939 -10.06603 -10.05896
  Beta  occ. eigenvalues --  -10.05838 -10.05819  -0.85078  -0.81732  -0.73881
  Beta  occ. eigenvalues --   -0.72883  -0.68620  -0.65612  -0.65034  -0.62734
  Beta  occ. eigenvalues --   -0.62602  -0.58046  -0.53619  -0.52625  -0.51340
  Beta  occ. eigenvalues --   -0.49835  -0.47885  -0.44950  -0.41795  -0.41329
  Beta  occ. eigenvalues --   -0.39959  -0.39164  -0.38202  -0.37100  -0.35714
  Beta  occ. eigenvalues --   -0.34648  -0.34340  -0.33792  -0.32509  -0.31297
  Beta  occ. eigenvalues --   -0.30718  -0.30151  -0.29430  -0.28569  -0.28098
  Beta  occ. eigenvalues --   -0.28039  -0.26659  -0.26382  -0.25795  -0.25581
  Beta  occ. eigenvalues --   -0.24583  -0.24033  -0.22640  -0.22145  -0.21528
  Beta  occ. eigenvalues --   -0.20889  -0.17785  -0.11542  -0.09241
  Beta virt. eigenvalues --    0.05955   0.06520   0.06763   0.07561   0.07810
  Beta virt. eigenvalues --    0.08049   0.08711   0.09141   0.09325   0.10031
  Beta virt. eigenvalues --    0.10183   0.10615   0.10796   0.11161   0.11397

 Mulliken charges and spin densities:
               1          2
     1  C    0.135176  -0.697748
     2  C    0.250185  -0.488673
     3  C   -0.203944   0.178063
     4  N    0.645451   0.041195
     5  C   -0.597893  -0.219675
     6  C   -0.039789  -0.250176
     7  C   -0.254915   0.035143
     8  C   -0.024830  -0.384737
     9  C    0.348205  -0.888400
    10  C   -0.216604   0.153294
    11  C    0.492993  -0.224581
    12  C   -0.063104  -0.205704
    13  C   -0.300797   0.136342
    14  C    0.271692  -0.161981
    15  C   -0.222555  -0.349298
    16  C   -0.423375   0.089328
    17  N   -0.229738  -0.070829
    18  H    0.137616   0.021448
    19  H   -0.088713   0.249368
    20  H   -0.222931   0.367797
    21  H    0.106954   0.018049
    22  H   -0.195029   0.334415
    23  H   -0.162379   0.325565
    24  H   -0.392441   0.561290
    25  H    0.781076  -0.623302
    26  H   -0.090980   0.251931
    27  H    0.188417  -0.004281
    28  H    0.039412   0.084445
    29  H   -0.118857   0.301309
    30  H   -0.165724   0.327220
    31  H   -0.094213   0.237465
    32  H   -0.004645   0.156187
    33  H   -0.277691   0.434014
    34  H    0.088180   0.092454
    35  H    0.073866   0.099117
    36  H    0.159141  -0.186952
    37  H    0.052517   0.109322
    38  H   -0.077859   0.202076
    39  H    0.019288   0.140303
    40  H   -0.127272   0.381258
    41  H   -0.193890   0.427940
 Sum of Mulliken charges =  -1.00000   1.00000

 Dipole moment (field-independent basis, Debye):
    X=             -1.5320    Y=             -2.7212    Z=             -1.3430  Tot=              3.3994
 Quadrupole moment (field-independent basis, Debye-Ang):
   XX=           -204.2351   YY=           -154.4453   ZZ=           -142.3467
   XY=              0.4455   XZ=             -2.3152   YZ=             -2.8686

 Summary of Natural Population Analysis:

                                       Natural Population
                Natural  -----------------------------------------------
    Atom  No    Charge         Core      Valence    Rydberg      Total
 -----------------------------------------------------------------------
      C    1   -0.28770      0.99966     2.28278    0.00526     3.28770
      C    2   -0.19459      0.99963     2.18781    0.00716     3.19459
      C    3   -0.08096      0.99960     2.06978    0.01158     3.08096
      N    4   -0.25696      0.99964     2.74392    0.01341     3.75696
      C    5    0.00019      0.99957     1.98756    0.01268     2.99981
      C    6   -0.19817      0.99961     2.18914    0.00943     3.19817
      C    7   -0.19152      0.99963     2.18374    0.00815     3.19152
      C    8   -0.19202      0.99963     2.18462    0.00777     3.19202
      C    9   -0.19120      0.99963     2.18308    0.00848     3.19120
      C   10   -0.19762      0.99960     2.18963    0.00838     3.19762
      C   11    0.11160      0.99949     1.87848    0.01044     2.88840
      C   12   -0.15508      0.99953     2.14833    0.00722     3.15508
      C   13   -0.08419      0.99957     2.07581    0.00881     3.08419
      C   14   -0.15380      0.99951     2.14388    0.01041     3.15380
      C   15    0.09532      0.99949     1.89389    0.01130     2.90468
      C   16   -0.15712      0.99949     2.14897    0.00865     3.15712
      N   17   -0.39699      0.99972     2.88703    0.01024     3.89699
      H   18    0.09882      0.00000     0.39983    0.00135     0.40118
      H   19    0.09804      0.00000     0.40122    0.00074     0.40196
      H   20    0.09620      0.00000     0.40270    0.00110     0.40380
      H   21    0.09655      0.00000     0.40201    0.00144     0.40345
      H   22    0.09490      0.00000     0.40380    0.00129     0.40510
      H   23    0.09884      0.00000     0.39950    0.00166     0.40116
      H   24    0.09607      0.00000     0.40249    0.00145     0.40393
      H   25    0.09983      0.00000     0.39783    0.00234     0.40017
      H   26    0.09781      0.00000     0.40101    0.00118     0.40219
      H   27    0.10855      0.00000     0.39039    0.00106     0.39145
      H   28    0.09128      0.00000     0.40750    0.00122     0.40872
      H   29    0.10053      0.00000     0.39856    0.00091     0.39947
      H   30    0.09822      0.00000     0.40077    0.00101     0.40178
      H   31    0.09490      0.00000     0.40372    0.00138     0.40510
      H   32    0.09666      0.00000     0.40243    0.00091     0.40334
      H   33    0.09759      0.00000     0.40119    0.00122     0.40241
      H   34    0.09787      0.00000     0.40060    0.00153     0.40213
      H   35    0.10334      0.00000     0.39561    0.00105     0.39666
      H   36    0.10047      0.00000     0.39760    0.00194     0.39953
      H   37    0.09619      0.00000     0.40305    0.00076     0.40381
      H   38    0.09754      0.00000     0.40162    0.00084     0.40246
      H   39    0.10063      0.00000     0.39751    0.00186     0.39937
      H   40    0.18415      0.00000     0.31320    0.00264     0.31585
      H   41    0.18584      0.00000     0.31110    0.00306     0.31416
 =======================================================================
   * Total *   -0.00000     16.99300    46.81365    0.19334    64.00000

 Normal termination of Gaussian 16 at Sun Dec 13 13:55:58 2020.
