 Gaussian 16, Revision A.03,

 -----------------------------------------------------------
 # opt freq B3LYP/6-31G(d) empiricaldispersion=gd3bj scf=xqc
 -----------------------------------------------------------

 ------------------------------
 CID_82132227_JID_9591_neutraal
 ------------------------------
 Symbolic Z-matrix:
 Charge =  0 Multiplicity = 1

 SCF Done:  E(RB3LYP) =  -810.379751480     A.U. after   14 cycles
 SCF Done:  E(RB3LYP) =  -810.386262802     A.U. after   12 cycles
 SCF Done:  E(RB3LYP) =  -810.386071824     A.U. after   12 cycles
 SCF Done:  E(RB3LYP) =  -810.387150068     A.U. after   11 cycles
 SCF Done:  E(RB3LYP) =  -810.387401415     A.U. after   11 cycles
 SCF Done:  E(RB3LYP) =  -810.387409492     A.U. after   10 cycles
 SCF Done:  E(RB3LYP) =  -810.387413534     A.U. after   10 cycles
 SCF Done:  E(RB3LYP) =  -810.387416562     A.U. after    9 cycles
 SCF Done:  E(RB3LYP) =  -810.387416976     A.U. after    7 cycles
 SCF Done:  E(RB3LYP) =  -810.387417027     A.U. after    7 cycles
 Optimization completed.
    -- Stationary point found.
 Normal termination of Gaussian 16 at Sun Dec 13 12:36:06 2020.

 --------------------------------------------------------------------
 #N Geom=AllCheck Guess=TCheck SCRF=Check GenChk RB3LYP/6-31G(d) Freq
 --------------------------------------------------------------------

 Structure from the checkpoint file:  "JID_9591.chk"
 ------------------------------
 CID_82132227_JID_9591_neutraal
 ------------------------------
 Charge =  0 Multiplicity = 1

 SCF Done:  E(RB3LYP) =  -810.387417027     A.U. after    1 cycles

  Exact polarizability: 275.773   6.462 168.876  -5.122  19.338 111.522
 Approx polarizability: 390.205  13.292 284.417 -10.671  41.644 179.456

                      1                      2                      3
                      A                      A                      A
 Frequencies --     29.8199                46.5065                69.0855
 Red. masses --      4.4335                 4.8479                 4.0509
 Frc consts  --      0.0023                 0.0062                 0.0114
 IR Inten    --      0.2468                 0.4916                 0.4715

                      4                      5                      6
                      A                      A                      A
 Frequencies --    118.5122               147.4347               159.3221
 Red. masses --      3.9453                 4.1896                 3.3416
 Frc consts  --      0.0326                 0.0537                 0.0500
 IR Inten    --      0.0182                 0.6048                 2.5951

                      7                      8                      9
                      A                      A                      A
 Frequencies --    170.3983               190.0778               228.1075
 Red. masses --      3.9527                 3.5743                 3.3410
 Frc consts  --      0.0676                 0.0761                 0.1024
 IR Inten    --      0.2031                 1.3915                 1.8365

                     10                     11                     12
                      A                      A                      A
 Frequencies --    238.5207               292.2543               313.7550
 Red. masses --      2.4992                 3.3009                 3.0939
 Frc consts  --      0.0838                 0.1661                 0.1794
 IR Inten    --      0.9098                 0.2741                 0.8025

                     13                     14                     15
                      A                      A                      A
 Frequencies --    337.2399               352.6506               407.1638
 Red. masses --      3.3890                 2.2318                 2.8405
 Frc consts  --      0.2271                 0.1635                 0.2774
 IR Inten    --      2.1201                 2.3970                 4.4167

                     16                     17                     18
                      A                      A                      A
 Frequencies --    411.5915               420.8947               442.2543
 Red. masses --      2.2601                 1.7311                 1.9131
 Frc consts  --      0.2256                 0.1807                 0.2205
 IR Inten    --     13.4181                28.6337                22.0973

                     19                     20                     21
                      A                      A                      A
 Frequencies --    450.1586               463.8345               493.6961
 Red. masses --      4.2739                 2.9618                 2.6028
 Frc consts  --      0.5103                 0.3754                 0.3738
 IR Inten    --      0.9305                 1.8922                14.0490

                     22                     23                     24
                      A                      A                      A
 Frequencies --    500.1508               521.7863               539.8456
 Red. masses --      2.7403                 2.8115                 5.2785
 Frc consts  --      0.4039                 0.4510                 0.9064
 IR Inten    --      5.3797                 1.0606                 1.0236

                     25                     26                     27
                      A                      A                      A
 Frequencies --    566.2693               614.1532               642.9053
 Red. masses --      3.6880                 3.2821                 4.8620
 Frc consts  --      0.6968                 0.7294                 1.1840
 IR Inten    --      4.9295                 1.2871                 8.9598

                     28                     29                     30
                      A                      A                      A
 Frequencies --    662.3288               721.3790               762.4372
 Red. masses --      4.0905                 2.4283                 3.6241
 Frc consts  --      1.0572                 0.7445                 1.2412
 IR Inten    --      5.6567                 4.9993                 2.3602

                     31                     32                     33
                      A                      A                      A
 Frequencies --    768.9581               778.2757               789.2053
 Red. masses --      1.6357                 2.8601                 4.6602
 Frc consts  --      0.5698                 1.0207                 1.7102
 IR Inten    --     22.8421                 7.1373                 0.6496

                     34                     35                     36
                      A                      A                      A
 Frequencies --    797.0476               829.7974               841.5974
 Red. masses --      1.5530                 2.0999                 1.7251
 Frc consts  --      0.5813                 0.8519                 0.7199
 IR Inten    --      0.0610                13.8063                 9.3591

                     37                     38                     39
                      A                      A                      A
 Frequencies --    863.6868               872.3098               884.4132
 Red. masses --      2.1462                 1.4884                 1.8100
 Frc consts  --      0.9433                 0.6673                 0.8341
 IR Inten    --      1.7181                13.6356                16.3221

                     40                     41                     42
                      A                      A                      A
 Frequencies --    905.0873               926.0117               932.1990
 Red. masses --      1.7021                 2.2791                 3.5498
 Frc consts  --      0.8215                 1.1514                 1.8175
 IR Inten    --     21.6960                 9.2402                12.8344

                     43                     44                     45
                      A                      A                      A
 Frequencies --    954.2306               955.6462               971.7375
 Red. masses --      1.3401                 1.4660                 1.3112
 Frc consts  --      0.7189                 0.7888                 0.7295
 IR Inten    --      2.8814                 1.6668                 0.5262

                     46                     47                     48
                      A                      A                      A
 Frequencies --    974.4515               990.2532               992.4777
 Red. masses --      2.3420                 1.3128                 2.7831
 Frc consts  --      1.3103                 0.7585                 1.6152
 IR Inten    --     22.1397                 1.8578                36.9347

                     49                     50                     51
                      A                      A                      A
 Frequencies --   1009.7933              1051.6761              1053.7771
 Red. masses --      1.8738                 1.9357                 2.2727
 Frc consts  --      1.1257                 1.2614                 1.4869
 IR Inten    --     58.0305                10.8300                 0.9969

                     52                     53                     54
                      A                      A                      A
 Frequencies --   1079.8004              1098.5360              1111.3391
 Red. masses --      2.4479                 2.0023                 1.5944
 Frc consts  --      1.6816                 1.4237                 1.1602
 IR Inten    --     38.5089                 9.3277                11.9962

                     55                     56                     57
                      A                      A                      A
 Frequencies --   1141.9077              1155.9159              1179.6202
 Red. masses --      2.3575                 1.6605                 1.4299
 Frc consts  --      1.8112                 1.3072                 1.1723
 IR Inten    --     30.7907                14.7085                12.0187

                     58                     59                     60
                      A                      A                      A
 Frequencies --   1182.8184              1186.3612              1189.2661
 Red. masses --      1.9216                 1.3801                 1.1919
 Frc consts  --      1.5840                 1.1444                 0.9932
 IR Inten    --     45.6375                 3.2495                 0.6983

                     61                     62                     63
                      A                      A                      A
 Frequencies --   1205.2579              1233.7478              1256.3118
 Red. masses --      1.5680                 1.4206                 1.9850
 Frc consts  --      1.3420                 1.2740                 1.8459
 IR Inten    --     79.4014                38.5049                23.1545

                     64                     65                     66
                      A                      A                      A
 Frequencies --   1261.7691              1283.6348              1297.0991
 Red. masses --      2.0783                 1.7500                 1.7871
 Frc consts  --      1.9495                 1.6990                 1.7715
 IR Inten    --     48.6859               126.0566                 8.3049

                     67                     68                     69
                      A                      A                      A
 Frequencies --   1311.1950              1314.0963              1329.2180
 Red. masses --      1.4090                 1.2541                 1.4113
 Frc consts  --      1.4272                 1.2760                 1.4691
 IR Inten    --      9.8545                 1.9283                16.4345

                     70                     71                     72
                      A                      A                      A
 Frequencies --   1376.1843              1388.8407              1390.4651
 Red. masses --      1.4012                 2.0390                 1.5343
 Frc consts  --      1.5636                 2.3172                 1.7477
 IR Inten    --      1.8114                 7.5263                 1.7868

                     73                     74                     75
                      A                      A                      A
 Frequencies --   1402.7533              1405.9819              1411.9886
 Red. masses --      1.4617                 1.4873                 1.5671
 Frc consts  --      1.6946                 1.7323                 1.8408
 IR Inten    --      0.4916                 0.6933                12.2430

                     76                     77                     78
                      A                      A                      A
 Frequencies --   1414.3030              1420.7438              1422.9405
 Red. masses --      3.5913                 4.4556                 1.5039
 Frc consts  --      4.2324                 5.2990                 1.7941
 IR Inten    --     10.3034                 5.9561                 4.5438

                     79                     80                     81
                      A                      A                      A
 Frequencies --   1445.6843              1486.9021              1502.0977
 Red. masses --      1.2199                 2.5359                 1.0878
 Frc consts  --      1.5022                 3.3033                 1.4461
 IR Inten    --     19.3035                 3.8473                 1.3143

                     82                     83                     84
                      A                      A                      A
 Frequencies --   1512.6725              1515.1897              1517.8237
 Red. masses --      1.0977                 1.1200                 1.3299
 Frc consts  --      1.4798                 1.5150                 1.8052
 IR Inten    --      0.0789                 4.4205                17.5866

                     85                     86                     87
                      A                      A                      A
 Frequencies --   1519.8175              1523.2319              1535.1307
 Red. masses --      1.5463                 1.0921                 1.1059
 Frc consts  --      2.1044                 1.4929                 1.5355
 IR Inten    --     31.1010                15.1942                 4.5256

                     88                     89                     90
                      A                      A                      A
 Frequencies --   1561.6959              1625.9160              1659.2440
 Red. masses --      3.3408                 6.9228                 5.3835
 Frc consts  --      4.8006                10.7827                 8.7324
 IR Inten    --     43.6945                 3.9318                58.7692

                     91                     92                     93
                      A                      A                      A
 Frequencies --   1688.2167              3013.6459              3020.3962
 Red. masses --      6.1930                 1.0678                 1.0673
 Frc consts  --     10.3994                 5.7138                 5.7367
 IR Inten    --     35.3690                36.3472                30.9348

                     94                     95                     96
                      A                      A                      A
 Frequencies --   3039.2132              3045.7918              3046.9678
 Red. masses --      1.0651                 1.0678                 1.0631
 Frc consts  --      5.7963                 5.8362                 5.8154
 IR Inten    --     12.3693                14.6790                29.8883

                     97                     98                     99
                      A                      A                      A
 Frequencies --   3052.5082              3075.0263              3084.5732
 Red. masses --      1.0631                 1.0928                 1.0996
 Frc consts  --      5.8366                 6.0880                 6.1644
 IR Inten    --     34.6817                72.6289                40.7874

                    100                    101                    102
                      A                      A                      A
 Frequencies --   3086.7575              3096.8009              3102.4748
 Red. masses --      1.1032                 1.1001                 1.0993
 Frc consts  --      6.1932                 6.2160                 6.2340
 IR Inten    --     30.1430                 1.8766               118.0391

                    103                    104                    105
                      A                      A                      A
 Frequencies --   3118.2017              3180.4882              3184.4794
 Red. masses --      1.0922                 1.0859                 1.0886
 Frc consts  --      6.2567                 6.4716                 6.5041
 IR Inten    --     36.4478                 2.5415                 1.5403

                    106                    107                    108
                      A                      A                      A
 Frequencies --   3187.7249              3198.5413              3202.5917
 Red. masses --      1.0891                 1.0932                 1.0907
 Frc consts  --      6.5206                 6.5894                 6.5909
 IR Inten    --     10.5831                26.4059                13.5165

                    109                    110                    111
                      A                      A                      A
 Frequencies --   3211.7676              3237.5516              3730.2517
 Red. masses --      1.0972                 1.0924                 1.0654
 Frc consts  --      6.6682                 6.7462                 8.7345
 IR Inten    --     30.9610                 6.6139               110.7126

 - Thermochemistry -
 -------------------
 Temperature   298.150 Kelvin.  Pressure   1.00000 Atm.
 Atom     1 has atomic number  6 and mass  12.00000

 Molecular mass:   256.14633 amu.
 Principal axes and moments of inertia in atomic units:
                           1         2         3
     Eigenvalues --  1859.481198881.048659439.72921
           X            0.99999   0.00337  -0.00258
           Y           -0.00325   0.99896   0.04544
           Z            0.00273  -0.04544   0.99896
 This molecule is an asymmetric top.
 Rotational symmetry number  1.
 Warning -- assumption of classical behavior for rotation
           may cause significant error
 Rotational temperatures (Kelvin)      0.04658     0.00975     0.00918
 Rotational constants (GHZ):           0.97056     0.20321     0.19119
 Zero-point vibrational energy     884749.9 (Joules/Mol)
                                  211.46031 (Kcal/Mol)
 Warning -- explicit consideration of  26 degrees of freedom as
           vibrations may cause significant error
 Vibrational temperatures:     42.90    66.91    99.40   170.51   212.13
          (Kelvin)            229.23   245.17   273.48   328.20   343.18
                              420.49   451.42   485.21   507.39   585.82
                              592.19   605.57   636.31   647.68   667.35
                              710.32   719.61   750.73   776.72   814.74
                              883.63   925.00   952.94  1037.90  1096.98
                             1106.36  1119.77  1135.49  1146.77  1193.89
                             1210.87  1242.65  1255.06  1272.47  1302.22
                             1332.32  1341.23  1372.92  1374.96  1398.11
                             1402.02  1424.75  1427.95  1452.87  1513.13
                             1516.15  1553.59  1580.55  1598.97  1642.95
                             1663.11  1697.21  1701.81  1706.91  1711.09
                             1734.10  1775.09  1807.55  1815.40  1846.86
                             1866.24  1886.52  1890.69  1912.45  1980.02
                             1998.23  2000.57  2018.25  2022.89  2031.54
                             2034.87  2044.13  2047.29  2080.02  2139.32
                             2161.18  2176.40  2180.02  2183.81  2186.68
                             2191.59  2208.71  2246.93  2339.33  2387.28
                             2428.97  4335.96  4345.68  4372.75  4382.22
                             4383.91  4391.88  4424.28  4438.01  4441.16
                             4455.61  4463.77  4486.40  4576.01  4581.76
                             4586.43  4601.99  4607.82  4621.02  4658.11
                             5367.00

 Zero-point correction=                           0.336983 (Hartree/Particle)
 Thermal correction to Energy=                    0.352968
 Thermal correction to Enthalpy=                  0.353913
 Thermal correction to Gibbs Free Energy=         0.293732
 Sum of electronic and zero-point Energies=           -810.050434
 Sum of electronic and thermal Energies=              -810.034449
 Sum of electronic and thermal Enthalpies=            -810.033504
 Sum of electronic and thermal Free Energies=         -810.093685

                     E (Thermal)             CV                S
                      KCal/Mol        Cal/Mol-Kelvin    Cal/Mol-Kelvin
 Total                  221.491             65.993            126.662
 Electronic               0.000              0.000              0.000
 Translational            0.889              2.981             42.522
 Rotational               0.889              2.981             33.410
 Vibrational            219.714             60.032             50.730
 Vibration     1          0.594              1.984              5.841
 Vibration     2          0.595              1.979              4.961
 Vibration     3          0.598              1.969              4.179
 Vibration     4          0.609              1.934              3.124
 Vibration     5          0.617              1.905              2.705
 Vibration     6          0.621              1.892              2.558
 Vibration     7          0.625              1.879              2.431
 Vibration     8          0.633              1.854              2.227
 Vibration     9          0.651              1.798              1.894
 Vibration    10          0.656              1.782              1.814
 Vibration    11          0.688              1.688              1.461
 Vibration    12          0.702              1.647              1.342
 Vibration    13          0.718              1.601              1.225
 Vibration    14          0.729              1.570              1.154
 Vibration    15          0.772              1.455              0.937
 Vibration    16          0.776              1.445              0.921
 Vibration    17          0.783              1.425              0.889
 Vibration    18          0.802              1.378              0.820
 Vibration    19          0.809              1.361              0.795
 Vibration    20          0.821              1.330              0.755
 Vibration    21          0.849              1.264              0.674
 Vibration    22          0.856              1.250              0.658
 Vibration    23          0.877              1.202              0.606
 Vibration    24          0.895              1.162              0.566
 Vibration    25          0.922              1.104              0.511
 Vibration    26          0.974              1.002              0.426

                           ! Non-Optimized Parameters !
 Normal termination of Gaussian 16 at Sun Dec 13 12:59:06 2020.

 ----------------------------------------------------------------------
 # B3LYP/6-311++G(d,p) empiricaldispersion=gd3bj scf=xqc pop=npa geom=c
 heck
 ----------------------------------------------------------------------

 --------------------------------------
 CID_82132227_JID_9591_Energie_neutraal
 --------------------------------------
 Structure from the checkpoint file:  "JID_9591.chk"
 Charge =  0 Multiplicity = 1

 SCF Done:  E(RB3LYP) =  -810.607296328     A.U. after   15 cycles
 Normal termination of Gaussian 16 at Sun Dec 13 13:09:25 2020.

 ----------------------------------------------------------------------
 # B3LYP/6-311++G(d,p) empiricaldispersion=gd3bj scf=xqc pop=npa geom=c
 heck
 ----------------------------------------------------------------------

 ------------------------------------
 CID_82132227_JID_9591_Energie_kation
 ------------------------------------
 Structure from the checkpoint file:  "JID_9591.chk"
 Charge =  1 Multiplicity = 2

 SCF Done:  E(UB3LYP) =  -810.320374189     A.U. after   23 cycles
 Normal termination of Gaussian 16 at Sun Dec 13 13:32:02 2020.
 Gaussian 16:  ES64L-G16RevA.03 25-Dec-2016

 ----------------------------------------------------------------------
 # B3LYP/6-311++G(d,p) empiricaldispersion=gd3bj scf=xqc pop=npa geom=c
 heck
 ----------------------------------------------------------------------

 -----------------------------------
 CID_82132227_JID_9591_Energie_anion
 -----------------------------------
 Structure from the checkpoint file:  "JID_9591.chk"
 Charge = -1 Multiplicity = 2

                         Standard orientation:
 ---------------------------------------------------------------------
 Center     Atomic      Atomic             Coordinates (Angstroms)
 Number     Number       Type             X           Y           Z
 ---------------------------------------------------------------------
      1          6           0        4.467444    1.022784   -0.437830
      2          6           0        4.014718   -0.116445   -1.359760
      3          6           0        3.286569   -1.209290   -0.567934
      4          6           0        2.096574   -0.657393    0.229006
      5          6           0        2.541312    0.504711    1.127265
      6          6           0        3.280865    1.597861    0.346833
      7          6           0        1.455617   -1.789370    1.048715
      8          8           0        0.499736   -1.368626    2.006865
      9          8           0        1.179054   -0.189597   -0.814728
     10          6           0       -0.108451    0.161574   -0.495318
     11          6           0       -1.132737   -0.736924   -0.723896
     12          6           0       -2.483700   -0.386854   -0.463833
     13          6           0       -3.554672   -1.293712   -0.680091
     14          6           0       -4.853001   -0.926257   -0.409247
     15          6           0       -5.143900    0.366937    0.089040
     16          6           0       -4.127665    1.269190    0.306427
     17          6           0       -2.778391    0.921676    0.038650
     18          6           0       -1.704684    1.828467    0.242392
     19          6           0       -0.404656    1.467508   -0.018622
     20          1           0        4.956839    1.812639   -1.020669
     21          1           0        5.218779    0.641233    0.269629
     22          1           0        3.337421    0.278331   -2.125923
     23          1           0        4.874762   -0.551832   -1.882838
     24          1           0        3.984931   -1.671982    0.142218
     25          1           0        2.928787   -2.000276   -1.237530
     26          1           0        3.207604    0.088125    1.895145
     27          1           0        1.677163    0.902988    1.665490
     28          1           0        3.620014    2.378978    1.038038
     29          1           0        2.589788    2.075037   -0.359207
     30          1           0        1.035302   -2.531098    0.352408
     31          1           0        2.247894   -2.285777    1.618610
     32          1           0       -0.291666   -1.087369    1.520635
     33          1           0       -0.894169   -1.719399   -1.120358
     34          1           0       -3.329920   -2.286132   -1.062285
     35          1           0       -5.662736   -1.630482   -0.577700
     36          1           0       -6.173152    0.643288    0.298408
     37          1           0       -4.344346    2.263981    0.687558
     38          1           0       -1.927815    2.827536    0.608073
     39          1           0        0.406755    2.171218    0.122424
 ---------------------------------------------------------------------

 SCF Done:  E(UB3LYP) =  -810.606967282     A.U. after   33 cycles
 SCF Done:  E(UB3LYP) =  -810.606967282     a.u. after    1 cycles

 The electronic state is 2-A.
 Alpha  occ. eigenvalues --  -19.01390 -19.01142 -10.12505 -10.11202 -10.09195
 Alpha  occ. eigenvalues --  -10.06974 -10.06893 -10.06742 -10.06580 -10.06097
 Alpha  occ. eigenvalues --  -10.05222 -10.04842 -10.03934 -10.03860 -10.03533
 Alpha  occ. eigenvalues --  -10.03156 -10.03119 -10.03070 -10.02898  -0.93409
 Alpha  occ. eigenvalues --   -0.91036  -0.74334  -0.73192  -0.68685  -0.66032
 Alpha  occ. eigenvalues --   -0.64689  -0.63908  -0.60351  -0.58619  -0.57242
 Alpha  occ. eigenvalues --   -0.51957  -0.50812  -0.49214  -0.47941  -0.46688
 Alpha  occ. eigenvalues --   -0.44723  -0.41099  -0.38955  -0.38490  -0.38006
 Alpha  occ. eigenvalues --   -0.37542  -0.35934  -0.34610  -0.33502  -0.32827
 Alpha  occ. eigenvalues --   -0.31914  -0.30626  -0.29773  -0.29339  -0.28761
 Alpha  occ. eigenvalues --   -0.28647  -0.28396  -0.27778  -0.26972  -0.25897
 Alpha  occ. eigenvalues --   -0.25131  -0.24762  -0.23515  -0.22754  -0.22052
 Alpha  occ. eigenvalues --   -0.21583  -0.20765  -0.20393  -0.19036  -0.17373
 Alpha  occ. eigenvalues --   -0.15945  -0.15208  -0.11321  -0.09279   0.04582
 Alpha virt. eigenvalues --    0.05904   0.07694   0.07964   0.08313   0.09088
 Alpha virt. eigenvalues --    0.09412   0.10121   0.10714   0.10851   0.10994
 Alpha virt. eigenvalues --    0.11136   0.11431   0.12444   0.12835   0.12942

  Beta  occ. eigenvalues --  -19.01382 -19.01141 -10.12484 -10.11198 -10.09114
  Beta  occ. eigenvalues --  -10.06970 -10.06881 -10.06736 -10.06576 -10.06092
  Beta  occ. eigenvalues --  -10.05277 -10.04914 -10.03904 -10.03785 -10.03455
  Beta  occ. eigenvalues --  -10.02876 -10.02861 -10.02839 -10.02673  -0.93367
  Beta  occ. eigenvalues --   -0.91023  -0.74158  -0.73083  -0.68379  -0.65937
  Beta  occ. eigenvalues --   -0.64668  -0.63482  -0.60134  -0.58230  -0.57201
  Beta  occ. eigenvalues --   -0.51915  -0.50626  -0.48859  -0.47873  -0.46376
  Beta  occ. eigenvalues --   -0.44584  -0.41048  -0.38846  -0.38337  -0.37948
  Beta  occ. eigenvalues --   -0.37403  -0.35895  -0.34552  -0.33428  -0.32739
  Beta  occ. eigenvalues --   -0.31773  -0.30528  -0.29721  -0.29284  -0.28640
  Beta  occ. eigenvalues --   -0.28498  -0.28301  -0.27667  -0.26871  -0.25456
  Beta  occ. eigenvalues --   -0.25077  -0.24623  -0.23389  -0.22683  -0.21973
  Beta  occ. eigenvalues --   -0.21521  -0.20631  -0.20246  -0.18407  -0.17200
  Beta  occ. eigenvalues --   -0.15168  -0.14728  -0.10658  -0.07784
  Beta virt. eigenvalues --    0.06356   0.07845   0.08150   0.08278   0.09097
  Beta virt. eigenvalues --    0.09356   0.09401   0.10209   0.10701   0.10815
  Beta virt. eigenvalues --    0.11014   0.11199   0.11536   0.12661   0.12833

 Mulliken charges and spin densities:
               1          2
     1  C    0.285851  -0.868090
     2  C   -0.341309   0.192763
     3  C    0.044793  -0.342620
     4  C   -0.293055   0.339571
     5  C   -0.342834  -0.155899
     6  C   -0.410385   0.235266
     7  C   -0.010807  -0.321111
     8  O   -0.208695   0.000526
     9  O    0.036311   0.000098
    10  C   -0.176536   0.031241
    11  C    0.068703   0.204393
    12  C    0.075141  -0.070428
    13  C   -0.337300   0.131509
    14  C   -0.397794   0.094375
    15  C   -0.315504   0.030405
    16  C   -0.411077   0.150009
    17  C    0.419196  -0.087590
    18  C   -0.358713   0.244739
    19  C    0.025637   0.057312
    20  H   -0.150310   0.315086
    21  H   -0.010354   0.118808
    22  H    0.183941  -0.032920
    23  H   -0.146854   0.320017
    24  H   -0.045574   0.174308
    25  H    0.155277  -0.003186
    26  H    0.051298   0.118609
    27  H    0.220931  -0.024009
    28  H    0.046730   0.118987
    29  H    0.173377  -0.059868
    30  H    0.147953   0.004334
    31  H    0.056449   0.096581
    32  H    0.301344   0.010515
    33  H    0.112006  -0.010010
    34  H    0.087514  -0.014350
    35  H    0.110866  -0.005242
    36  H    0.112015  -0.002209
    37  H    0.069159  -0.015143
    38  H    0.133181  -0.013603
    39  H    0.039426   0.036821
 Sum of Mulliken charges =  -1.00000   1.00000

 Dipole moment (field-independent basis, Debye):
    X=              2.0164    Y=             -0.4031    Z=             -0.0593  Tot=              2.0572
 Quadrupole moment (field-independent basis, Debye-Ang):
   XX=           -193.8855   YY=           -129.6798   ZZ=           -138.9043
   XY=             -1.1604   XZ=              0.3041   YZ=              5.1280

 Summary of Natural Population Analysis:

                                       Natural Population
                Natural  -----------------------------------------------
    Atom  No    Charge         Core      Valence    Rydberg      Total
 -----------------------------------------------------------------------
      C    1   -0.18876      0.99963     2.18097    0.00816     3.18876
      C    2   -0.19123      0.99963     2.18238    0.00922     3.19123
      C    3   -0.19730      0.99957     2.18611    0.01162     3.19730
      C    4    0.13725      0.99947     1.84740    0.01588     2.86275
      C    5   -0.21081      0.99956     2.19987    0.01138     3.21081
      C    6   -0.19281      0.99963     2.18397    0.00921     3.19281
      C    7   -0.01913      0.99950     2.00689    0.01274     3.01913
      O    8   -0.37444      0.99990     3.36786    0.00668     4.37444
      O    9   -0.31308      0.99985     3.30099    0.01224     4.31308
      C   10    0.15002      0.99938     1.83486    0.01574     2.84998
      C   11   -0.07938      0.99948     2.07393    0.00596     3.07938
      C   12   -0.04188      0.99952     2.03222    0.01014     3.04188
      C   13   -0.05719      0.99943     2.04701    0.01076     3.05719
      C   14   -0.09990      0.99960     2.09008    0.01022     3.09990
      C   15   -0.11090      0.99957     2.10171    0.00961     3.11090
      C   16   -0.05191      0.99954     2.04308    0.00929     3.05191
      C   17   -0.04577      0.99949     2.03825    0.00803     3.04577
      C   18   -0.03819      0.99954     2.03031    0.00833     3.03819
      C   19   -0.11555      0.99951     2.10801    0.00803     3.11555
      H   20    0.09642      0.00000     0.40274    0.00084     0.40358
      H   21    0.09042      0.00000     0.40835    0.00123     0.40958
      H   22    0.10257      0.00000     0.39626    0.00117     0.39743
      H   23    0.09573      0.00000     0.40337    0.00090     0.40427
      H   24    0.09592      0.00000     0.40277    0.00131     0.40408
      H   25    0.10265      0.00000     0.39625    0.00110     0.39735
      H   26    0.09788      0.00000     0.40109    0.00103     0.40212
      H   27    0.11462      0.00000     0.38420    0.00118     0.38538
      H   28    0.09557      0.00000     0.40363    0.00080     0.40443
      H   29    0.09972      0.00000     0.39885    0.00143     0.40028
      H   30    0.08270      0.00000     0.41571    0.00159     0.41730
      H   31    0.08646      0.00000     0.41223    0.00130     0.41354
      H   32    0.24269      0.00000     0.25444    0.00286     0.25731
      H   33    0.09373      0.00000     0.40501    0.00126     0.40627
      H   34    0.09142      0.00000     0.40801    0.00056     0.40858
      H   35    0.08930      0.00000     0.40961    0.00109     0.41070
      H   36    0.08967      0.00000     0.40920    0.00112     0.41033
      H   37    0.09067      0.00000     0.40847    0.00087     0.40933
      H   38    0.08763      0.00000     0.41069    0.00168     0.41237
      H   39    0.09527      0.00000     0.40297    0.00176     0.40473
 =======================================================================
   * Total *    0.00013     18.99180    49.78974    0.21833    68.99987

 Normal termination of Gaussian 16 at Sun Dec 13 14:04:23 2020.
