 Gaussian 16, Revision A.03,

 -----------------------------------------------------------
 # opt freq B3LYP/6-31G(d) empiricaldispersion=gd3bj scf=xqc
 -----------------------------------------------------------

 -------------------------------
 CID_150240716_JID_4549_neutraal
 -------------------------------
 Symbolic Z-matrix:
 Charge =  0 Multiplicity = 1

 SCF Done:  E(RB3LYP) =  -728.380063206     A.U. after   16 cycles
 SCF Done:  E(RB3LYP) =  -728.386724236     A.U. after   15 cycles
 SCF Done:  E(RB3LYP) =  -728.387385557     A.U. after   13 cycles
 SCF Done:  E(RB3LYP) =  -728.387836392     A.U. after   13 cycles
 SCF Done:  E(RB3LYP) =  -728.387974095     A.U. after   13 cycles
 SCF Done:  E(RB3LYP) =  -728.388110368     A.U. after   11 cycles
 SCF Done:  E(RB3LYP) =  -728.388206508     A.U. after   13 cycles
 SCF Done:  E(RB3LYP) =  -728.388281906     A.U. after   13 cycles
 SCF Done:  E(RB3LYP) =  -728.388366004     A.U. after   13 cycles
 SCF Done:  E(RB3LYP) =  -728.388314307     A.U. after   16 cycles
 SCF Done:  E(RB3LYP) =  -728.388696728     A.U. after   11 cycles
 SCF Done:  E(RB3LYP) =  -728.388711455     A.U. after   11 cycles
 SCF Done:  E(RB3LYP) =  -728.388714379     A.U. after   11 cycles
 SCF Done:  E(RB3LYP) =  -728.388714650     A.U. after   10 cycles
 SCF Done:  E(RB3LYP) =  -728.388714647     A.U. after    9 cycles
 Optimization completed.
    -- Stationary point found.
 Normal termination of Gaussian 16 at Thu Dec 10 10:04:32 2020.

 --------------------------------------------------------------------
 #N Geom=AllCheck Guess=TCheck SCRF=Check GenChk RB3LYP/6-31G(d) Freq
 --------------------------------------------------------------------

 Structure from the checkpoint file:  "JID_4549.chk"
 -------------------------------
 CID_150240716_JID_4549_neutraal
 -------------------------------
 Charge =  0 Multiplicity = 1

 SCF Done:  E(RB3LYP) =  -728.388714647     A.U. after    1 cycles

  Exact polarizability: 134.324 -20.621  82.455  -9.271  -7.953  83.631
 Approx polarizability: 229.425 -46.248 130.489 -29.007 -17.715 139.241

                      1                      2                      3
                      A                      A                      A
 Frequencies --     20.8681                32.5133                62.7682
 Red. masses --      8.3589                 8.0672                12.5599
 Frc consts  --      0.0021                 0.0050                 0.0292
 IR Inten    --      0.8976                 1.5370                 0.1803

                      4                      5                      6
                      A                      A                      A
 Frequencies --     84.4811               105.5535               136.2506
 Red. masses --      9.7523                 7.7417                 4.0830
 Frc consts  --      0.0410                 0.0508                 0.0447
 IR Inten    --      0.1960                 0.9549                 0.3868

                      7                      8                      9
                      A                      A                      A
 Frequencies --    183.9520               198.8800               247.8132
 Red. masses --      5.9005                 7.7168                 1.0679
 Frc consts  --      0.1176                 0.1798                 0.0386
 IR Inten    --      0.7271                 0.7660                 0.0864

                     10                     11                     12
                      A                      A                      A
 Frequencies --    285.2061               306.2043               365.8633
 Red. masses --      4.0175                 5.9681                 5.7482
 Frc consts  --      0.1925                 0.3297                 0.4533
 IR Inten    --      2.2707                 2.6618                 7.4174

                     13                     14                     15
                      A                      A                      A
 Frequencies --    436.0279               455.9868               507.9435
 Red. masses --      2.5053                 3.6651                 5.5382
 Frc consts  --      0.2806                 0.4490                 0.8419
 IR Inten    --      2.3975                 1.9098                 1.2726

                     16                     17                     18
                      A                      A                      A
 Frequencies --    537.1671               563.6132               590.1387
 Red. masses --     13.9774                 3.9542                 8.2198
 Frc consts  --      2.3763                 0.7401                 1.6866
 IR Inten    --      8.9856                40.8731                 5.8625

                     19                     20                     21
                      A                      A                      A
 Frequencies --    638.6823               679.9211               710.9445
 Red. masses --      1.8534                 2.2907                 8.5013
 Frc consts  --      0.4454                 0.6239                 2.5317
 IR Inten    --     64.9726                29.6766                10.0557

                     22                     23                     24
                      A                      A                      A
 Frequencies --    730.0623               770.6422               817.2081
 Red. masses --     11.0516                 3.4400                10.9209
 Frc consts  --      3.4705                 1.2037                 4.2971
 IR Inten    --     12.3758                32.0760                10.3076

                     25                     26                     27
                      A                      A                      A
 Frequencies --    874.9197               910.3189               950.8082
 Red. masses --      3.2337                 2.5337                 1.8660
 Frc consts  --      1.4584                 1.2370                 0.9939
 IR Inten    --      3.7667                 1.0114                 1.6153

                     28                     29                     30
                      A                      A                      A
 Frequencies --   1012.4898              1046.7764              1081.6989
 Red. masses --      6.8395                 2.0140                 2.8680
 Frc consts  --      4.1310                 1.3002                 1.9771
 IR Inten    --      1.8062                 7.5931                12.2519

                     31                     32                     33
                      A                      A                      A
 Frequencies --   1100.4993              1122.9570              1158.8590
 Red. masses --      1.7538                11.8897                 2.8300
 Frc consts  --      1.2514                 8.8338                 2.2392
 IR Inten    --     51.3753                12.8271               127.1566

                     34                     35                     36
                      A                      A                      A
 Frequencies --   1206.5397              1245.4646              1272.2236
 Red. masses --      2.3714                 3.4190                 1.8104
 Frc consts  --      2.0339                 3.1247                 1.7264
 IR Inten    --     81.9752                94.4126                25.6945

                     37                     38                     39
                      A                      A                      A
 Frequencies --   1312.8517              1319.1565              1345.1634
 Red. masses --      4.5499                 1.6539                 4.8409
 Frc consts  --      4.6204                 1.6957                 5.1609
 IR Inten    --     23.8049                17.2087                32.9718

                     40                     41                     42
                      A                      A                      A
 Frequencies --   1367.0308              1406.8700              1430.4681
 Red. masses --      1.5302                 1.8583                 1.6007
 Frc consts  --      1.6849                 2.1670                 1.9298
 IR Inten    --     29.3102                 7.1603                28.2369

                     43                     44                     45
                      A                      A                      A
 Frequencies --   1452.4761              1492.4150              1507.1352
 Red. masses --      1.2700                 9.2213                 1.1251
 Frc consts  --      1.5786                12.1010                 1.5057
 IR Inten    --      6.4978                81.1030                10.8109

                     46                     47                     48
                      A                      A                      A
 Frequencies --   1521.5190              1528.7560              1575.9815
 Red. masses --      1.0582                 1.0652                11.6432
 Frc consts  --      1.4434                 1.4668                17.0382
 IR Inten    --      8.7614                 3.3842               305.6866

                     49                     50                     51
                      A                      A                      A
 Frequencies --   1854.1778              2310.2416              3080.2066
 Red. masses --      9.6260                13.9971                 1.0392
 Frc consts  --     19.4984                44.0153                 5.8090
 IR Inten    --    238.7520               643.0308                10.9665

                     52                     53                     54
                      A                      A                      A
 Frequencies --   3085.7156              3099.1337              3149.4350
 Red. masses --      1.0813                 1.0625                 1.1029
 Frc consts  --      6.0661                 6.0128                 6.4453
 IR Inten    --      7.0187                 9.0998                14.7308

                     55                     56                     57
                      A                      A                      A
 Frequencies --   3155.1874              3181.5941              3677.2711
 Red. masses --      1.1063                 1.1014                 1.0639
 Frc consts  --      6.4891                 6.5688                 8.4765
 IR Inten    --      7.7481                 5.2246                58.6858

 - Thermochemistry -
 -------------------
 Temperature   298.150 Kelvin.  Pressure   1.00000 Atm.
 Atom     1 has atomic number  6 and mass  12.00000

 Molecular mass:   197.06612 amu.
 Principal axes and moments of inertia in atomic units:
                           1         2         3
     Eigenvalues --  1597.091763662.494143919.30330
           X            0.99985  -0.00228  -0.01713
           Y            0.00326   0.99835   0.05735
           Z            0.01697  -0.05740   0.99821
 This molecule is an asymmetric top.
 Rotational symmetry number  1.
 Warning -- assumption of classical behavior for rotation
           may cause significant error
 Rotational temperatures (Kelvin)      0.05423     0.02365     0.02210
 Rotational constants (GHZ):           1.13002     0.49276     0.46048
 Zero-point vibrational energy     396592.2 (Joules/Mol)
                                   94.78780 (Kcal/Mol)
 Warning -- explicit consideration of  18 degrees of freedom as
           vibrations may cause significant error
 Vibrational temperatures:     30.02    46.78    90.31   121.55   151.87
          (Kelvin)            196.03   264.67   286.14   356.55   410.35
                              440.56   526.40   627.35   656.06   730.82
                              772.86   810.91   849.08   918.92   978.25
                             1022.89  1050.40  1108.78  1175.78  1258.81
                             1309.75  1368.00  1456.75  1506.08  1556.32
                             1583.37  1615.68  1667.34  1735.94  1791.95
                             1830.45  1888.90  1897.97  1935.39  1966.85
                             2024.17  2058.12  2089.79  2147.25  2168.43
                             2189.13  2199.54  2267.49  2667.75  3323.92
                             4431.73  4439.66  4458.96  4531.33  4539.61
                             4577.60  5290.77

 Zero-point correction=                           0.151054 (Hartree/Particle)
 Thermal correction to Energy=                    0.163824
 Thermal correction to Enthalpy=                  0.164768
 Thermal correction to Gibbs Free Energy=         0.109363
 Sum of electronic and zero-point Energies=           -728.237661
 Sum of electronic and thermal Energies=              -728.224890
 Sum of electronic and thermal Enthalpies=            -728.223946
 Sum of electronic and thermal Free Energies=         -728.279352

                     E (Thermal)             CV                S
                      KCal/Mol        Cal/Mol-Kelvin    Cal/Mol-Kelvin
 Total                  102.801             45.066            116.611
 Electronic               0.000              0.000              0.000
 Translational            0.889              2.981             41.740
 Rotational               0.889              2.981             31.506
 Vibrational            101.024             39.104             43.365
 Vibration     1          0.593              1.986              6.550
 Vibration     2          0.594              1.983              5.670
 Vibration     3          0.597              1.972              4.368
 Vibration     4          0.601              1.960              3.784
 Vibration     5          0.605              1.945              3.349
 Vibration     6          0.614              1.917              2.856
 Vibration     7          0.631              1.862              2.288
 Vibration     8          0.637              1.841              2.143
 Vibration     9          0.661              1.766              1.746
 Vibration    10          0.683              1.701              1.502
 Vibration    11          0.697              1.662              1.383
 Vibration    12          0.739              1.542              1.097
 Vibration    13          0.796              1.392              0.839
 Vibration    14          0.814              1.348              0.778
 Vibration    15          0.863              1.232              0.639
 Vibration    16          0.892              1.168              0.571
 Vibration    17          0.919              1.110              0.517
 Vibration    18          0.947              1.053              0.467

                           ! Non-Optimized Parameters !
 Normal termination of Gaussian 16 at Thu Dec 10 10:10:21 2020.

 ----------------------------------------------------------------------
 # B3LYP/6-311++G(d,p) empiricaldispersion=gd3bj scf=xqc pop=npa geom=c
 heck
 ----------------------------------------------------------------------

 ---------------------------------------
 CID_150240716_JID_4549_Energie_neutraal
 ---------------------------------------
 Structure from the checkpoint file:  "JID_4549.chk"
 Charge =  0 Multiplicity = 1

 SCF Done:  E(RB3LYP) =  -728.598409363     A.U. after   16 cycles
 Normal termination of Gaussian 16 at Thu Dec 10 10:13:37 2020.

 ----------------------------------------------------------------------
 # B3LYP/6-311++G(d,p) empiricaldispersion=gd3bj scf=xqc pop=npa geom=c
 heck
 ----------------------------------------------------------------------

 -------------------------------------
 CID_150240716_JID_4549_Energie_kation
 -------------------------------------
 Structure from the checkpoint file:  "JID_4549.chk"
 Charge =  1 Multiplicity = 2

 SCF Done:  E(UB3LYP) =  -728.248641384     A.U. after   27 cycles
 Normal termination of Gaussian 16 at Thu Dec 10 10:19:11 2020.
 Gaussian 16:  ES64L-G16RevA.03 25-Dec-2016

 ----------------------------------------------------------------------
 # B3LYP/6-311++G(d,p) empiricaldispersion=gd3bj scf=xqc pop=npa geom=c
 heck
 ----------------------------------------------------------------------

 ------------------------------------
 CID_150240716_JID_4549_Energie_anion
 ------------------------------------
 Structure from the checkpoint file:  "JID_4549.chk"
 Charge = -1 Multiplicity = 2

                         Standard orientation:
 ---------------------------------------------------------------------
 Center     Atomic      Atomic             Coordinates (Angstroms)
 Number     Number       Type             X           Y           Z
 ---------------------------------------------------------------------
      1          6           0       -2.041715    1.132680    1.646510
      2          6           0       -0.903117    0.170002    1.321125
      3          6           0       -1.373829   -1.214819    0.809152
      4          6           0       -1.884363   -1.146796   -0.613628
      5          8           0       -1.211476   -1.366332   -1.593881
      6          8           0       -3.183332   -0.767881   -0.675649
      7          7           0        0.011887    0.768476    0.341584
      8          6           0        1.274031    0.417077    0.024823
      9          7           0        1.695924    1.142523   -0.994583
     10          7           0        0.644654    1.944696   -1.315949
     11          7           0       -0.368506    1.732438   -0.541102
     12          7           0        1.935893   -0.568262    0.742374
     13          7           0        3.092160   -0.833455    0.352548
     14          7           0        4.143791   -1.184001    0.118932
     15          1           0       -2.674046    1.310066    0.775942
     16          1           0       -1.646618    2.091405    1.991949
     17          1           0       -2.654299    0.696858    2.441343
     18          1           0       -0.303770   -0.003442    2.220458
     19          1           0       -0.528559   -1.906034    0.815424
     20          1           0       -2.150896   -1.589183    1.481417
     21          1           0       -3.400000   -0.691750   -1.624831
 ---------------------------------------------------------------------

 SCF Done:  E(UB3LYP) =  -728.608561082     A.U. after   33 cycles
 SCF Done:  E(UB3LYP) =  -728.608561082     a.u. after    1 cycles

 The electronic state is 2-A.
 Alpha  occ. eigenvalues --  -19.08070 -19.01740 -14.32267 -14.29181 -14.26333
 Alpha  occ. eigenvalues --  -14.25498 -14.24364 -14.23993 -14.21356 -10.20696
 Alpha  occ. eigenvalues --  -10.16398 -10.13811 -10.08957 -10.07185  -1.02412
 Alpha  occ. eigenvalues --   -1.01747  -1.00491  -0.92717  -0.86537  -0.84183
 Alpha  occ. eigenvalues --   -0.76520  -0.71108  -0.63539  -0.58419  -0.57567
 Alpha  occ. eigenvalues --   -0.52511  -0.50631  -0.46327  -0.42223  -0.40708
 Alpha  occ. eigenvalues --   -0.39486  -0.38225  -0.37696  -0.36574  -0.35375
 Alpha  occ. eigenvalues --   -0.34359  -0.32203  -0.31815  -0.30801  -0.30309
 Alpha  occ. eigenvalues --   -0.27476  -0.26999  -0.25950  -0.23252  -0.22139
 Alpha  occ. eigenvalues --   -0.21357  -0.19663  -0.18546  -0.18189  -0.17039
 Alpha  occ. eigenvalues --   -0.12508   0.03996
 Alpha virt. eigenvalues --    0.06334   0.07328   0.08425   0.09036   0.09574
 Alpha virt. eigenvalues --    0.10298   0.11057   0.11276   0.12557   0.13456
 Alpha virt. eigenvalues --    0.14119   0.15469   0.15908   0.16763   0.17304

  Beta  occ. eigenvalues --  -19.08051 -19.01701 -14.31754 -14.29185 -14.26325
  Beta  occ. eigenvalues --  -14.25499 -14.24421 -14.23422 -14.21360 -10.20628
  Beta  occ. eigenvalues --  -10.16319 -10.13777 -10.08936 -10.07166  -1.02333
  Beta  occ. eigenvalues --   -1.01674  -0.99655  -0.92652  -0.86173  -0.84151
  Beta  occ. eigenvalues --   -0.76415  -0.71034  -0.63456  -0.58173  -0.57475
  Beta  occ. eigenvalues --   -0.52427  -0.50454  -0.46219  -0.42122  -0.40611
  Beta  occ. eigenvalues --   -0.39412  -0.37880  -0.36614  -0.35447  -0.35201
  Beta  occ. eigenvalues --   -0.34172  -0.31749  -0.30890  -0.30698  -0.30239
  Beta  occ. eigenvalues --   -0.27432  -0.26937  -0.25911  -0.23081  -0.22007
  Beta  occ. eigenvalues --   -0.20360  -0.19649  -0.18476  -0.18163  -0.16827
  Beta  occ. eigenvalues --   -0.12401
  Beta virt. eigenvalues --    0.06673   0.07754   0.08793   0.09220   0.09998
  Beta virt. eigenvalues --    0.10503   0.11285   0.11615   0.11779   0.12826
  Beta virt. eigenvalues --    0.13527   0.14119   0.15451   0.15918   0.16855

 Mulliken charges and spin densities:
               1          2
     1  C    0.315890  -0.954432
     2  C   -0.546261   0.624962
     3  C    0.641484  -1.122961
     4  C   -0.125971   0.073197
     5  O   -0.289123   0.021891
     6  O   -0.135730   0.001622
     7  N    0.165007  -0.047696
     8  C    0.201672  -0.268354
     9  N   -0.240776   0.009231
    10  N    0.078578  -0.048760
    11  N   -0.124613   0.053583
    12  N   -1.144252   0.662106
    13  N    1.053231  -0.207980
    14  N   -0.154132   0.048192
    15  H    0.173222   0.026467
    16  H    0.123317   0.047902
    17  H   -0.189083   0.333630
    18  H   -0.715193   0.974421
    19  H    0.059342   0.144896
    20  H   -0.311845   0.519105
    21  H    0.165236   0.108977
 Sum of Mulliken charges =  -1.00000   1.00000

 Dipole moment (field-independent basis, Debye):
    X=             -5.0373    Y=              0.8042    Z=             -0.3437  Tot=              5.1127
 Quadrupole moment (field-independent basis, Debye-Ang):
   XX=           -126.1942   YY=           -105.2605   ZZ=           -110.8813
   XY=              2.3876   XZ=              8.9376   YZ=              8.2447

 Summary of Natural Population Analysis:

                                       Natural Population
                Natural  -----------------------------------------------
    Atom  No    Charge         Core      Valence    Rydberg      Total
 -----------------------------------------------------------------------
      C    1   -0.28960      0.99964     2.28345    0.00651     3.28960
      C    2   -0.00304      0.99959     1.98908    0.01436     3.00304
      C    3   -0.24288      0.99955     2.23347    0.00985     3.24288
      C    4    0.41001      0.99972     1.56398    0.02629     2.58999
      O    5   -0.29674      0.99987     3.29072    0.00616     4.29674
      O    6   -0.34777      0.99988     3.34153    0.00637     4.34777
      N    7   -0.13311      0.99958     2.61789    0.01564     3.63311
      C    8    0.26991      0.99956     1.70999    0.02055     2.73009
      N    9   -0.18455      0.99968     2.67300    0.01187     3.68455
      N   10   -0.04313      0.99981     2.52527    0.01805     3.54313
      N   11   -0.05393      0.99978     2.53892    0.01523     3.55393
      N   12   -0.22245      0.99965     2.70959    0.01321     3.72245
      N   13    0.17157      0.99970     2.31304    0.01568     3.32843
      N   14    0.05456      0.99981     2.43358    0.01205     3.44544
      H   15    0.10997      0.00000     0.38836    0.00166     0.39003
      H   16    0.10474      0.00000     0.39431    0.00096     0.39526
      H   17    0.10360      0.00000     0.39541    0.00098     0.39640
      H   18    0.11567      0.00000     0.38060    0.00373     0.38433
      H   19    0.12359      0.00000     0.37493    0.00148     0.37641
      H   20    0.11492      0.00000     0.38294    0.00214     0.38508
      H   21    0.23866      0.00000     0.25821    0.00313     0.26134
 =======================================================================
   * Total *    0.00000     13.99582    36.79827    0.20591    51.00000

 Normal termination of Gaussian 16 at Thu Dec 10 10:25:42 2020.
