 Gaussian 16, Revision A.03,

 -----------------------------------------------------------
 # opt freq B3LYP/6-31G(d) empiricaldispersion=gd3bj scf=xqc
 -----------------------------------------------------------

 -----------------------------
 CID_21861706_JID_637_neutraal
 -----------------------------
 Symbolic Z-matrix:
 Charge =  0 Multiplicity = 1

 SCF Done:  E(RB3LYP) =  -459.863428878     A.U. after   14 cycles
 SCF Done:  E(RB3LYP) =  -459.868984044     A.U. after   12 cycles
 SCF Done:  E(RB3LYP) =  -459.870224990     A.U. after   12 cycles
 SCF Done:  E(RB3LYP) =  -459.870570071     A.U. after   12 cycles
 SCF Done:  E(RB3LYP) =  -459.870645717     A.U. after   11 cycles
 SCF Done:  E(RB3LYP) =  -459.870684805     A.U. after   10 cycles
 SCF Done:  E(RB3LYP) =  -459.870775253     A.U. after   12 cycles
 SCF Done:  E(RB3LYP) =  -459.870806912     A.U. after   12 cycles
 SCF Done:  E(RB3LYP) =  -459.870847355     A.U. after   10 cycles
 SCF Done:  E(RB3LYP) =  -459.870899378     A.U. after   10 cycles
 SCF Done:  E(RB3LYP) =  -459.870906039     A.U. after   11 cycles
 SCF Done:  E(RB3LYP) =  -459.870906522     A.U. after    7 cycles
 SCF Done:  E(RB3LYP) =  -459.870906734     A.U. after    8 cycles
 SCF Done:  E(RB3LYP) =  -459.870906816     A.U. after    8 cycles
 Optimization completed.
    -- Stationary point found.
 Normal termination of Gaussian 16 at Tue Dec  8 12:26:58 2020.

 --------------------------------------------------------------------
 #N Geom=AllCheck Guess=TCheck SCRF=Check GenChk RB3LYP/6-31G(d) Freq
 --------------------------------------------------------------------

 Structure from the checkpoint file:  "JID_637.chk"
 -----------------------------
 CID_21861706_JID_637_neutraal
 -----------------------------
 Charge =  0 Multiplicity = 1

 SCF Done:  E(RB3LYP) =  -459.870906816     A.U. after    1 cycles

  Exact polarizability:  98.592  -0.331  83.645   1.859   2.388  77.256
 Approx polarizability: 150.057  -2.848 118.970   1.443   5.127 111.185

                      1                      2                      3
                      A                      A                      A
 Frequencies --     51.7909               160.4127               232.6886
 Red. masses --      4.1042                 3.5150                 1.2296
 Frc consts  --      0.0065                 0.0533                 0.0392
 IR Inten    --      0.8587                 1.1871                 0.6084

                      4                      5                      6
                      A                      A                      A
 Frequencies --    254.3126               275.4279               289.4998
 Red. masses --      1.2181                 2.6684                 1.8122
 Frc consts  --      0.0464                 0.1193                 0.0895
 IR Inten    --      0.3697                 0.7690                 0.2993

                      7                      8                      9
                      A                      A                      A
 Frequencies --    302.0612               318.9206               327.6428
 Red. masses --      1.3273                 1.9040                 1.1391
 Frc consts  --      0.0714                 0.1141                 0.0720
 IR Inten    --      0.3552                 0.8003                 0.2604

                     10                     11                     12
                      A                      A                      A
 Frequencies --    346.1251               359.3888               380.9252
 Red. masses --      2.2789                 2.5052                 1.9775
 Frc consts  --      0.1609                 0.1906                 0.1691
 IR Inten    --      1.0861                 0.5806                 4.5665

                     13                     14                     15
                      A                      A                      A
 Frequencies --    385.1186               410.6814               485.3802
 Red. masses --      1.1995                 2.8456                 2.8084
 Frc consts  --      0.1048                 0.2828                 0.3898
 IR Inten    --    101.8727                 2.2957                 3.1738

                     16                     17                     18
                      A                      A                      A
 Frequencies --    540.2753               567.4359               627.2379
 Red. masses --      3.6060                 3.9164                 3.6742
 Frc consts  --      0.6202                 0.7430                 0.8517
 IR Inten    --      1.9051                16.0627                14.4852

                     19                     20                     21
                      A                      A                      A
 Frequencies --    663.1103               747.5706               792.0639
 Red. masses --      3.7571                 3.8980                 3.1997
 Frc consts  --      0.9734                 1.2835                 1.1827
 IR Inten    --      4.6057                16.0988                 3.6003

                     22                     23                     24
                      A                      A                      A
 Frequencies --    860.0499               946.7518               949.8185
 Red. masses --      3.1315                 1.7360                 1.7701
 Frc consts  --      1.3647                 0.9168                 0.9409
 IR Inten    --      7.0649                 0.1555                 1.5530

                     25                     26                     27
                      A                      A                      A
 Frequencies --    958.1462               975.6382               989.2695
 Red. masses --      1.4395                 1.6071                 1.8477
 Frc consts  --      0.7786                 0.9013                 1.0654
 IR Inten    --      1.2372                 2.6314                 0.2347

                     28                     29                     30
                      A                      A                      A
 Frequencies --   1010.3856              1033.3873              1051.5145
 Red. masses --      2.8521                 1.3075                 1.6372
 Frc consts  --      1.7155                 0.8227                 1.0666
 IR Inten    --     27.7795                 0.3868                12.6799

                     31                     32                     33
                      A                      A                      A
 Frequencies --   1142.9006              1185.6227              1190.1106
 Red. masses --      4.7299                 2.4361                 2.2969
 Frc consts  --      3.6401                 2.0176                 1.9168
 IR Inten    --     35.8010                11.4536                14.1435

                     34                     35                     36
                      A                      A                      A
 Frequencies --   1197.5835              1258.5281              1275.2331
 Red. masses --      2.1837                 3.1236                 3.5849
 Frc consts  --      1.8453                 2.9149                 3.4348
 IR Inten    --     27.1656                 8.9607                 2.2759

                     37                     38                     39
                      A                      A                      A
 Frequencies --   1303.0225              1337.9312              1393.7766
 Red. masses --      3.2573                 1.2831                 1.2090
 Frc consts  --      3.2585                 1.3532                 1.3837
 IR Inten    --      4.2220                13.9044                69.0754

                     40                     41                     42
                      A                      A                      A
 Frequencies --   1423.5161              1430.5502              1441.4427
 Red. masses --      1.2740                 1.2422                 1.2496
 Frc consts  --      1.5211                 1.4978                 1.5297
 IR Inten    --      2.5930                11.6040                 8.3951

                     43                     44                     45
                      A                      A                      A
 Frequencies --   1453.0780              1505.3856              1513.8151
 Red. masses --      1.2178                 1.0495                 1.0473
 Frc consts  --      1.5150                 1.4012                 1.4140
 IR Inten    --      4.6164                 0.3432                 0.4047

                     46                     47                     48
                      A                      A                      A
 Frequencies --   1516.6584              1518.0917              1533.4900
 Red. masses --      1.0498                 1.0493                 1.0492
 Frc consts  --      1.4227                 1.4248                 1.4536
 IR Inten    --      1.0112                11.0064                 6.0884

                     49                     50                     51
                      A                      A                      A
 Frequencies --   1536.9131              1538.1769              1553.1006
 Red. masses --      1.0511                 1.0564                 1.0506
 Frc consts  --      1.4629                 1.4726                 1.4931
 IR Inten    --      4.3116                 3.1383                 6.8295

                     52                     53                     54
                      A                      A                      A
 Frequencies --   1697.4297              3054.7251              3058.9635
 Red. masses --      8.8016                 1.0357                 1.0358
 Frc consts  --     14.9415                 5.6942                 5.7104
 IR Inten    --     74.7868                 8.2514                21.3442

                     55                     56                     57
                      A                      A                      A
 Frequencies --   3060.1149              3065.7091              3117.1735
 Red. masses --      1.0387                 1.0383                 1.1020
 Frc consts  --      5.7311                 5.7494                 6.3087
 IR Inten    --     16.7846                30.9153                11.2846

                     58                     59                     60
                      A                      A                      A
 Frequencies --   3123.4430              3130.4077              3132.9065
 Red. masses --      1.1011                 1.1020                 1.1031
 Frc consts  --      6.3290                 6.3626                 6.3792
 IR Inten    --      7.4894                24.5861                25.9282

                     61                     62                     63
                      A                      A                      A
 Frequencies --   3136.4683              3138.3353              3149.8155
 Red. masses --      1.1027                 1.1030                 1.1006
 Frc consts  --      6.3912                 6.4005                 6.4334
 IR Inten    --     32.8979                30.9150                22.8993

                     64                     65                     66
                      A                      A                      A
 Frequencies --   3178.7089              3205.1065              3732.8897
 Red. masses --      1.0972                 1.0949                 1.0685
 Frc consts  --      6.5319                 6.6267                 8.7726
 IR Inten    --     12.7827                24.7606                38.0563

 - Thermochemistry -
 -------------------
 Temperature   298.150 Kelvin.  Pressure   1.00000 Atm.
 Atom     1 has atomic number  6 and mass  12.00000

 Molecular mass:   142.11061 amu.
 Principal axes and moments of inertia in atomic units:
                           1         2         3
     Eigenvalues --  1032.586771358.022231527.00546
           X            0.99990  -0.00776   0.01175
           Y            0.00855   0.99754  -0.06953
           Z           -0.01118   0.06962   0.99751
 This molecule is an asymmetric top.
 Rotational symmetry number  1.
 Warning -- assumption of classical behavior for rotation
           may cause significant error
 Rotational temperatures (Kelvin)      0.08388     0.06378     0.05672
 Rotational constants (GHZ):           1.74779     1.32895     1.18188
 Zero-point vibrational energy     553417.4 (Joules/Mol)
                                  132.26992 (Kcal/Mol)
 Warning -- explicit consideration of  17 degrees of freedom as
           vibrations may cause significant error
 Vibrational temperatures:     74.52   230.80   334.79   365.90   396.28
          (Kelvin)            416.53   434.60   458.86   471.40   498.00
                              517.08   548.07   554.10   590.88   698.35
                              777.34   816.41   902.46   954.07  1075.59
                             1139.60  1237.42  1362.16  1366.58  1378.56
                             1403.73  1423.34  1453.72  1486.81  1512.89
                             1644.38  1705.85  1712.30  1723.06  1810.74
                             1834.78  1874.76  1924.98  2005.33  2048.12
                             2058.24  2073.91  2090.66  2165.91  2178.04
                             2182.13  2184.20  2206.35  2211.28  2213.09
                             2234.57  2442.22  4395.07  4401.17  4402.82
                             4410.87  4484.92  4493.94  4503.96  4507.55
                             4512.68  4515.36  4531.88  4573.45  4611.43
                             5370.80

 Zero-point correction=                           0.210786 (Hartree/Particle)
 Thermal correction to Energy=                    0.221443
 Thermal correction to Enthalpy=                  0.222388
 Thermal correction to Gibbs Free Energy=         0.176063
 Sum of electronic and zero-point Energies=           -459.660121
 Sum of electronic and thermal Energies=              -459.649463
 Sum of electronic and thermal Enthalpies=            -459.648519
 Sum of electronic and thermal Free Energies=         -459.694844

                     E (Thermal)             CV                S
                      KCal/Mol        Cal/Mol-Kelvin    Cal/Mol-Kelvin
 Total                  138.958             42.374             97.498
 Electronic               0.000              0.000              0.000
 Translational            0.889              2.981             40.766
 Rotational               0.889              2.981             29.150
 Vibrational            137.180             36.412             27.582
 Vibration     1          0.596              1.977              4.748
 Vibration     2          0.622              1.891              2.545
 Vibration     3          0.653              1.791              1.858
 Vibration     4          0.665              1.756              1.700
 Vibration     5          0.677              1.719              1.562
 Vibration     6          0.686              1.693              1.477
 Vibration     7          0.694              1.670              1.405
 Vibration     8          0.705              1.637              1.316
 Vibration     9          0.711              1.620              1.272
 Vibration    10          0.724              1.583              1.184
 Vibration    11          0.734              1.556              1.125
 Vibration    12          0.751              1.511              1.035
 Vibration    13          0.754              1.502              1.019
 Vibration    14          0.775              1.447              0.924
 Vibration    15          0.841              1.282              0.696
 Vibration    16          0.895              1.161              0.565
 Vibration    17          0.923              1.102              0.509

 Optimization completed.
    -- Stationary point found.
 Normal termination of Gaussian 16 at Tue Dec  8 12:39:27 2020.

 ----------------------------------------------------------------------
 # B3LYP/6-311++G(d,p) empiricaldispersion=gd3bj scf=xqc pop=npa geom=c
 heck
 ----------------------------------------------------------------------

 -------------------------------------
 CID_21861706_JID_637_Energie_neutraal
 -------------------------------------
 Structure from the checkpoint file:  "JID_637.chk"
 Charge =  0 Multiplicity = 1

 SCF Done:  E(RB3LYP) =  -460.008924596     A.U. after   14 cycles
 Normal termination of Gaussian 16 at Tue Dec  8 12:43:16 2020.

 ----------------------------------------------------------------------
 # B3LYP/6-311++G(d,p) empiricaldispersion=gd3bj scf=xqc pop=npa geom=c
 heck
 ----------------------------------------------------------------------

 -----------------------------------
 CID_21861706_JID_637_Energie_kation
 -----------------------------------
 Structure from the checkpoint file:  "JID_637.chk"
 Charge =  1 Multiplicity = 2

 SCF Done:  E(UB3LYP) =  -459.691822075     A.U. after   22 cycles
 Normal termination of Gaussian 16 at Tue Dec  8 12:50:18 2020.
 Gaussian 16:  ES64L-G16RevA.03 25-Dec-2016

 ----------------------------------------------------------------------
 # B3LYP/6-311++G(d,p) empiricaldispersion=gd3bj scf=xqc pop=npa geom=c
 heck
 ----------------------------------------------------------------------

 ----------------------------------
 CID_21861706_JID_637_Energie_anion
 ----------------------------------
 Structure from the checkpoint file:  "JID_637.chk"
 Charge = -1 Multiplicity = 2

                         Standard orientation:
 ---------------------------------------------------------------------
 Center     Atomic      Atomic             Coordinates (Angstroms)
 Number     Number       Type             X           Y           Z
 ---------------------------------------------------------------------
      1          6           0        1.116580   -0.865334    1.539064
      2          6           0        0.990014   -0.301525    0.114044
      3          6           0       -0.209639    0.704657   -0.050290
      4          7           0       -1.322792   -0.200860   -0.528605
      5          6           0       -0.651085   -1.378004   -0.939616
      6          7           0        0.603096   -1.459077   -0.742784
      7          8           0       -2.287605   -0.561637    0.484120
      8          6           0       -0.596168    1.479939    1.203932
      9          6           0        0.007504    1.686288   -1.213190
     10          6           0        2.347155    0.242292   -0.336357
     11          1           0        1.821142   -1.702491    1.533615
     12          1           0        0.153569   -1.236891    1.901768
     13          1           0        1.486839   -0.104702    2.235029
     14          1           0       -1.239382   -2.148391   -1.431910
     15          1           0       -3.084965   -0.094193    0.187904
     16          1           0        0.241166    2.117965    1.506664
     17          1           0       -1.453780    2.130776    1.001801
     18          1           0       -0.856827    0.826179    2.035480
     19          1           0        0.248629    1.158875   -2.140965
     20          1           0       -0.911846    2.255581   -1.380522
     21          1           0        0.817054    2.389871   -0.995615
     22          1           0        2.633042    1.119286    0.255667
     23          1           0        3.110574   -0.528767   -0.194907
     24          1           0        2.347328    0.519673   -1.392770
 ---------------------------------------------------------------------

 SCF Done:  E(UB3LYP) =  -459.995728294     A.U. after   31 cycles

 The electronic state is 2-A.
 Alpha  occ. eigenvalues --  -19.03065 -14.24304 -14.17912 -10.10780 -10.09731
 Alpha  occ. eigenvalues --  -10.09579 -10.05001 -10.04844 -10.04434 -10.04215
 Alpha  occ. eigenvalues --   -0.94866  -0.83762  -0.71476  -0.68906  -0.62025
 Alpha  occ. eigenvalues --   -0.59029  -0.56299  -0.52478  -0.44746  -0.43568
 Alpha  occ. eigenvalues --   -0.40014  -0.37780  -0.33717  -0.33497  -0.33088
 Alpha  occ. eigenvalues --   -0.31593  -0.28879  -0.28375  -0.28032  -0.26168
 Alpha  occ. eigenvalues --   -0.25540  -0.25262  -0.24785  -0.23288  -0.22529
 Alpha  occ. eigenvalues --   -0.20030  -0.18737  -0.14970  -0.11563   0.05115
 Alpha virt. eigenvalues --    0.07557   0.08890   0.09022   0.09537   0.10748
 Alpha virt. eigenvalues --    0.11124   0.11471   0.11835   0.12356   0.13431
 Alpha virt. eigenvalues --    0.14317   0.14834   0.15284   0.16385   0.16816

  Beta  occ. eigenvalues --  -19.02945 -14.24290 -14.17798 -10.10730 -10.09725
  Beta  occ. eigenvalues --  -10.09582 -10.04969 -10.04829 -10.04408 -10.04169
  Beta  occ. eigenvalues --   -0.94630  -0.83581  -0.71349  -0.68844  -0.61947
  Beta  occ. eigenvalues --   -0.58975  -0.56233  -0.52385  -0.44627  -0.43496
  Beta  occ. eigenvalues --   -0.39880  -0.37715  -0.33651  -0.33416  -0.33027
  Beta  occ. eigenvalues --   -0.31504  -0.28825  -0.28326  -0.27988  -0.26084
  Beta  occ. eigenvalues --   -0.25499  -0.25204  -0.24713  -0.23228  -0.22420
  Beta  occ. eigenvalues --   -0.19772  -0.18612  -0.14816  -0.11399
  Beta virt. eigenvalues --    0.07634   0.08973   0.09203   0.09465   0.09837
  Beta virt. eigenvalues --    0.11082   0.11820   0.11858   0.12390   0.12780
  Beta virt. eigenvalues --    0.14055   0.14686   0.15015   0.15650   0.16500

 Mulliken charges and spin densities:
               1          2
     1  C   -0.188178  -0.303098
     2  C   -0.886795   0.944344
     3  C   -1.879171   1.348393
     4  N    0.174133  -0.121274
     5  C   -0.082940   0.199907
     6  N   -0.036216   0.083804
     7  O   -0.209420   0.138548
     8  C    2.551377  -3.098599
     9  C    0.277653  -0.653897
    10  C    0.797092  -1.382631
    11  H    0.101700   0.053658
    12  H    0.015859   0.158484
    13  H    0.053952   0.067531
    14  H   -0.073630   0.226670
    15  H   -0.300161   0.601946
    16  H   -0.093736   0.243941
    17  H   -0.453126   0.619344
    18  H   -0.185351   0.363855
    19  H    0.029693   0.137380
    20  H   -0.347492   0.532808
    21  H   -0.074453   0.199109
    22  H   -0.214173   0.369566
    23  H    0.129119   0.017357
    24  H   -0.105737   0.252856
 Sum of Mulliken charges =  -1.00000   1.00000

 Dipole moment (field-independent basis, Debye):
    X=              4.6709    Y=             -2.2741    Z=             -0.6496  Tot=              5.2356
 Quadrupole moment (field-independent basis, Debye-Ang):
   XX=           -113.9770   YY=            -96.7704   ZZ=            -88.3529
   XY=              3.4866   XZ=              4.8312   YZ=             -1.5544

 Summary of Natural Population Analysis:

                                       Natural Population
                Natural  -----------------------------------------------
    Atom  No    Charge         Core      Valence    Rydberg      Total
 -----------------------------------------------------------------------
      C    1   -0.28902      0.99961     2.28290    0.00651     3.28902
      C    2    0.04404      0.99952     1.94031    0.01613     2.95596
      C    3    0.05881      0.99952     1.92370    0.01797     2.94119
      N    4   -0.13885      0.99962     2.62135    0.01788     3.63885
      C    5    0.14877      0.99959     1.83299    0.01866     2.85123
      N    6   -0.23484      0.99971     2.72432    0.01081     3.73484
      O    7   -0.28914      0.99991     3.28176    0.00747     4.28914
      C    8   -0.29392      0.99960     2.28626    0.00806     3.29392
      C    9   -0.28709      0.99961     2.27971    0.00777     3.28709
      C   10   -0.28793      0.99961     2.28030    0.00802     3.28793
      H   11    0.10147      0.00000     0.39756    0.00097     0.39853
      H   12    0.10703      0.00000     0.39192    0.00105     0.39297
      H   13    0.09873      0.00000     0.40042    0.00085     0.40127
      H   14    0.08793      0.00000     0.41099    0.00108     0.41207
      H   15    0.24313      0.00000     0.22885    0.02802     0.25687
      H   16    0.10066      0.00000     0.39796    0.00138     0.39934
      H   17    0.10822      0.00000     0.38971    0.00207     0.39178
      H   18    0.11090      0.00000     0.38753    0.00157     0.38910
      H   19    0.10151      0.00000     0.39742    0.00107     0.39849
      H   20    0.10661      0.00000     0.39181    0.00158     0.39339
      H   21    0.09844      0.00000     0.40055    0.00101     0.40156
      H   22    0.09969      0.00000     0.39929    0.00102     0.40031
      H   23    0.10099      0.00000     0.39804    0.00096     0.39901
      H   24    0.10385      0.00000     0.39529    0.00086     0.39615
 =======================================================================
   * Total *   -0.00000      9.99628    28.84095    0.16277    39.00000

 Normal termination of Gaussian 16 at Tue Dec  8 13:04:43 2020.
