 Gaussian 16, Revision A.03,

 -----------------------------------------------------------
 # opt freq B3LYP/6-31G(d) empiricaldispersion=gd3bj scf=xqc
 -----------------------------------------------------------

 ------------------------------
 CID_152055295_JID_362_neutraal
 ------------------------------
 Symbolic Z-matrix:
 Charge =  0 Multiplicity = 1

 SCF Done:  E(RB3LYP) =  -485.594665765     A.U. after   19 cycles
 SCF Done:  E(RB3LYP) =  -485.605020119     A.U. after   16 cycles
 SCF Done:  E(RB3LYP) =  -485.611095711     A.U. after   15 cycles
 SCF Done:  E(RB3LYP) =  -485.617193856     A.U. after   15 cycles
 SCF Done:  E(RB3LYP) =  -485.620207905     A.U. after   14 cycles
 SCF Done:  E(RB3LYP) =  -485.621914167     A.U. after   14 cycles
 SCF Done:  E(RB3LYP) =  -485.622890003     A.U. after   16 cycles
 SCF Done:  E(RB3LYP) =  -485.623752413     A.U. after   15 cycles
 SCF Done:  E(RB3LYP) =  -485.624230138     A.U. after   16 cycles
 SCF Done:  E(RB3LYP) =  -485.624301460     A.U. after   11 cycles
 SCF Done:  E(RB3LYP) =  -485.624404450     A.U. after   12 cycles
 SCF Done:  E(RB3LYP) =  -485.624436500     A.U. after   12 cycles
 SCF Done:  E(RB3LYP) =  -485.624451042     A.U. after   11 cycles
 SCF Done:  E(RB3LYP) =  -485.624453379     A.U. after   10 cycles
 SCF Done:  E(RB3LYP) =  -485.624453875     A.U. after    9 cycles
 SCF Done:  E(RB3LYP) =  -485.624453920     A.U. after    8 cycles
 Optimization completed.
    -- Stationary point found.
 Normal termination of Gaussian 16 at Tue Dec  8 10:28:37 2020.

 --------------------------------------------------------------------
 #N Geom=AllCheck Guess=TCheck SCRF=Check GenChk RB3LYP/6-31G(d) Freq
 --------------------------------------------------------------------

 Structure from the checkpoint file:  "JID_362.chk"
 ------------------------------
 CID_152055295_JID_362_neutraal
 ------------------------------
 Charge =  0 Multiplicity = 1

 SCF Done:  E(RB3LYP) =  -485.624453920     A.U. after    1 cycles

  Exact polarizability: 132.701   3.404  78.297   6.139   2.165  49.385
 Approx polarizability: 215.023  13.539 110.000  20.435   7.687  83.417

                      1                      2                      3
                      A                      A                      A
 Frequencies --     39.8275                72.2657               160.1441
 Red. masses --      7.2901                 3.1464                 3.2874
 Frc consts  --      0.0068                 0.0097                 0.0497
 IR Inten    --      0.5340                 0.5994                 6.1224

                      4                      5                      6
                      A                      A                      A
 Frequencies --    181.7811               239.3393               246.9763
 Red. masses --      4.6332                 1.3555                 1.1352
 Frc consts  --      0.0902                 0.0457                 0.0408
 IR Inten    --      1.7922                33.5138                 0.1611

                      7                      8                      9
                      A                      A                      A
 Frequencies --    277.8428               301.8144               354.8210
 Red. masses --      2.3294                 3.0054                 3.6632
 Frc consts  --      0.1059                 0.1613                 0.2717
 IR Inten    --      9.5391                 5.2951                11.0926

                     10                     11                     12
                      A                      A                      A
 Frequencies --    415.3250               444.7470               514.4177
 Red. masses --      3.6836                 4.9742                 3.7906
 Frc consts  --      0.3744                 0.5797                 0.5910
 IR Inten    --     31.6935                 3.1569                17.0975

                     13                     14                     15
                      A                      A                      A
 Frequencies --    569.8346               620.7309               624.9184
 Red. masses --     13.5991                 4.4399                 5.2238
 Frc consts  --      2.6017                 1.0079                 1.2019
 IR Inten    --      5.1883                 8.5431                16.2251

                     16                     17                     18
                      A                      A                      A
 Frequencies --    694.4757               720.8394               801.4232
 Red. masses --      4.5898                 1.5720                 1.4214
 Frc consts  --      1.3042                 0.4813                 0.5379
 IR Inten    --     31.2000                18.2289               310.0423

                     19                     20                     21
                      A                      A                      A
 Frequencies --    838.4214               931.0755               997.9436
 Red. masses --      5.5192                 4.9114                 4.5461
 Frc consts  --      2.2859                 2.5086                 2.6675
 IR Inten    --     28.7530                14.1081                 7.4131

                     22                     23                     24
                      A                      A                      A
 Frequencies --   1056.8942              1081.2703              1114.3195
 Red. masses --      1.9943                 3.4755                 1.6033
 Frc consts  --      1.3125                 2.3941                 1.1730
 IR Inten    --     12.5458                 6.6466                 7.2579

                     25                     26                     27
                      A                      A                      A
 Frequencies --   1150.4487              1164.3946              1171.8692
 Red. masses --      1.6270                 2.7209                 1.4183
 Frc consts  --      1.2688                 2.1735                 1.1476
 IR Inten    --      4.2935                31.9950                 9.8672

                     28                     29                     30
                      A                      A                      A
 Frequencies --   1219.0219              1234.7966              1291.6985
 Red. masses --      3.8425                 1.3909                 2.6916
 Frc consts  --      3.3642                 1.2495                 2.6460
 IR Inten    --    127.6336                17.2614                30.7785

                     31                     32                     33
                      A                      A                      A
 Frequencies --   1324.3478              1373.3169              1439.5764
 Red. masses --      1.8084                 2.9044                 1.5736
 Frc consts  --      1.8688                 3.2274                 1.9214
 IR Inten    --     51.4975                70.6258                22.1728

                     34                     35                     36
                      A                      A                      A
 Frequencies --   1483.5006              1516.6044              1532.5285
 Red. masses --      1.2093                 1.0450                 1.0556
 Frc consts  --      1.5681                 1.4162                 1.4608
 IR Inten    --      0.5814                16.2257                 3.5918

                     37                     38                     39
                      A                      A                      A
 Frequencies --   1555.2183              1671.5525              1766.1551
 Red. masses --      1.0943                 1.1399                 6.5534
 Frc consts  --      1.5594                 1.8765                12.0442
 IR Inten    --      4.3064                54.6512                46.9746

                     40                     41                     42
                      A                      A                      A
 Frequencies --   2229.0471              2923.2090              2958.9897
 Red. masses --     13.9472                 1.0736                 1.0587
 Frc consts  --     40.8296                 5.4051                 5.4614
 IR Inten    --    635.0727                52.7991               122.6924

                     43                     44                     45
                      A                      A                      A
 Frequencies --   3087.7078              3097.2274              3130.5808
 Red. masses --      1.0750                 1.0909                 1.1036
 Frc consts  --      6.0383                 6.1656                 6.3726
 IR Inten    --     37.0334                43.0418                22.3124

                     46                     47                     48
                      A                      A                      A
 Frequencies --   3255.7563              3500.3781              3609.7867
 Red. masses --      1.0963                 1.0513                 1.0919
 Frc consts  --      6.8466                 7.5895                 8.3832
 IR Inten    --      7.9673                 6.7156                 9.6907

 - Thermochemistry -
 -------------------
 Temperature   298.150 Kelvin.  Pressure   1.00000 Atm.
 Atom     1 has atomic number  6 and mass  12.00000

 Molecular mass:   140.08104 amu.
 Principal axes and moments of inertia in atomic units:
                           1         2         3
     Eigenvalues --   692.939632005.046172581.29500
           X            0.99950  -0.03118   0.00564
           Y            0.03116   0.99951   0.00425
           Z           -0.00577  -0.00407   0.99998
 This molecule is an asymmetric top.
 Rotational symmetry number  1.
 Warning -- assumption of classical behavior for rotation
           may cause significant error
 Rotational temperatures (Kelvin)      0.12499     0.04320     0.03355
 Rotational constants (GHZ):           2.60447     0.90010     0.69916
 Zero-point vibrational energy     370777.5 (Joules/Mol)
                                   88.61796 (Kcal/Mol)
 Warning -- explicit consideration of  14 degrees of freedom as
           vibrations may cause significant error
 Vibrational temperatures:     57.30   103.97   230.41   261.54   344.36
          (Kelvin)            355.34   399.75   434.24   510.51   597.56
                              639.89   740.13   819.86   893.09   899.12
                              999.20  1037.13  1153.07  1206.30  1339.61
                             1435.82  1520.64  1555.71  1603.26  1655.24
                             1675.30  1686.06  1753.90  1776.60  1858.47
                             1905.44  1975.90  2071.23  2134.43  2182.06
                             2204.97  2237.61  2404.99  2541.10  3207.10
                             4205.85  4257.33  4442.52  4456.22  4504.21
                             4684.31  5036.26  5193.68

 Zero-point correction=                           0.141222 (Hartree/Particle)
 Thermal correction to Energy=                    0.151058
 Thermal correction to Enthalpy=                  0.152002
 Thermal correction to Gibbs Free Energy=         0.105587
 Sum of electronic and zero-point Energies=           -485.483232
 Sum of electronic and thermal Energies=              -485.473396
 Sum of electronic and thermal Enthalpies=            -485.472452
 Sum of electronic and thermal Free Energies=         -485.518867

                     E (Thermal)             CV                S
                      KCal/Mol        Cal/Mol-Kelvin    Cal/Mol-Kelvin
 Total                   94.790             35.764             97.689
 Electronic               0.000              0.000              0.000
 Translational            0.889              2.981             40.723
 Rotational               0.889              2.981             29.663
 Vibrational             93.013             29.803             27.304
 Vibration     1          0.594              1.981              5.268
 Vibration     2          0.598              1.967              4.091
 Vibration     3          0.622              1.891              2.548
 Vibration     4          0.630              1.865              2.310
 Vibration     5          0.657              1.780              1.808
 Vibration     6          0.661              1.768              1.752
 Vibration     7          0.679              1.714              1.547
 Vibration     8          0.694              1.670              1.407
 Vibration     9          0.731              1.565              1.145
 Vibration    10          0.779              1.437              0.908
 Vibration    11          0.804              1.372              0.812
 Vibration    12          0.869              1.218              0.623
 Vibration    13          0.926              1.096              0.505
 Vibration    14          0.981              0.988              0.415

 Optimization completed.
    -- Stationary point found.
 Normal termination of Gaussian 16 at Tue Dec  8 10:31:12 2020.

 ----------------------------------------------------------------------
 # B3LYP/6-311++G(d,p) empiricaldispersion=gd3bj scf=xqc pop=npa geom=c
 heck
 ----------------------------------------------------------------------

 --------------------------------------
 CID_152055295_JID_362_Energie_neutraal
 --------------------------------------
 Structure from the checkpoint file:  "JID_362.chk"
 Charge =  0 Multiplicity = 1

 SCF Done:  E(RB3LYP) =  -485.768756451     A.U. after   17 cycles
 Normal termination of Gaussian 16 at Tue Dec  8 10:32:25 2020.

 ----------------------------------------------------------------------
 # B3LYP/6-311++G(d,p) empiricaldispersion=gd3bj scf=xqc pop=npa geom=c
 heck
 ----------------------------------------------------------------------

 ------------------------------------
 CID_152055295_JID_362_Energie_kation
 ------------------------------------
 Structure from the checkpoint file:  "JID_362.chk"
 Charge =  1 Multiplicity = 2

 SCF Done:  E(UB3LYP) =  -485.516807714     A.U. after   18 cycles
 Normal termination of Gaussian 16 at Tue Dec  8 10:37:05 2020.
 Gaussian 16:  ES64L-G16RevA.03 25-Dec-2016

 ----------------------------------------------------------------------
 # B3LYP/6-311++G(d,p) empiricaldispersion=gd3bj scf=xqc pop=npa geom=c
 heck
 ----------------------------------------------------------------------

 -----------------------------------
 CID_152055295_JID_362_Energie_anion
 -----------------------------------
 Structure from the checkpoint file:  "JID_362.chk"
 Charge = -1 Multiplicity = 2

                         Standard orientation:
 ---------------------------------------------------------------------
 Center     Atomic      Atomic             Coordinates (Angstroms)
 Number     Number       Type             X           Y           Z
 ---------------------------------------------------------------------
      1          6           0        3.048307   -1.001438    0.265398
      2          7           0        1.897107   -0.432257   -0.419231
      3          6           0        0.640092   -1.121291   -0.104348
      4          7           0       -0.398212   -0.081725   -0.305405
      5          6           0        0.290858    1.151740   -0.066180
      6          6           0        1.614518    0.940712   -0.132231
      7          7           0       -0.481954    2.312147   -0.021497
      8          7           0       -1.479552   -0.266690    0.668028
      9          7           0       -2.536494   -0.599933    0.087441
     10          7           0       -3.562493   -0.919293   -0.288762
     11          1           0        3.940927   -0.422755    0.008981
     12          1           0        3.204332   -2.030152   -0.076373
     13          1           0        2.937032   -1.008869    1.365478
     14          1           0        0.467268   -1.976311   -0.764592
     15          1           0        0.616877   -1.459968    0.950220
     16          1           0        2.409669    1.672896   -0.171454
     17          1           0       -1.271508    2.200881    0.610698
     18          1           0        0.063940    3.120195    0.257183
 ---------------------------------------------------------------------

 SCF Done:  E(UB3LYP) =  -485.768108686     A.U. after   28 cycles

 The electronic state is 2-A.
 Alpha  occ. eigenvalues --  -14.28956 -14.22101 -14.21918 -14.20643 -14.20201
 Alpha  occ. eigenvalues --  -14.19653 -10.10370 -10.09942 -10.08406 -10.05344
 Alpha  occ. eigenvalues --   -0.97544  -0.87950  -0.82017  -0.78876  -0.72540
 Alpha  occ. eigenvalues --   -0.61762  -0.58226  -0.49645  -0.46607  -0.42475
 Alpha  occ. eigenvalues --   -0.38561  -0.38127  -0.35646  -0.34609  -0.33773
 Alpha  occ. eigenvalues --   -0.32300  -0.30911  -0.29519  -0.28812  -0.28178
 Alpha  occ. eigenvalues --   -0.26355  -0.22642  -0.20563  -0.16210  -0.12907
 Alpha  occ. eigenvalues --   -0.10732  -0.04833   0.05041
 Alpha virt. eigenvalues --    0.07220   0.07816   0.09582   0.10648   0.11263
 Alpha virt. eigenvalues --    0.12267   0.13894   0.13934   0.14603   0.15165
 Alpha virt. eigenvalues --    0.16320   0.17163   0.18332   0.18800   0.19157

  Beta  occ. eigenvalues --  -14.28501 -14.22164 -14.21727 -14.20202 -14.19999
  Beta  occ. eigenvalues --  -14.19616 -10.10355 -10.09930 -10.08388 -10.05325
  Beta  occ. eigenvalues --   -0.96663  -0.87706  -0.81760  -0.78777  -0.72242
  Beta  occ. eigenvalues --   -0.61656  -0.58105  -0.49443  -0.46435  -0.42266
  Beta  occ. eigenvalues --   -0.38368  -0.38046  -0.35039  -0.33501  -0.33358
  Beta  occ. eigenvalues --   -0.32087  -0.30633  -0.28987  -0.28399  -0.27577
  Beta  occ. eigenvalues --   -0.26269  -0.22463  -0.19339  -0.16182  -0.12669
  Beta  occ. eigenvalues --   -0.10551  -0.04763
  Beta virt. eigenvalues --    0.07462   0.08633   0.09934   0.10668   0.11253
  Beta virt. eigenvalues --    0.12317   0.12811   0.13872   0.14380   0.14693
  Beta virt. eigenvalues --    0.15250   0.16571   0.17370   0.18290   0.18880

 Mulliken charges and spin densities:
               1          2
     1  C    0.203516  -0.476135
     2  N   -0.046389   0.109149
     3  C    0.415470  -0.778113
     4  N    0.052864  -0.062475
     5  C    0.880718  -0.834209
     6  C   -0.540301   0.142588
     7  N   -0.480730   0.123138
     8  N   -0.216151   0.037232
     9  N    0.093949   0.212569
    10  N   -0.405284   0.345841
    11  H   -0.125162   0.234595
    12  H   -0.007486   0.129032
    13  H   -0.043530   0.147674
    14  H    0.204440  -0.021480
    15  H   -0.201160   0.270842
    16  H   -0.619000   0.766748
    17  H    0.058876   0.189670
    18  H   -0.224640   0.463333
 Sum of Mulliken charges =  -1.00000   1.00000

 Dipole moment (field-independent basis, Debye):
    X=              2.5701    Y=             -2.1102    Z=             -0.2825  Tot=              3.3374
 Quadrupole moment (field-independent basis, Debye-Ang):
   XX=           -107.5980   YY=            -84.2551   ZZ=            -78.6929
   XY=             -9.2083   XZ=             -2.8626   YZ=              0.5946

 Summary of Natural Population Analysis:

                                       Natural Population
                Natural  -----------------------------------------------
    Atom  No    Charge         Core      Valence    Rydberg      Total
 -----------------------------------------------------------------------
      C    1   -0.17208      0.99965     2.16520    0.00723     3.17208
      N    2   -0.27274      0.99972     2.76018    0.01285     3.77274
      C    3    0.02318      0.99962     1.96551    0.01169     2.97682
      N    4   -0.17407      0.99966     2.66051    0.01390     3.67407
      C    5    0.16382      0.99946     1.82025    0.01647     2.83618
      C    6   -0.07535      0.99943     2.06060    0.01532     3.07535
      N    7   -0.40454      0.99971     2.89433    0.01050     3.90454
      N    8   -0.16920      0.99973     2.65422    0.01526     3.66920
      N    9    0.14915      0.99971     2.33573    0.01541     3.35085
      N   10    0.03599      0.99981     2.45105    0.01314     3.46401
      H   11    0.09366      0.00000     0.40476    0.00158     0.40634
      H   12    0.08956      0.00000     0.40904    0.00140     0.41044
      H   13    0.07893      0.00000     0.41697    0.00411     0.42107
      H   14    0.08711      0.00000     0.41092    0.00196     0.41289
      H   15    0.07429      0.00000     0.42166    0.00405     0.42571
      H   16    0.09857      0.00000     0.39923    0.00220     0.40143
      H   17    0.19000      0.00000     0.30692    0.00308     0.31000
      H   18    0.18374      0.00000     0.31323    0.00303     0.31626
 =======================================================================
   * Total *   -0.00000      9.99651    26.85031    0.15318    37.00000

 Normal termination of Gaussian 16 at Tue Dec  8 10:41:00 2020.
