 Gaussian 16, Revision A.03,

 -----------------------------------------------------------
 # opt freq B3LYP/6-31G(d) empiricaldispersion=gd3bj scf=xqc
 -----------------------------------------------------------

 ------------------------------
 CID_21507110_JID_7774_neutraal
 ------------------------------
 Symbolic Z-matrix:
 Charge =  0 Multiplicity = 1

 SCF Done:  E(RB3LYP) =  -1159.58375829     A.U. after   16 cycles
 SCF Done:  E(RB3LYP) =  -1159.58984927     A.U. after   14 cycles
 SCF Done:  E(RB3LYP) =  -1159.59413145     A.U. after   13 cycles
 SCF Done:  E(RB3LYP) =  -1159.59655597     A.U. after   13 cycles
 SCF Done:  E(RB3LYP) =  -1159.59744308     A.U. after   12 cycles
 SCF Done:  E(RB3LYP) =  -1159.59830266     A.U. after   12 cycles
 SCF Done:  E(RB3LYP) =  -1159.59877044     A.U. after   12 cycles
 SCF Done:  E(RB3LYP) =  -1159.59884709     A.U. after   12 cycles
 SCF Done:  E(RB3LYP) =  -1159.59909965     A.U. after   12 cycles
 SCF Done:  E(RB3LYP) =  -1159.59943567     A.U. after   12 cycles
 SCF Done:  E(RB3LYP) =  -1159.59997081     A.U. after    8 cycles
 SCF Done:  E(RB3LYP) =  -1159.59997118     A.U. after    8 cycles
 SCF Done:  E(RB3LYP) =  -1159.59997164     A.U. after    8 cycles
 SCF Done:  E(RB3LYP) =  -1159.59997190     A.U. after    8 cycles
 SCF Done:  E(RB3LYP) =  -1159.59997201     A.U. after    7 cycles
 Optimization completed.
    -- Stationary point found.
 Normal termination of Gaussian 16 at Fri Dec 11 13:17:32 2020.

 --------------------------------------------------------------------
 #N Geom=AllCheck Guess=TCheck SCRF=Check GenChk RB3LYP/6-31G(d) Freq
 --------------------------------------------------------------------

 Structure from the checkpoint file:  "JID_7774.chk"
 ------------------------------
 CID_21507110_JID_7774_neutraal
 ------------------------------
 Charge =  0 Multiplicity = 1

 SCF Done:  E(RB3LYP) =  -1159.59997201     A.U. after    1 cycles

  Exact polarizability: 209.011  -0.549 141.408   0.868   4.994 116.543
 Approx polarizability: 266.086   2.488 256.832  -5.089   7.965 174.663

                      1                      2                      3
                      A                      A                      A
 Frequencies --     15.0231                20.0037                32.2238
 Red. masses --      3.0387                 5.8756                 7.2252
 Frc consts  --      0.0004                 0.0014                 0.0044
 IR Inten    --      0.3283                 0.9035                 2.0464

                      4                      5                      6
                      A                      A                      A
 Frequencies --     56.0951                67.3796               114.0262
 Red. masses --      2.7845                 6.4442                 5.4150
 Frc consts  --      0.0052                 0.0172                 0.0415
 IR Inten    --      1.3112                 0.5240                 2.0815

                      7                      8                      9
                      A                      A                      A
 Frequencies --    120.5469               166.4554               174.5499
 Red. masses --      4.4385                 2.4498                 4.3740
 Frc consts  --      0.0380                 0.0400                 0.0785
 IR Inten    --      2.8743                 3.2477                 1.6335

                     10                     11                     12
                      A                      A                      A
 Frequencies --    206.2912               212.5921               226.2165
 Red. masses --      2.0258                 1.5524                 1.2490
 Frc consts  --      0.0508                 0.0413                 0.0377
 IR Inten    --      1.0041                 1.0842                 0.1628

                     13                     14                     15
                      A                      A                      A
 Frequencies --    240.6996               248.4435               272.0762
 Red. masses --      2.2057                 3.6952                 1.6642
 Frc consts  --      0.0753                 0.1344                 0.0726
 IR Inten    --      1.2716                 7.6324                 2.2922

                     16                     17                     18
                      A                      A                      A
 Frequencies --    285.5383               288.1312               323.0740
 Red. masses --      1.3807                 1.4152                 3.2740
 Frc consts  --      0.0663                 0.0692                 0.2013
 IR Inten    --      1.0564                 2.3524                 3.9447

                     19                     20                     21
                      A                      A                      A
 Frequencies --    332.2626               360.2455               361.8283
 Red. masses --      3.1628                 2.9410                 2.6600
 Frc consts  --      0.2057                 0.2249                 0.2052
 IR Inten    --      0.5684                 1.4613                 2.0248

                     22                     23                     24
                      A                      A                      A
 Frequencies --    395.1253               438.1937               455.7141
 Red. masses --      2.8429                 3.7568                 4.8138
 Frc consts  --      0.2615                 0.4250                 0.5890
 IR Inten    --      3.1192                 4.5490                 7.0692

                     25                     26                     27
                      A                      A                      A
 Frequencies --    482.5474               492.2276               544.2691
 Red. masses --      2.3806                 3.7564                 2.7596
 Frc consts  --      0.3266                 0.5362                 0.4816
 IR Inten    --     13.5169                 7.1430                17.5092

                     28                     29                     30
                      A                      A                      A
 Frequencies --    593.8971               603.1072               609.4248
 Red. masses --      3.0960                 1.3540                 3.3627
 Frc consts  --      0.6434                 0.2902                 0.7358
 IR Inten    --      6.6774                84.3753                41.1564

                     31                     32                     33
                      A                      A                      A
 Frequencies --    638.2046               644.9299               662.5070
 Red. masses --      5.7349                 7.9521                 5.8878
 Frc consts  --      1.3762                 1.9488                 1.5226
 IR Inten    --     35.9379                 2.6526                 8.9642

                     34                     35                     36
                      A                      A                      A
 Frequencies --    721.3416               752.5937               788.8410
 Red. masses --      3.0588                 7.0051                 6.0992
 Frc consts  --      0.9377                 2.3377                 2.2362
 IR Inten    --     22.4746                68.6696                16.0105

                     37                     38                     39
                      A                      A                      A
 Frequencies --    836.1257               891.3500               899.2912
 Red. masses --      2.9527                 2.8074                 4.1390
 Frc consts  --      1.2162                 1.3142                 1.9722
 IR Inten    --      2.8435                18.3323                 5.9510

                     40                     41                     42
                      A                      A                      A
 Frequencies --    946.2629               948.1834               955.8544
 Red. masses --      1.7817                 2.0768                 1.7034
 Frc consts  --      0.9400                 1.1001                 0.9169
 IR Inten    --      0.7064                16.8088                 1.1716

                     43                     44                     45
                      A                      A                      A
 Frequencies --    982.3944              1046.6173              1060.6810
 Red. masses --      1.2005                 1.8997                 1.3919
 Frc consts  --      0.6827                 1.2261                 0.9227
 IR Inten    --      0.0465                20.2332                 0.3463

                     46                     47                     48
                      A                      A                      A
 Frequencies --   1064.8155              1081.1360              1087.8331
 Red. masses --      2.3788                 2.2380                 2.2760
 Frc consts  --      1.5891                 1.5413                 1.5869
 IR Inten    --     18.2701                17.0455                38.0221

                     49                     50                     51
                      A                      A                      A
 Frequencies --   1110.4525              1126.6261              1157.0655
 Red. masses --      3.7013                 7.0773                 1.3066
 Frc consts  --      2.6891                 5.2927                 1.0307
 IR Inten    --    122.1325                26.5066                 2.6092

                     52                     53                     54
                      A                      A                      A
 Frequencies --   1184.0302              1224.6845              1237.3871
 Red. masses --      2.4866                 2.2047                 2.5097
 Frc consts  --      2.0539                 1.9482                 2.2640
 IR Inten    --     53.3415                68.4395               142.0450

                     55                     56                     57
                      A                      A                      A
 Frequencies --   1242.9321              1257.9596              1267.4398
 Red. masses --      2.6412                 2.7996                 1.3070
 Frc consts  --      2.4041                 2.6102                 1.2370
 IR Inten    --      3.7914                 1.3135                66.6742

                     58                     59                     60
                      A                      A                      A
 Frequencies --   1301.9402              1337.0274              1383.4790
 Red. masses --      3.1662                 1.4808                 1.6445
 Frc consts  --      3.1621                 1.5596                 1.8545
 IR Inten    --     28.5364                90.6726               248.2820

                     61                     62                     63
                      A                      A                      A
 Frequencies --   1415.9382              1427.4249              1429.7828
 Red. masses --      1.2675                 1.2093                 1.2179
 Frc consts  --      1.4972                 1.4518                 1.4669
 IR Inten    --      9.2285                 5.3472                 7.3521

                     64                     65                     66
                      A                      A                      A
 Frequencies --   1446.8948              1458.3475              1490.3788
 Red. masses --      1.7184                 1.2370                 1.3056
 Frc consts  --      2.1196                 1.5501                 1.7086
 IR Inten    --    151.4988                 2.2263               178.2427

                     67                     68                     69
                      A                      A                      A
 Frequencies --   1492.1947              1496.2389              1507.3158
 Red. masses --      1.4351                 1.2287                 1.0476
 Frc consts  --      1.8826                 1.6207                 1.4023
 IR Inten    --     84.4498                33.1541                 0.1062

                     70                     71                     72
                      A                      A                      A
 Frequencies --   1513.3426              1514.7337              1516.6003
 Red. masses --      1.0523                 1.0464                 1.1352
 Frc consts  --      1.4199                 1.4145                 1.5384
 IR Inten    --      1.1655                 0.1474                21.1032

                     73                     74                     75
                      A                      A                      A
 Frequencies --   1528.6607              1529.2651              1532.0887
 Red. masses --      1.0734                 1.0516                 1.0881
 Frc consts  --      1.4778                 1.4490                 1.5048
 IR Inten    --     16.6762                 6.7903                 4.9502

                     76                     77                     78
                      A                      A                      A
 Frequencies --   1532.8843              1538.3641              1543.8653
 Red. masses --      1.0877                 1.4492                 1.3501
 Frc consts  --      1.5058                 2.0206                 1.8960
 IR Inten    --      5.1778                10.1700               210.5595

                     79                     80                     81
                      A                      A                      A
 Frequencies --   1559.9317              1569.9875              1776.8887
 Red. masses --      2.6233                 7.0301                 6.5014
 Frc consts  --      3.7610                10.2094                12.0942
 IR Inten    --     35.6294                82.4838               409.8777

                     82                     83                     84
                      A                      A                      A
 Frequencies --   2991.1576              3048.7413              3052.5668
 Red. masses --      1.0711                 1.0343                 1.0347
 Frc consts  --      5.6464                 5.6644                 5.6807
 IR Inten    --     44.4358                17.4415                18.0582

                     85                     86                     87
                      A                      A                      A
 Frequencies --   3057.4069              3064.4670              3067.0823
 Red. masses --      1.0604                 1.0370                 1.0394
 Frc consts  --      5.8401                 5.7379                 5.7606
 IR Inten    --     17.6958                22.8087                33.4634

                     88                     89                     90
                      A                      A                      A
 Frequencies --   3085.0097              3116.7586              3122.3004
 Red. masses --      1.0942                 1.1027                 1.1021
 Frc consts  --      6.1359                 6.3115                 6.3301
 IR Inten    --     63.1967                 3.1289                53.4258

                     91                     92                     93
                      A                      A                      A
 Frequencies --   3122.5921              3127.2800              3129.4962
 Red. masses --      1.1000                 1.1034                 1.1031
 Frc consts  --      6.3196                 6.3577                 6.3652
 IR Inten    --     22.5325                11.8582                11.2660

                     94                     95                     96
                      A                      A                      A
 Frequencies --   3133.0669              3136.2767              3150.9038
 Red. masses --      1.1051                 1.1012                 1.1028
 Frc consts  --      6.3911                 6.3817                 6.4506
 IR Inten    --     22.7852                45.2558                18.4444

                     97                     98                     99
                      A                      A                      A
 Frequencies --   3177.4204              3575.6238              3644.5365
 Red. masses --      1.1010                 1.0752                 1.0648
 Frc consts  --      6.5490                 8.0992                 8.3332
 IR Inten    --     11.1594                49.1001               213.3039

 - Thermochemistry -
 -------------------
 Temperature   298.150 Kelvin.  Pressure   1.00000 Atm.
 Atom     1 has atomic number  6 and mass  12.00000

 Molecular mass:   258.11505 amu.
 Principal axes and moments of inertia in atomic units:
                           1         2         3
     Eigenvalues --  1779.733909694.695249992.81379
           X            0.99997   0.00097   0.00768
           Y           -0.00128   0.99918   0.04046
           Z           -0.00764  -0.04047   0.99915
 This molecule is an asymmetric top.
 Rotational symmetry number  1.
 Warning -- assumption of classical behavior for rotation
           may cause significant error
 Rotational temperatures (Kelvin)      0.04867     0.00893     0.00867
 Rotational constants (GHZ):           1.01405     0.18616     0.18060
 Zero-point vibrational energy     766818.3 (Joules/Mol)
                                  183.27398 (Kcal/Mol)
 Warning -- explicit consideration of  30 degrees of freedom as
           vibrations may cause significant error
 Vibrational temperatures:     21.61    28.78    46.36    80.71    96.94
          (Kelvin)            164.06   173.44   239.49   251.14   296.81
                              305.87   325.48   346.31   357.45   391.46
                              410.83   414.56   464.83   478.05   518.31
                              520.59   568.50   630.46   655.67   694.28
                              708.21   783.08   854.49   867.74   876.83
                              918.23   927.91   953.20  1037.85  1082.81
                             1134.97  1203.00  1282.45  1293.88  1361.46
                             1364.22  1375.26  1413.45  1505.85  1526.08
                             1532.03  1555.51  1565.15  1597.69  1620.96
                             1664.76  1703.56  1762.05  1780.32  1788.30
                             1809.92  1823.56  1873.20  1923.68  1990.52
                             2037.22  2053.75  2057.14  2081.76  2098.24
                             2144.32  2146.94  2152.75  2168.69  2177.36
                             2179.36  2182.05  2199.40  2200.27  2204.33
                             2205.48  2213.36  2221.28  2244.39  2258.86
                             2556.55  4303.61  4386.46  4391.96  4398.93
                             4409.08  4412.85  4438.64  4484.32  4492.29
                             4492.71  4499.46  4502.65  4507.78  4512.40
                             4533.45  4571.60  5144.53  5243.68

 Zero-point correction=                           0.292066 (Hartree/Particle)
 Thermal correction to Energy=                    0.310672
 Thermal correction to Enthalpy=                  0.311616
 Thermal correction to Gibbs Free Energy=         0.243134
 Sum of electronic and zero-point Energies=          -1159.307906
 Sum of electronic and thermal Energies=             -1159.289300
 Sum of electronic and thermal Enthalpies=           -1159.288356
 Sum of electronic and thermal Free Energies=        -1159.356838

                     E (Thermal)             CV                S
                      KCal/Mol        Cal/Mol-Kelvin    Cal/Mol-Kelvin
 Total                  194.949             68.579            144.132
 Electronic               0.000              0.000              0.000
 Translational            0.889              2.981             42.545
 Rotational               0.889              2.981             33.511
 Vibrational            193.172             62.618             68.077
 Vibration     1          0.593              1.986              7.202
 Vibration     2          0.593              1.986              6.634
 Vibration     3          0.594              1.983              5.688
 Vibration     4          0.596              1.975              4.590
 Vibration     5          0.598              1.970              4.228
 Vibration     6          0.607              1.938              3.199
 Vibration     7          0.609              1.932              3.092
 Vibration     8          0.624              1.884              2.475
 Vibration     9          0.627              1.874              2.386
 Vibration    10          0.641              1.831              2.076
 Vibration    11          0.644              1.822              2.021
 Vibration    12          0.650              1.801              1.909
 Vibration    13          0.658              1.778              1.798
 Vibration    14          0.662              1.765              1.742
 Vibration    15          0.675              1.725              1.583
 Vibration    16          0.683              1.701              1.500
 Vibration    17          0.685              1.696              1.485
 Vibration    18          0.708              1.629              1.294
 Vibration    19          0.714              1.611              1.249
 Vibration    20          0.735              1.554              1.121
 Vibration    21          0.736              1.551              1.114
 Vibration    22          0.762              1.481              0.981
 Vibration    23          0.798              1.387              0.832
 Vibration    24          0.814              1.348              0.779
 Vibration    25          0.839              1.289              0.703
 Vibration    26          0.848              1.267              0.678
 Vibration    27          0.899              1.152              0.556
 Vibration    28          0.952              1.045              0.460
 Vibration    29          0.961              1.025              0.444
 Vibration    30          0.968              1.012              0.434

                           ! Non-Optimized Parameters !
 Normal termination of Gaussian 16 at Fri Dec 11 13:28:11 2020.

 ----------------------------------------------------------------------
 # B3LYP/6-311++G(d,p) empiricaldispersion=gd3bj scf=xqc pop=npa geom=c
 heck
 ----------------------------------------------------------------------

 --------------------------------------
 CID_21507110_JID_7774_Energie_neutraal
 --------------------------------------
 Structure from the checkpoint file:  "JID_7774.chk"
 Charge =  0 Multiplicity = 1

 SCF Done:  E(RB3LYP) =  -1159.85255220     A.U. after   16 cycles
 Normal termination of Gaussian 16 at Fri Dec 11 13:33:36 2020.

 ----------------------------------------------------------------------
 # B3LYP/6-311++G(d,p) empiricaldispersion=gd3bj scf=xqc pop=npa geom=c
 heck
 ----------------------------------------------------------------------

 ------------------------------------
 CID_21507110_JID_7774_Energie_kation
 ------------------------------------
 Structure from the checkpoint file:  "JID_7774.chk"
 Charge =  1 Multiplicity = 2

 SCF Done:  E(UB3LYP) =  -1159.54027418     A.U. after   29 cycles
 Normal termination of Gaussian 16 at Fri Dec 11 13:46:49 2020.
 Gaussian 16:  ES64L-G16RevA.03 25-Dec-2016

 ----------------------------------------------------------------------
 # B3LYP/6-311++G(d,p) empiricaldispersion=gd3bj scf=xqc pop=npa geom=c
 heck
 ----------------------------------------------------------------------

 -----------------------------------
 CID_21507110_JID_7774_Energie_anion
 -----------------------------------
 Structure from the checkpoint file:  "JID_7774.chk"
 Charge = -1 Multiplicity = 2

                         Standard orientation:
 ---------------------------------------------------------------------
 Center     Atomic      Atomic             Coordinates (Angstroms)
 Number     Number       Type             X           Y           Z
 ---------------------------------------------------------------------
      1          6           0        4.363933    0.284049    1.472142
      2          6           0        3.827218   -0.430831    0.213447
      3          6           0        4.550782    0.109545   -1.037425
      4          6           0        4.066595   -1.944850    0.336953
      5          6           0        2.341872   -0.174037    0.091574
      6          7           0        1.420135   -1.081398    0.164244
      7          7           0        0.136675   -0.600858    0.070299
      8          6           0        0.100421    0.690719   -0.091656
      9         16           0        1.681595    1.460081   -0.148307
     10          7           0       -1.052669    1.443785   -0.255975
     11          6           0       -2.366148    0.904851   -0.102226
     12          8           0       -3.121996    1.456023    0.700586
     13          7           0       -2.704810   -0.132721   -0.893946
     14          6           0       -1.919689   -0.574339   -2.041863
     15          6           0       -3.997450   -0.802734   -0.664415
     16          6           0       -4.231100   -1.308483    0.773112
     17          8           0       -4.936158   -0.404159    1.590547
     18          1           0        5.435837    0.086374    1.582453
     19          1           0        3.853055   -0.073979    2.371746
     20          1           0        4.225030    1.368907    1.409319
     21          1           0        5.624298   -0.095288   -0.962863
     22          1           0        4.171888   -0.368487   -1.946731
     23          1           0        4.422343    1.192727   -1.142501
     24          1           0        3.560573   -2.353732    1.215082
     25          1           0        3.689732   -2.476458   -0.541035
     26          1           0        5.141621   -2.134507    0.428283
     27          1           0       -1.023782    2.351758    0.195450
     28          1           0       -1.360867   -1.486146   -1.812506
     29          1           0       -2.599380   -0.754257   -2.880595
     30          1           0       -1.216381    0.204887   -2.334771
     31          1           0       -4.822930   -0.132829   -0.935640
     32          1           0       -4.010877   -1.651810   -1.352224
     33          1           0       -4.848440   -2.212176    0.719724
     34          1           0       -3.257035   -1.600364    1.200903
     35          1           0       -4.438891    0.434187    1.539548
 ---------------------------------------------------------------------

 SCF Done:  E(UB3LYP) =  -1159.84800198     A.U. after   33 cycles
 SCF Done:  E(UB3LYP) =  -1159.84800198     a.u. after    1 cycles

 The electronic state is 2-A.
 Alpha  occ. eigenvalues --  -88.76763 -19.01198 -19.00178 -14.25571 -14.25511
 Alpha  occ. eigenvalues --  -14.21989 -14.21431 -10.20891 -10.14971 -10.12432
 Alpha  occ. eigenvalues --  -10.11871 -10.11294 -10.10420 -10.10224 -10.06820
 Alpha  occ. eigenvalues --  -10.06737 -10.06187  -7.85419  -5.81691  -5.81385
 Alpha  occ. eigenvalues --   -5.80993  -0.96957  -0.91990  -0.91292  -0.85604
 Alpha  occ. eigenvalues --   -0.83449  -0.74417  -0.68712  -0.67803  -0.65934
 Alpha  occ. eigenvalues --   -0.61732  -0.59630  -0.59268  -0.55963  -0.52792
 Alpha  occ. eigenvalues --   -0.51225  -0.46928  -0.44430  -0.42236  -0.41556
 Alpha  occ. eigenvalues --   -0.39894  -0.39239  -0.36641  -0.36120  -0.35530
 Alpha  occ. eigenvalues --   -0.35404  -0.33735  -0.33618  -0.32550  -0.31877
 Alpha  occ. eigenvalues --   -0.31066  -0.30625  -0.30297  -0.29701  -0.29050
 Alpha  occ. eigenvalues --   -0.28717  -0.27407  -0.25786  -0.24883  -0.24353
 Alpha  occ. eigenvalues --   -0.24085  -0.22982  -0.19220  -0.18701  -0.17668
 Alpha  occ. eigenvalues --   -0.17586  -0.15894  -0.15123  -0.13231   0.04147
 Alpha virt. eigenvalues --    0.05854   0.06312   0.07646   0.08222   0.08459
 Alpha virt. eigenvalues --    0.08699   0.09130   0.09572   0.10432   0.10658
 Alpha virt. eigenvalues --    0.11004   0.11337   0.11630   0.11858   0.12043

  Beta  occ. eigenvalues --  -88.76737 -19.01197 -19.00136 -14.25548 -14.25542
  Beta  occ. eigenvalues --  -14.21972 -14.21427 -10.20826 -10.14673 -10.12430
  Beta  occ. eigenvalues --  -10.11863 -10.11052 -10.10392 -10.10240 -10.06779
  Beta  occ. eigenvalues --  -10.06704 -10.06176  -7.85394  -5.81671  -5.81378
  Beta  occ. eigenvalues --   -5.80911  -0.96863  -0.91976  -0.91123  -0.85532
  Beta  occ. eigenvalues --   -0.83344  -0.74272  -0.68536  -0.67649  -0.65901
  Beta  occ. eigenvalues --   -0.61664  -0.59553  -0.59221  -0.55910  -0.52534
  Beta  occ. eigenvalues --   -0.51067  -0.46833  -0.44337  -0.42159  -0.41477
  Beta  occ. eigenvalues --   -0.39778  -0.39149  -0.36560  -0.36022  -0.35467
  Beta  occ. eigenvalues --   -0.35149  -0.33580  -0.33410  -0.32465  -0.31700
  Beta  occ. eigenvalues --   -0.30971  -0.30518  -0.30224  -0.29649  -0.28832
  Beta  occ. eigenvalues --   -0.28628  -0.27377  -0.25634  -0.24717  -0.24311
  Beta  occ. eigenvalues --   -0.24051  -0.22745  -0.19073  -0.18635  -0.17585
  Beta  occ. eigenvalues --   -0.17203  -0.15707  -0.14952  -0.12679
  Beta virt. eigenvalues --    0.06359   0.06736   0.07669   0.08158   0.08595
  Beta virt. eigenvalues --    0.08750   0.09041   0.09278   0.09820   0.10645
  Beta virt. eigenvalues --    0.10810   0.11243   0.11434   0.11742   0.12056

 Mulliken charges and spin densities:
               1          2
     1  C    0.056620  -0.633747
     2  C   -1.569766   2.551999
     3  C    0.088408  -0.654774
     4  C   -0.213270  -0.438310
     5  C    1.098543  -1.751096
     6  N    0.294319   0.099504
     7  N   -0.299395  -0.025134
     8  C    0.349200  -0.278275
     9  S   -0.014231  -0.089717
    10  N   -0.075277   0.011297
    11  C   -0.214622   0.181097
    12  O   -0.385192   0.014862
    13  N   -0.001521   0.090075
    14  C    0.280602  -0.757630
    15  C   -0.081811  -0.193305
    16  C   -0.173118  -0.134883
    17  O   -0.268430   0.002071
    18  H   -0.391347   0.556366
    19  H    0.105670   0.046553
    20  H    0.075375   0.048439
    21  H   -0.113973   0.268380
    22  H    0.020876   0.128918
    23  H   -0.129799   0.256270
    24  H    0.121028   0.040304
    25  H    0.113597   0.044655
    26  H   -0.119411   0.266693
    27  H    0.305147   0.016055
    28  H    0.190236   0.028376
    29  H   -0.593980   0.737494
    30  H   -0.061478   0.243729
    31  H    0.114971   0.110027
    32  H   -0.023691   0.143217
    33  H    0.083372   0.066789
    34  H    0.172947   0.000188
    35  H    0.259403   0.003512
 Sum of Mulliken charges =  -1.00000   1.00000

 Dipole moment (field-independent basis, Debye):
    X=             -0.7783    Y=              1.1283    Z=              0.0198  Tot=              1.3708
 Quadrupole moment (field-independent basis, Debye-Ang):
   XX=           -214.4533   YY=           -132.8209   ZZ=           -146.2921
   XY=              2.9088   XZ=              0.4998   YZ=             -0.3622

 Summary of Natural Population Analysis:

                                       Natural Population
                Natural  -----------------------------------------------
    Atom  No    Charge         Core      Valence    Rydberg      Total
 -----------------------------------------------------------------------
      C    1   -0.27855      0.99963     2.27170    0.00722     3.27855
      C    2   -0.07149      0.99953     2.06088    0.01108     3.07149
      C    3   -0.27771      0.99963     2.27056    0.00751     3.27771
      C    4   -0.27834      0.99964     2.27222    0.00648     3.27834
      C    5    0.08163      0.99953     1.89945    0.01939     2.91837
      N    6   -0.15397      0.99960     2.64051    0.01387     3.65397
      N    7   -0.18654      0.99961     2.67284    0.01410     3.68654
      C    8    0.16052      0.99962     1.82041    0.01945     2.83948
      S    9    0.15066      4.99943     2.83300    0.01691     7.84934
      N   10   -0.33774      0.99963     2.82844    0.00967     3.83774
      C   11    0.42872      0.99964     1.54741    0.02423     2.57128
      O   12   -0.35196      0.99986     3.34694    0.00516     4.35196
      N   13   -0.24566      0.99962     2.73548    0.01055     3.74566
      C   14   -0.17734      0.99964     2.16958    0.00812     3.17734
      C   15   -0.09702      0.99961     2.08547    0.01193     3.09702
      C   16   -0.01783      0.99961     2.00635    0.01186     3.01783
      O   17   -0.38182      0.99990     3.37504    0.00689     4.38182
      H   18    0.09999      0.00000     0.39877    0.00124     0.40001
      H   19    0.10206      0.00000     0.39720    0.00074     0.39794
      H   20    0.10035      0.00000     0.39896    0.00069     0.39965
      H   21    0.09763      0.00000     0.40155    0.00082     0.40237
      H   22    0.10208      0.00000     0.39702    0.00090     0.39792
      H   23    0.10182      0.00000     0.39734    0.00083     0.39818
      H   24    0.10609      0.00000     0.39285    0.00106     0.39391
      H   25    0.10517      0.00000     0.39379    0.00104     0.39483
      H   26    0.09518      0.00000     0.40397    0.00085     0.40482
      H   27    0.20185      0.00000     0.29653    0.00162     0.29815
      H   28    0.10669      0.00000     0.39189    0.00141     0.39331
      H   29    0.09473      0.00000     0.40365    0.00162     0.40527
      H   30    0.10750      0.00000     0.39115    0.00135     0.39250
      H   31    0.10079      0.00000     0.39802    0.00119     0.39921
      H   32    0.09972      0.00000     0.39905    0.00123     0.40028
      H   33    0.08322      0.00000     0.41559    0.00119     0.41678
      H   34    0.08353      0.00000     0.41508    0.00139     0.41647
      H   35    0.24601      0.00000     0.25108    0.00291     0.25399
 =======================================================================
   * Total *   -0.00000     20.99373    47.77978    0.22650    69.00000

 Normal termination of Gaussian 16 at Fri Dec 11 14:01:42 2020.
