 Gaussian 16, Revision A.03,

 -----------------------------------------------------------
 # opt freq B3LYP/6-31G(d) empiricaldispersion=gd3bj scf=xqc
 -----------------------------------------------------------

 ------------------------------
 CID_62823200_JID_9184_neutraal
 ------------------------------
 Symbolic Z-matrix:
 Charge =  0 Multiplicity = 1

 SCF Done:  E(RB3LYP) =  -818.925173911     A.U. after   15 cycles
 SCF Done:  E(RB3LYP) =  -818.930285973     A.U. after   13 cycles
 SCF Done:  E(RB3LYP) =  -818.931448985     A.U. after   12 cycles
 SCF Done:  E(RB3LYP) =  -818.931741082     A.U. after   12 cycles
 SCF Done:  E(RB3LYP) =  -818.931886337     A.U. after   12 cycles
 SCF Done:  E(RB3LYP) =  -818.931945039     A.U. after   11 cycles
 SCF Done:  E(RB3LYP) =  -818.931966925     A.U. after   11 cycles
 SCF Done:  E(RB3LYP) =  -818.931975413     A.U. after   10 cycles
 SCF Done:  E(RB3LYP) =  -818.931980066     A.U. after   10 cycles
 SCF Done:  E(RB3LYP) =  -818.931981214     A.U. after    8 cycles
 SCF Done:  E(RB3LYP) =  -818.931990726     A.U. after    9 cycles
 SCF Done:  E(RB3LYP) =  -818.931991531     A.U. after    9 cycles
 SCF Done:  E(RB3LYP) =  -818.931991879     A.U. after    9 cycles
 SCF Done:  E(RB3LYP) =  -818.931991958     A.U. after    7 cycles
 SCF Done:  E(RB3LYP) =  -818.931991978     A.U. after    6 cycles
 Optimization completed.
    -- Stationary point found.
 Normal termination of Gaussian 16 at Sun Dec 13 16:21:15 2020.

 --------------------------------------------------------------------
 #N Geom=AllCheck Guess=TCheck SCRF=Check GenChk RB3LYP/6-31G(d) Freq
 --------------------------------------------------------------------

 Structure from the checkpoint file:  "JID_9184.chk"
 ------------------------------
 CID_62823200_JID_9184_neutraal
 ------------------------------
 Charge =  0 Multiplicity = 1

 SCF Done:  E(RB3LYP) =  -818.931991979     A.U. after    1 cycles

  Exact polarizability: 216.868   1.860 208.957  23.513   5.251 101.505
 Approx polarizability: 321.248  -5.109 342.205  54.984  12.441 176.836

                      1                      2                      3
                      A                      A                      A
 Frequencies --     13.4119                34.7666                45.0307
 Red. masses --      1.0296                 4.6362                 4.2185
 Frc consts  --      0.0001                 0.0033                 0.0050
 IR Inten    --      0.1596                 0.5272                 1.1068

                      4                      5                      6
                      A                      A                      A
 Frequencies --     60.7290                84.5476                99.4943
 Red. masses --      4.2041                 4.6360                 5.2060
 Frc consts  --      0.0091                 0.0195                 0.0304
 IR Inten    --      1.9219                 4.6734                 1.3550

                      7                      8                      9
                      A                      A                      A
 Frequencies --    125.7024               177.6433               218.6126
 Red. masses --      5.1681                 4.1542                 4.4314
 Frc consts  --      0.0481                 0.0772                 0.1248
 IR Inten    --      0.6043                 2.7984                 3.5060

                     10                     11                     12
                      A                      A                      A
 Frequencies --    250.0347               283.1255               327.4281
 Red. masses --      5.1438                 4.4740                 1.2751
 Frc consts  --      0.1895                 0.2113                 0.0805
 IR Inten    --      0.5854                 1.0514                39.2978

                     13                     14                     15
                      A                      A                      A
 Frequencies --    330.3960               348.9046               356.8035
 Red. masses --      3.8479                 5.4882                 3.0914
 Frc consts  --      0.2475                 0.3936                 0.2319
 IR Inten    --      3.0502                 2.0167                 2.9921

                     16                     17                     18
                      A                      A                      A
 Frequencies --    405.9303               416.7940               421.1119
 Red. masses --      4.0497                 3.9233                 4.8055
 Frc consts  --      0.3932                 0.4016                 0.5021
 IR Inten    --      1.8377                 2.3975                 1.5834

                     19                     20                     21
                      A                      A                      A
 Frequencies --    423.5292               516.3459               528.9393
 Red. masses --      3.3632                 4.2892                 2.9980
 Frc consts  --      0.3554                 0.6738                 0.4942
 IR Inten    --      1.2114                 1.1215                 6.8353

                     22                     23                     24
                      A                      A                      A
 Frequencies --    585.6904               613.5674               622.4473
 Red. masses --      3.9518                 4.0705                 2.0066
 Frc consts  --      0.7987                 0.9029                 0.4581
 IR Inten    --     15.0079                45.5691               168.1605

                     25                     26                     27
                      A                      A                      A
 Frequencies --    634.4980               660.4071               675.6919
 Red. masses --      5.1836                 6.1383                 5.5538
 Frc consts  --      1.2295                 1.5773                 1.4939
 IR Inten    --     30.9205                 6.4931                45.0710

                     28                     29                     30
                      A                      A                      A
 Frequencies --    714.3160               729.7897               754.0666
 Red. masses --      5.5363                 4.4729                 4.5719
 Frc consts  --      1.6644                 1.4036                 1.5317
 IR Inten    --      7.3081                 7.9448                32.9510

                     31                     32                     33
                      A                      A                      A
 Frequencies --    762.7566               785.3426               809.9684
 Red. masses --      1.7039                 5.2666                 2.7974
 Frc consts  --      0.5841                 1.9138                 1.0813
 IR Inten    --     18.1110                 8.3066                19.3439

                     34                     35                     36
                      A                      A                      A
 Frequencies --    820.7722               844.5925               861.0535
 Red. masses --      5.1126                 1.5714                 1.2432
 Frc consts  --      2.0292                 0.6604                 0.5431
 IR Inten    --      3.9241                31.3364                 0.6844

                     37                     38                     39
                      A                      A                      A
 Frequencies --    903.1935               915.0750               965.3654
 Red. masses --      5.1972                 1.4655                 1.3013
 Frc consts  --      2.4979                 0.7230                 0.7145
 IR Inten    --     45.0671                 7.6470                 0.8233

                     40                     41                     42
                      A                      A                      A
 Frequencies --    971.9608               978.2207              1000.6709
 Red. masses --      1.2936                 1.4143                 8.1974
 Frc consts  --      0.7200                 0.7974                 4.8362
 IR Inten    --      1.9860                 0.9209                16.9240

                     43                     44                     45
                      A                      A                      A
 Frequencies --   1006.6639              1012.9044              1018.1552
 Red. masses --      1.2936                 7.1595                 1.4961
 Frc consts  --      0.7723                 4.3278                 0.9138
 IR Inten    --      0.6249                 4.3075                 0.6907

                     46                     47                     48
                      A                      A                      A
 Frequencies --   1041.7337              1054.2932              1075.8711
 Red. masses --      3.7432                 3.0972                 1.5133
 Frc consts  --      2.3934                 2.0283                 1.0320
 IR Inten    --     11.9112                13.1284                 5.6375

                     49                     50                     51
                      A                      A                      A
 Frequencies --   1079.5831              1110.3871              1128.3712
 Red. masses --      2.3874                 1.9368                 1.5911
 Frc consts  --      1.6394                 1.4069                 1.1936
 IR Inten    --      3.1342                 0.8512                 2.3717

                     52                     53                     54
                      A                      A                      A
 Frequencies --   1152.3765              1188.5703              1205.8243
 Red. masses --      1.3706                 1.1386                 3.5894
 Frc consts  --      1.0724                 0.9477                 3.0750
 IR Inten    --      3.5732                 1.5388                 9.8819

                     55                     56                     57
                      A                      A                      A
 Frequencies --   1224.4410              1247.3091              1310.4237
 Red. masses --      1.1314                 3.0515                 6.3532
 Frc consts  --      0.9994                 2.7971                 6.4279
 IR Inten    --      0.4944                 2.0259                 1.7778

                     58                     59                     60
                      A                      A                      A
 Frequencies --   1323.3466              1336.5354              1352.3365
 Red. masses --      1.7425                 3.6609                 3.0618
 Frc consts  --      1.7980                 3.8530                 3.2991
 IR Inten    --     11.6000                 3.4472                 4.6479

                     61                     62                     63
                      A                      A                      A
 Frequencies --   1356.4210              1387.8620              1443.3947
 Red. masses --      1.6822                 4.1423                 1.2496
 Frc consts  --      1.8235                 4.7009                 1.5339
 IR Inten    --      5.0886                20.1211                 0.8245

                     64                     65                     66
                      A                      A                      A
 Frequencies --   1451.9005              1467.8790              1489.5397
 Red. masses --      2.7705                 2.1744                 2.9018
 Frc consts  --      3.4410                 2.7604                 3.7933
 IR Inten    --     22.7055                11.9548                44.8654

                     67                     68                     69
                      A                      A                      A
 Frequencies --   1515.4005              1523.4273              1535.2886
 Red. masses --      1.0463                 1.1322                 3.2045
 Frc consts  --      1.4157                 1.5482                 4.4504
 IR Inten    --      5.2146                 7.1009                37.7728

                     70                     71                     72
                      A                      A                      A
 Frequencies --   1547.5835              1570.3100              1620.3057
 Red. masses --      5.8662                 2.7563                 5.1991
 Frc consts  --      8.2778                 4.0045                 8.0422
 IR Inten    --     89.6965                31.8835                12.3129

                     73                     74                     75
                      A                      A                      A
 Frequencies --   1627.8059              1646.0084              1649.0854
 Red. masses --      4.4665                 2.3055                 4.2655
 Frc consts  --      6.9731                 3.6802                 6.8346
 IR Inten    --     27.0159                36.6716                34.0419

                     76                     77                     78
                      A                      A                      A
 Frequencies --   1677.9621              1694.3369              3042.8954
 Red. masses --      5.7585                 2.5228                 1.0381
 Frc consts  --      9.5526                 4.2670                 5.6633
 IR Inten    --      1.8702               307.3889                39.5711

                     79                     80                     81
                      A                      A                      A
 Frequencies --   3095.2838              3125.9743              3172.9091
 Red. masses --      1.0998                 1.1012                 1.0891
 Frc consts  --      6.2083                 6.3397                 6.4601
 IR Inten    --     19.6907                16.9721                27.6064

                     82                     83                     84
                      A                      A                      A
 Frequencies --   3177.0333              3177.3606              3195.8135
 Red. masses --      1.0874                 1.0886                 1.0939
 Frc consts  --      6.4669                 6.4752                 6.5824
 IR Inten    --     13.8144                20.2691                14.4130

                     85                     86                     87
                      A                      A                      A
 Frequencies --   3196.7801              3211.5024              3215.0284
 Red. masses --      1.0886                 1.0929                 1.0954
 Frc consts  --      6.5543                 6.6413                 6.6708
 IR Inten    --      9.6066                 9.6891                26.6398

                     88                     89                     90
                      A                      A                      A
 Frequencies --   3229.8431              3540.7219              3647.0326
 Red. masses --      1.0946                 1.0470                 1.0996
 Frc consts  --      6.7275                 7.7339                 8.6169
 IR Inten    --      4.1858                27.9732                37.1511

 - Thermochemistry -
 -------------------
 Temperature   298.150 Kelvin.  Pressure   1.00000 Atm.
 Atom     1 has atomic number  6 and mass  12.00000

 Molecular mass:   251.10586 amu.
 Principal axes and moments of inertia in atomic units:
                           1         2         3
     Eigenvalues --  3714.149225825.965528960.69788
           X            1.00000   0.00070   0.00068
           Y           -0.00070   1.00000   0.00054
           Z           -0.00068  -0.00054   1.00000
 This molecule is an asymmetric top.
 Rotational symmetry number  1.
 Warning -- assumption of classical behavior for rotation
           may cause significant error
 Rotational temperatures (Kelvin)      0.02332     0.01487     0.00967
 Rotational constants (GHZ):           0.48591     0.30978     0.20141
 Zero-point vibrational energy     665007.3 (Joules/Mol)
                                  158.94057 (Kcal/Mol)
 Warning -- explicit consideration of  23 degrees of freedom as
           vibrations may cause significant error
 Vibrational temperatures:     19.30    50.02    64.79    87.38   121.65
          (Kelvin)            143.15   180.86   255.59   314.53   359.74
                              407.35   471.10   475.37   502.00   513.36
                              584.04   599.67   605.89   609.36   742.91
                              761.03   842.68   882.79   895.56   912.90
                              950.18   972.17  1027.74  1050.00  1084.93
                             1097.44  1129.93  1165.36  1180.91  1215.18
                             1238.86  1299.49  1316.59  1388.95  1398.43
                             1407.44  1439.74  1448.36  1457.34  1464.90
                             1498.82  1516.89  1547.94  1553.28  1597.60
                             1623.47  1658.01  1710.09  1734.91  1761.70
                             1794.60  1885.41  1904.00  1922.98  1945.71
                             1951.59  1996.82  2076.72  2088.96  2111.95
                             2143.12  2180.32  2191.87  2208.94  2226.63
                             2259.33  2331.26  2342.05  2368.24  2372.67
                             2414.21  2437.77  4378.05  4453.42  4497.58
                             4565.11  4571.04  4571.51  4598.06  4599.45
                             4620.64  4625.71  4647.02  5094.31  5247.27

 Zero-point correction=                           0.253288 (Hartree/Particle)
 Thermal correction to Energy=                    0.269224
 Thermal correction to Enthalpy=                  0.270168
 Thermal correction to Gibbs Free Energy=         0.207341
 Sum of electronic and zero-point Energies=           -818.678704
 Sum of electronic and thermal Energies=              -818.662768
 Sum of electronic and thermal Enthalpies=            -818.661824
 Sum of electronic and thermal Free Energies=         -818.724650

                     E (Thermal)             CV                S
                      KCal/Mol        Cal/Mol-Kelvin    Cal/Mol-Kelvin
 Total                  168.940             61.423            132.229
 Electronic               0.000              0.000              0.000
 Translational            0.889              2.981             42.462
 Rotational               0.889              2.981             33.627
 Vibrational            167.163             55.461             56.140
 Vibration     1          0.593              1.987              7.428
 Vibration     2          0.594              1.983              5.537
 Vibration     3          0.595              1.979              5.024
 Vibration     4          0.597              1.973              4.433
 Vibration     5          0.601              1.960              3.782
 Vibration     6          0.604              1.949              3.464
 Vibration     7          0.611              1.927              3.011
 Vibration     8          0.628              1.870              2.353
 Vibration     9          0.646              1.813              1.971
 Vibration    10          0.663              1.763              1.730
 Vibration    11          0.682              1.705              1.515
 Vibration    12          0.711              1.621              1.273
 Vibration    13          0.713              1.615              1.258
 Vibration    14          0.726              1.577              1.171
 Vibration    15          0.732              1.561              1.136
 Vibration    16          0.771              1.457              0.941
 Vibration    17          0.780              1.434              0.903
 Vibration    18          0.784              1.424              0.888
 Vibration    19          0.786              1.419              0.880
 Vibration    20          0.871              1.214              0.618
 Vibration    21          0.884              1.186              0.590
 Vibration    22          0.943              1.062              0.475
 Vibration    23          0.973              1.003              0.427

                           ! Non-Optimized Parameters !
 Normal termination of Gaussian 16 at Sun Dec 13 16:37:16 2020.

 ----------------------------------------------------------------------
 # B3LYP/6-311++G(d,p) empiricaldispersion=gd3bj scf=xqc pop=npa geom=c
 heck
 ----------------------------------------------------------------------

 --------------------------------------
 CID_62823200_JID_9184_Energie_neutraal
 --------------------------------------
 Structure from the checkpoint file:  "JID_9184.chk"
 Charge =  0 Multiplicity = 1

 SCF Done:  E(RB3LYP) =  -819.146224495     A.U. after   16 cycles
 Normal termination of Gaussian 16 at Sun Dec 13 16:44:18 2020.

 ----------------------------------------------------------------------
 # B3LYP/6-311++G(d,p) empiricaldispersion=gd3bj scf=xqc pop=npa geom=c
 heck
 ----------------------------------------------------------------------

 ------------------------------------
 CID_62823200_JID_9184_Energie_kation
 ------------------------------------
 Structure from the checkpoint file:  "JID_9184.chk"
 Charge =  1 Multiplicity = 2

 SCF Done:  E(UB3LYP) =  -818.869541060     A.U. after   25 cycles
 Normal termination of Gaussian 16 at Sun Dec 13 16:59:53 2020.
 Gaussian 16:  ES64L-G16RevA.03 25-Dec-2016

 ----------------------------------------------------------------------
 # B3LYP/6-311++G(d,p) empiricaldispersion=gd3bj scf=xqc pop=npa geom=c
 heck
 ----------------------------------------------------------------------

 -----------------------------------
 CID_62823200_JID_9184_Energie_anion
 -----------------------------------
 Structure from the checkpoint file:  "JID_9184.chk"
 Charge = -1 Multiplicity = 2

                         Standard orientation:
 ---------------------------------------------------------------------
 Center     Atomic      Atomic             Coordinates (Angstroms)
 Number     Number       Type             X           Y           Z
 ---------------------------------------------------------------------
      1          6           0        4.593863   -2.263750   -0.222591
      2          6           0        3.400828   -1.343202   -0.145790
      3          6           0        2.239815   -1.609725   -0.886923
      4          6           0        1.141111   -0.760464   -0.840751
      5          6           0        1.153248    0.390512   -0.032078
      6          6           0        2.310869    0.653400    0.717565
      7          6           0        3.414897   -0.196960    0.653505
      8          6           0        0.007800    1.305801    0.010585
      9          6           0        0.050905    2.682655   -0.016953
     10          8           0       -1.186637    3.197363   -0.040733
     11          7           0       -2.130978    2.136426   -0.029514
     12          6           0       -1.402607    1.039613   -0.003576
     13          6           0       -2.072909   -0.278683    0.071654
     14          6           0       -1.573018   -1.265534    0.933232
     15          6           0       -2.231001   -2.489641    1.001102
     16          6           0       -3.362825   -2.687521    0.212184
     17          6           0       -3.783059   -1.641756   -0.611159
     18          7           0       -3.161286   -0.462015   -0.693556
     19          7           0        1.095437    3.574146   -0.001859
     20          1           0        4.308225   -3.305781   -0.036287
     21          1           0        5.059575   -2.231458   -1.215879
     22          1           0        5.358083   -1.988491    0.510758
     23          1           0        2.202719   -2.493829   -1.519482
     24          1           0        0.262953   -0.980194   -1.439365
     25          1           0        2.333996    1.515435    1.379035
     26          1           0        4.297117    0.028828    1.247815
     27          1           0       -0.691702   -1.067804    1.532546
     28          1           0       -1.868100   -3.272223    1.661266
     29          1           0       -3.908655   -3.625736    0.231057
     30          1           0       -4.662292   -1.758073   -1.242421
     31          1           0        0.881451    4.472438   -0.419767
     32          1           0        1.970029    3.179617   -0.328936
 ---------------------------------------------------------------------

 SCF Done:  E(UB3LYP) =  -819.145364160     A.U. after   33 cycles
 SCF Done:  E(UB3LYP) =  -819.145364160     a.u. after    1 cycles

 The electronic state is 2-A.
 Alpha  occ. eigenvalues --  -19.07950 -14.23021 -14.21706 -14.17127 -10.15746
 Alpha  occ. eigenvalues --  -10.08361 -10.08243 -10.08160 -10.08111 -10.08111
 Alpha  occ. eigenvalues --  -10.08103 -10.07391 -10.07031 -10.06938 -10.06933
 Alpha  occ. eigenvalues --  -10.06116 -10.05950 -10.05908 -10.05206  -1.01732
 Alpha  occ. eigenvalues --   -0.82772  -0.81761  -0.76305  -0.74108  -0.69297
 Alpha  occ. eigenvalues --   -0.67955  -0.65114  -0.64607  -0.63907  -0.59081
 Alpha  occ. eigenvalues --   -0.53392  -0.51494  -0.50677  -0.50048  -0.47472
 Alpha  occ. eigenvalues --   -0.46650  -0.43047  -0.41268  -0.39050  -0.38195
 Alpha  occ. eigenvalues --   -0.37005  -0.36448  -0.35402  -0.34938  -0.33787
 Alpha  occ. eigenvalues --   -0.33384  -0.32301  -0.32001  -0.30412  -0.29597
 Alpha  occ. eigenvalues --   -0.28956  -0.28073  -0.27206  -0.26195  -0.24983
 Alpha  occ. eigenvalues --   -0.24351  -0.23985  -0.22982  -0.19308  -0.18452
 Alpha  occ. eigenvalues --   -0.16954  -0.15832  -0.15412  -0.13193  -0.12848
 Alpha  occ. eigenvalues --   -0.09869   0.04239
 Alpha virt. eigenvalues --    0.05950   0.06502   0.07441   0.07859   0.08138
 Alpha virt. eigenvalues --    0.08297   0.09360   0.09516   0.09691   0.10389
 Alpha virt. eigenvalues --    0.11029   0.11260   0.11425   0.12498   0.13049

  Beta  occ. eigenvalues --  -19.07917 -14.22966 -14.21457 -14.16847 -10.15760
  Beta  occ. eigenvalues --  -10.08423 -10.08241 -10.08091 -10.08061 -10.08053
  Beta  occ. eigenvalues --  -10.07972 -10.07399 -10.07001 -10.06940 -10.06887
  Beta  occ. eigenvalues --  -10.05993 -10.05947 -10.05937 -10.05030  -1.01619
  Beta  occ. eigenvalues --   -0.82643  -0.81370  -0.76213  -0.73886  -0.69159
  Beta  occ. eigenvalues --   -0.67596  -0.64961  -0.64539  -0.63695  -0.59014
  Beta  occ. eigenvalues --   -0.53047  -0.51409  -0.50550  -0.49961  -0.47374
  Beta  occ. eigenvalues --   -0.46469  -0.42958  -0.41159  -0.38972  -0.38091
  Beta  occ. eigenvalues --   -0.36921  -0.36318  -0.35277  -0.34760  -0.33663
  Beta  occ. eigenvalues --   -0.33306  -0.32216  -0.31969  -0.30345  -0.29535
  Beta  occ. eigenvalues --   -0.28828  -0.27696  -0.26703  -0.26031  -0.24925
  Beta  occ. eigenvalues --   -0.24252  -0.23915  -0.22727  -0.18864  -0.18064
  Beta  occ. eigenvalues --   -0.16017  -0.15445  -0.15030  -0.12832  -0.12146
  Beta  occ. eigenvalues --   -0.09459
  Beta virt. eigenvalues --    0.06100   0.07365   0.07615   0.07859   0.08199
  Beta virt. eigenvalues --    0.08495   0.08874   0.09374   0.09696   0.09798
  Beta virt. eigenvalues --    0.10442   0.10975   0.11349   0.11746   0.12518

 Mulliken charges and spin densities:
               1          2
     1  C   -0.237189  -0.446720
     2  C    0.329377   0.231465
     3  C   -0.509853   0.226792
     4  C   -0.397998  -0.022494
     5  C    0.619741  -0.122045
     6  C   -0.220265  -0.101116
     7  C   -0.750403   0.041325
     8  C    0.226282  -0.653531
     9  C   -0.254892   0.285400
    10  O    0.182126  -0.007653
    11  N   -0.545229   0.119114
    12  C    0.718162  -0.265742
    13  C   -0.718771   0.056159
    14  C    0.783883   0.006102
    15  C   -0.806923   0.099503
    16  C   -0.053432   0.163545
    17  C   -0.037133  -0.042681
    18  N    0.088721   0.133114
    19  N   -0.324189  -0.020847
    20  H    0.144580  -0.006835
    21  H    0.026209   0.123533
    22  H    0.071534   0.066654
    23  H    0.149528   0.011342
    24  H    0.168594   0.015523
    25  H    0.117438   0.090661
    26  H   -0.042437   0.167206
    27  H    0.197386  -0.000705
    28  H    0.134018  -0.008744
    29  H    0.122677  -0.009474
    30  H    0.151694   0.002249
    31  H   -0.251385   0.530460
    32  H   -0.081850   0.338441
 Sum of Mulliken charges =  -1.00000   1.00000

 Dipole moment (field-independent basis, Debye):
    X=              3.3483    Y=             -5.6394    Z=              1.1390  Tot=              6.6567
 Quadrupole moment (field-independent basis, Debye-Ang):
   XX=           -164.9191   YY=           -153.8009   ZZ=           -124.9235
   XY=             -0.3510   XZ=              1.6745   YZ=              1.7254

 Summary of Natural Population Analysis:

                                       Natural Population
                Natural  -----------------------------------------------
    Atom  No    Charge         Core      Valence    Rydberg      Total
 -----------------------------------------------------------------------
      C    1   -0.29041      0.99964     2.28624    0.00453     3.29041
      C    2   -0.02040      0.99952     2.01221    0.00868     3.02040
      C    3   -0.09492      0.99952     2.08650    0.00891     3.09492
      C    4   -0.09005      0.99953     2.08156    0.00896     3.09005
      C    5   -0.01941      0.99950     2.01053    0.00937     3.01941
      C    6   -0.09492      0.99953     2.08622    0.00916     3.09492
      C    7   -0.10558      0.99952     2.09651    0.00955     3.10558
      C    8   -0.11859      0.99940     2.10892    0.01027     3.11859
      C    9    0.26715      0.99945     1.71596    0.01743     2.73285
      O   10   -0.18218      0.99985     3.17412    0.00821     4.18218
      N   11   -0.04296      0.99968     2.53228    0.01100     3.54296
      C   12    0.08252      0.99954     1.89902    0.01892     2.91748
      C   13    0.11257      0.99950     1.87504    0.01290     2.88743
      C   14   -0.11944      0.99953     2.11275    0.00715     3.11944
      C   15   -0.06800      0.99957     2.05953    0.00889     3.06800
      C   16   -0.10153      0.99957     2.09306    0.00890     3.10153
      C   17    0.00998      0.99960     1.97621    0.01421     2.99002
      N   18   -0.18571      0.99968     2.67635    0.00967     3.68571
      N   19   -0.40207      0.99970     2.89220    0.01017     3.90207
      H   20    0.09993      0.00000     0.39916    0.00092     0.40007
      H   21    0.10200      0.00000     0.39678    0.00122     0.39800
      H   22    0.09908      0.00000     0.40015    0.00077     0.40092
      H   23    0.09562      0.00000     0.40351    0.00087     0.40438
      H   24    0.10714      0.00000     0.39148    0.00138     0.39286
      H   25    0.10204      0.00000     0.39653    0.00143     0.39796
      H   26    0.09578      0.00000     0.40335    0.00087     0.40422
      H   27    0.10488      0.00000     0.39396    0.00116     0.39512
      H   28    0.09266      0.00000     0.40633    0.00101     0.40734
      H   29    0.09247      0.00000     0.40638    0.00115     0.40753
      H   30    0.08185      0.00000     0.41686    0.00128     0.41815
      H   31    0.19379      0.00000     0.30233    0.00387     0.30621
      H   32    0.19667      0.00000     0.30070    0.00263     0.30333
 =======================================================================
   * Total *   -0.00000     18.99183    46.79273    0.21544    66.00000

 Normal termination of Gaussian 16 at Sun Dec 13 17:20:53 2020.
