 Gaussian 16, Revision A.03,

 -----------------------------------------------------------
 # opt freq B3LYP/6-31G(d) empiricaldispersion=gd3bj scf=xqc
 -----------------------------------------------------------

 -------------------------------
 CID_140192204_JID_8432_neutraal
 -------------------------------
 Symbolic Z-matrix:
 Charge =  0 Multiplicity = 1

 SCF Done:  E(RB3LYP) =  -877.384427743     A.U. after   14 cycles
 SCF Done:  E(RB3LYP) =  -877.392359233     A.U. after   12 cycles
 SCF Done:  E(RB3LYP) =  -877.394265892     A.U. after   12 cycles
 SCF Done:  E(RB3LYP) =  -877.394884264     A.U. after   12 cycles
 SCF Done:  E(RB3LYP) =  -877.395193702     A.U. after   11 cycles
 SCF Done:  E(RB3LYP) =  -877.395376010     A.U. after   11 cycles
 SCF Done:  E(RB3LYP) =  -877.395412290     A.U. after   10 cycles
 SCF Done:  E(RB3LYP) =  -877.395423792     A.U. after   10 cycles
 SCF Done:  E(RB3LYP) =  -877.395430283     A.U. after    9 cycles
 SCF Done:  E(RB3LYP) =  -877.395432593     A.U. after    8 cycles
 SCF Done:  E(RB3LYP) =  -877.395432985     A.U. after    8 cycles
 SCF Done:  E(RB3LYP) =  -877.395433092     A.U. after    7 cycles
 SCF Done:  E(RB3LYP) =  -877.395433147     A.U. after    7 cycles
 Optimization completed.
    -- Stationary point found.
 Normal termination of Gaussian 16 at Fri Dec 11 20:41:14 2020.

 --------------------------------------------------------------------
 #N Geom=AllCheck Guess=TCheck SCRF=Check GenChk RB3LYP/6-31G(d) Freq
 --------------------------------------------------------------------

 Structure from the checkpoint file:  "JID_8432.chk"
 -------------------------------
 CID_140192204_JID_8432_neutraal
 -------------------------------
 Charge =  0 Multiplicity = 1

 SCF Done:  E(RB3LYP) =  -877.395433147     A.U. after    1 cycles

  Exact polarizability: 186.910   4.508 147.954  10.464  -3.983 108.580
 Approx polarizability: 238.409  10.075 249.276  23.822  -7.054 164.562

                      1                      2                      3
                      A                      A                      A
 Frequencies --     27.1487                34.9169                47.5396
 Red. masses --      5.1657                 4.3065                 4.5907
 Frc consts  --      0.0022                 0.0031                 0.0061
 IR Inten    --      0.2481                 0.0526                 0.2551

                      4                      5                      6
                      A                      A                      A
 Frequencies --     77.0063                90.5733               101.4514
 Red. masses --      5.3887                 3.5519                 6.7690
 Frc consts  --      0.0188                 0.0172                 0.0410
 IR Inten    --      2.6292                 0.5693                 1.0129

                      7                      8                      9
                      A                      A                      A
 Frequencies --    118.6460               174.2134               189.2029
 Red. masses --      2.6180                 3.0663                 3.9983
 Frc consts  --      0.0217                 0.0548                 0.0843
 IR Inten    --      3.1809                 0.1066                 2.7865

                     10                     11                     12
                      A                      A                      A
 Frequencies --    242.3924               245.8330               272.7051
 Red. masses --      3.2864                 1.6002                 5.0128
 Frc consts  --      0.1138                 0.0570                 0.2196
 IR Inten    --      7.2692                 2.0475                 1.0302

                     13                     14                     15
                      A                      A                      A
 Frequencies --    308.1906               328.2494               345.3712
 Red. masses --      2.6808                 4.2551                 2.6892
 Frc consts  --      0.1500                 0.2701                 0.1890
 IR Inten    --      3.6534                 3.2322                 0.7197

                     16                     17                     18
                      A                      A                      A
 Frequencies --    354.1429               402.9916               434.0579
 Red. masses --      3.8343                 3.3776                 2.3572
 Frc consts  --      0.2833                 0.3232                 0.2617
 IR Inten    --      0.9617                 1.0415                 8.5026

                     19                     20                     21
                      A                      A                      A
 Frequencies --    462.5136               475.7381               525.9438
 Red. masses --      3.0043                 3.2360                 2.5743
 Frc consts  --      0.3786                 0.4315                 0.4196
 IR Inten    --     15.7957                 1.7792                29.2836

                     22                     23                     24
                      A                      A                      A
 Frequencies --    536.4539               554.8734               562.5674
 Red. masses --      3.6624                 1.2599                 4.3145
 Frc consts  --      0.6210                 0.2286                 0.8045
 IR Inten    --     17.7746                73.9208                13.6836

                     25                     26                     27
                      A                      A                      A
 Frequencies --    588.1505               601.6356               623.6281
 Red. masses --      3.8079                 4.1819                 4.1476
 Frc consts  --      0.7761                 0.8919                 0.9504
 IR Inten    --     18.2406                 6.3570                17.7192

                     28                     29                     30
                      A                      A                      A
 Frequencies --    704.0523               730.8637               759.0953
 Red. masses --      4.3960                 5.1486                 4.7801
 Frc consts  --      1.2839                 1.6204                 1.6229
 IR Inten    --      2.2089                 4.1827                 7.8415

                     31                     32                     33
                      A                      A                      A
 Frequencies --    767.3012               790.3652               798.1275
 Red. masses --      9.3523                 1.3629                 4.3393
 Frc consts  --      3.2441                 0.5016                 1.6286
 IR Inten    --     37.7641                 0.7758                 4.3276

                     34                     35                     36
                      A                      A                      A
 Frequencies --    817.8568               846.3496               871.9556
 Red. masses --      2.5038                 2.2664                 3.0238
 Frc consts  --      0.9867                 0.9565                 1.3546
 IR Inten    --     37.2372                 5.7642                 1.0291

                     37                     38                     39
                      A                      A                      A
 Frequencies --    887.3610               930.3353               937.1608
 Red. masses --      3.0756                 1.5122                 1.5929
 Frc consts  --      1.4269                 0.7712                 0.8243
 IR Inten    --      1.6350                 6.7437                 1.2919

                     40                     41                     42
                      A                      A                      A
 Frequencies --    966.8484               971.1899               997.8766
 Red. masses --      3.2644                 1.3722                 2.3226
 Frc consts  --      1.7979                 0.7626                 1.3626
 IR Inten    --     30.5343                 0.3010                11.2436

                     43                     44                     45
                      A                      A                      A
 Frequencies --   1021.0180              1070.9164              1086.9270
 Red. masses --      2.5532                 3.1333                 2.8877
 Frc consts  --      1.5682                 2.1172                 2.0100
 IR Inten    --     32.7681                32.0789                66.4995

                     46                     47                     48
                      A                      A                      A
 Frequencies --   1103.1961              1122.2548              1128.8558
 Red. masses --      3.3443                 1.9953                 1.9818
 Frc consts  --      2.3981                 1.4806                 1.4879
 IR Inten    --     84.8425               228.3470                21.2155

                     49                     50                     51
                      A                      A                      A
 Frequencies --   1146.7015              1193.2523              1195.7833
 Red. masses --      2.0917                 1.6685                 1.9168
 Frc consts  --      1.6205                 1.3997                 1.6149
 IR Inten    --     58.6861                56.5867                77.1038

                     52                     53                     54
                      A                      A                      A
 Frequencies --   1219.1179              1229.9141              1278.3794
 Red. masses --      2.9191                 1.7494                 1.8956
 Frc consts  --      2.5562                 1.5592                 1.8252
 IR Inten    --     56.3662               205.7841                50.0685

                     55                     56                     57
                      A                      A                      A
 Frequencies --   1301.6911              1308.0675              1317.6708
 Red. masses --      1.3718                 1.3113                 1.6234
 Frc consts  --      1.3695                 1.3219                 1.6607
 IR Inten    --     15.2157                16.0416                65.1207

                     58                     59                     60
                      A                      A                      A
 Frequencies --   1328.3286              1344.5702              1357.7744
 Red. masses --      1.7795                 1.6721                 1.8396
 Frc consts  --      1.8499                 1.7811                 1.9982
 IR Inten    --    116.0204                37.5622                55.1050

                     61                     62                     63
                      A                      A                      A
 Frequencies --   1363.2802              1392.5165              1406.3601
 Red. masses --      1.9920                 1.6212                 1.4356
 Frc consts  --      2.1813                 1.8522                 1.6729
 IR Inten    --    138.0432                11.6448                 4.9163

                     64                     65                     66
                      A                      A                      A
 Frequencies --   1417.1041              1424.1391              1431.1875
 Red. masses --      1.3963                 1.3687                 1.4692
 Frc consts  --      1.6520                 1.6356                 1.7730
 IR Inten    --     78.4723                23.2333                 5.8232

                     67                     68                     69
                      A                      A                      A
 Frequencies --   1448.2238              1462.9877              1480.1741
 Red. masses --      1.2880                 2.5579                 1.8467
 Frc consts  --      1.5916                 3.2256                 2.3838
 IR Inten    --      7.3646                87.8422               116.5369

                     70                     71                     72
                      A                      A                      A
 Frequencies --   1496.7532              1502.2162              1509.5298
 Red. masses --      1.1507                 1.5988                 1.1081
 Frc consts  --      1.5189                 2.1257                 1.4877
 IR Inten    --      9.1697               106.2159                 5.4164

                     73                     74                     75
                      A                      A                      A
 Frequencies --   1521.0050              1522.6481              1526.6774
 Red. masses --      1.1711                 1.1929                 1.4542
 Frc consts  --      1.5963                 1.6295                 1.9969
 IR Inten    --     29.9000                36.8824                90.6903

                     76                     77                     78
                      A                      A                      A
 Frequencies --   1538.0067              1539.3038              1625.5486
 Red. masses --      1.3673                 1.0521                 6.9028
 Frc consts  --      1.9056                 1.4688                10.7467
 IR Inten    --     72.0357                10.3228                84.3118

                     79                     80                     81
                      A                      A                      A
 Frequencies --   1662.9177              1823.8281              3036.8580
 Red. masses --      7.1012                 8.5946                 1.0615
 Frc consts  --     11.5697                16.8439                 5.7678
 IR Inten    --    254.4337               387.8904                34.1333

                     82                     83                     84
                      A                      A                      A
 Frequencies --   3055.4595              3057.7473              3066.7963
 Red. masses --      1.0630                 1.0358                 1.0677
 Frc consts  --      5.8472                 5.7057                 5.9165
 IR Inten    --     31.0077                21.3100                 0.7780

                     85                     86                     87
                      A                      A                      A
 Frequencies --   3071.3522              3072.4779              3085.4215
 Red. masses --      1.0681                 1.0985                 1.0650
 Frc consts  --      5.9362                 6.1100                 5.9735
 IR Inten    --     50.4739                16.6349                65.2100

                     88                     89                     90
                      A                      A                      A
 Frequencies --   3120.0295              3122.8441              3134.1713
 Red. masses --      1.1058                 1.1019                 1.1031
 Frc consts  --      6.3423                 6.3314                 6.3841
 IR Inten    --     38.8970                53.8719                23.4024

                     91                     92                     93
                      A                      A                      A
 Frequencies --   3149.2898              3154.9499              3159.3573
 Red. masses --      1.1048                 1.0968                 1.0963
 Frc consts  --      6.4562                 6.4322                 6.4475
 IR Inten    --     14.2872                 5.0254                 6.5578

                     94                     95                     96
                      A                      A                      A
 Frequencies --   3202.2954              3236.0251              3736.2725
 Red. masses --      1.0901                 1.0942                 1.0646
 Frc consts  --      6.5863                 6.7511                 8.7564
 IR Inten    --      6.7499                 4.4484                87.3491

 - Thermochemistry -
 -------------------
 Temperature   298.150 Kelvin.  Pressure   1.00000 Atm.
 Atom     1 has atomic number  6 and mass  12.00000

 Molecular mass:   252.11101 amu.
 Principal axes and moments of inertia in atomic units:
                           1         2         3
     Eigenvalues --  1917.268127966.774418770.98392
           X            1.00000  -0.00092  -0.00073
           Y            0.00091   0.99991  -0.01358
           Z            0.00074   0.01358   0.99991
 This molecule is an asymmetric top.
 Rotational symmetry number  1.
 Warning -- assumption of classical behavior for rotation
           may cause significant error
 Rotational temperatures (Kelvin)      0.04518     0.01087     0.00988
 Rotational constants (GHZ):           0.94131     0.22653     0.20576
 Zero-point vibrational energy     740566.5 (Joules/Mol)
                                  176.99964 (Kcal/Mol)
 Warning -- explicit consideration of  26 degrees of freedom as
           vibrations may cause significant error
 Vibrational temperatures:     39.06    50.24    68.40   110.79   130.31
          (Kelvin)            145.97   170.71   250.65   272.22   348.75
                              353.70   392.36   443.42   472.28   496.91
                              509.53   579.82   624.51   665.45   684.48
                              756.72   771.84   798.34   809.41   846.22
                              865.62   897.26  1012.97  1051.55  1092.17
                             1103.98  1137.16  1148.33  1176.71  1217.71
                             1254.55  1276.71  1338.54  1348.37  1391.08
                             1397.33  1435.72  1469.02  1540.81  1563.85
                             1587.25  1614.67  1624.17  1649.85  1716.82
                             1720.47  1754.04  1769.57  1839.30  1872.84
                             1882.02  1895.83  1911.17  1934.54  1953.53
                             1961.46  2003.52  2023.44  2038.90  2049.02
                             2059.16  2083.67  2104.91  2129.64  2153.49
                             2161.35  2171.88  2188.39  2190.75  2196.55
                             2212.85  2214.71  2338.80  2392.57  2624.08
                             4369.36  4396.12  4399.42  4412.44  4418.99
                             4420.61  4439.23  4489.03  4493.08  4509.37
                             4531.13  4539.27  4545.61  4607.39  4655.92
                             5375.66

 Zero-point correction=                           0.282067 (Hartree/Particle)
 Thermal correction to Energy=                    0.298366
 Thermal correction to Enthalpy=                  0.299311
 Thermal correction to Gibbs Free Energy=         0.236759
 Sum of electronic and zero-point Energies=           -877.113366
 Sum of electronic and thermal Energies=              -877.097067
 Sum of electronic and thermal Enthalpies=            -877.096122
 Sum of electronic and thermal Free Energies=         -877.158674

                     E (Thermal)             CV                S
                      KCal/Mol        Cal/Mol-Kelvin    Cal/Mol-Kelvin
 Total                  187.228             62.329            131.651
 Electronic               0.000              0.000              0.000
 Translational            0.889              2.981             42.474
 Rotational               0.889              2.981             33.260
 Vibrational            185.450             56.367             55.917
 Vibration     1          0.593              1.984              6.028
 Vibration     2          0.594              1.983              5.528
 Vibration     3          0.595              1.979              4.917
 Vibration     4          0.599              1.964              3.966
 Vibration     5          0.602              1.956              3.648
 Vibration     6          0.604              1.948              3.426
 Vibration     7          0.609              1.934              3.122
 Vibration     8          0.627              1.874              2.390
 Vibration     9          0.633              1.855              2.236
 Vibration    10          0.659              1.775              1.785
 Vibration    11          0.660              1.770              1.760
 Vibration    12          0.676              1.724              1.579
 Vibration    13          0.698              1.658              1.372
 Vibration    14          0.711              1.619              1.269
 Vibration    15          0.724              1.585              1.187
 Vibration    16          0.730              1.567              1.148
 Vibration    17          0.768              1.464              0.952
 Vibration    18          0.795              1.396              0.845
 Vibration    19          0.820              1.333              0.759
 Vibration    20          0.832              1.304              0.722
 Vibration    21          0.881              1.193              0.596
 Vibration    22          0.891              1.169              0.573
 Vibration    23          0.910              1.129              0.534
 Vibration    24          0.918              1.112              0.519
 Vibration    25          0.945              1.057              0.470
 Vibration    26          0.960              1.028              0.447

 Optimization completed.
    -- Stationary point found.
 Normal termination of Gaussian 16 at Fri Dec 11 20:54:29 2020.

 ----------------------------------------------------------------------
 # B3LYP/6-311++G(d,p) empiricaldispersion=gd3bj scf=xqc pop=npa geom=c
 heck
 ----------------------------------------------------------------------

 ---------------------------------------
 CID_140192204_JID_8432_Energie_neutraal
 ---------------------------------------
 Structure from the checkpoint file:  "JID_8432.chk"
 Charge =  0 Multiplicity = 1

 SCF Done:  E(RB3LYP) =  -877.647783079     A.U. after   15 cycles
 Normal termination of Gaussian 16 at Fri Dec 11 20:59:40 2020.

 ----------------------------------------------------------------------
 # B3LYP/6-311++G(d,p) empiricaldispersion=gd3bj scf=xqc pop=npa geom=c
 heck
 ----------------------------------------------------------------------

 -------------------------------------
 CID_140192204_JID_8432_Energie_kation
 -------------------------------------
 Structure from the checkpoint file:  "JID_8432.chk"
 Charge =  1 Multiplicity = 2

 SCF Done:  E(UB3LYP) =  -877.353458955     A.U. after   23 cycles
 Normal termination of Gaussian 16 at Fri Dec 11 21:09:59 2020.
 Gaussian 16:  ES64L-G16RevA.03 25-Dec-2016

 ----------------------------------------------------------------------
 # B3LYP/6-311++G(d,p) empiricaldispersion=gd3bj scf=xqc pop=npa geom=c
 heck
 ----------------------------------------------------------------------

 ------------------------------------
 CID_140192204_JID_8432_Energie_anion
 ------------------------------------
 Structure from the checkpoint file:  "JID_8432.chk"
 Charge = -1 Multiplicity = 2

                         Standard orientation:
 ---------------------------------------------------------------------
 Center     Atomic      Atomic             Coordinates (Angstroms)
 Number     Number       Type             X           Y           Z
 ---------------------------------------------------------------------
      1          6           0       -4.333803    0.963496    1.102152
      2          6           0       -4.935264    0.451963   -0.209311
      3          6           0       -3.898919    0.030361   -1.245847
      4          8           0       -3.130078   -1.097178   -0.779145
      5          6           0       -1.892940   -0.893460   -0.277337
      6          7           0       -1.371603    0.330645   -0.261437
      7          6           0       -0.156931    0.490703    0.255630
      8          6           0        0.607499   -0.547102    0.801713
      9          6           0        1.948712   -0.281044    1.438612
     10          7           0        2.923057    0.300186    0.511005
     11          6           0        2.775229    1.721333    0.221596
     12          6           0        1.480578    2.046127   -0.521786
     13          8           0        0.304690    1.784388    0.255910
     14          6           0        3.542390   -0.569301   -0.339574
     15          8           0        3.512131   -1.785115   -0.246945
     16          8           0        4.242706    0.071973   -1.322249
     17          6           0        0.053014   -1.831224    0.732269
     18          6           0       -1.208198   -2.025949    0.192347
     19          1           0       -3.645542    1.796039    0.924952
     20          1           0       -3.771022    0.173789    1.610071
     21          1           0       -5.121816    1.302935    1.783343
     22          1           0       -5.601448   -0.397225   -0.010265
     23          1           0       -5.553763    1.235156   -0.669519
     24          1           0       -4.388886   -0.323327   -2.157944
     25          1           0       -3.224082    0.852576   -1.491074
     26          1           0        2.368104   -1.209237    1.827444
     27          1           0        1.843509    0.426508    2.268809
     28          1           0        2.784631    2.262288    1.174963
     29          1           0        3.629375    2.055218   -0.368817
     30          1           0        1.445828    3.116757   -0.745005
     31          1           0        1.434930    1.489351   -1.465693
     32          1           0        4.662853   -0.645837   -1.826372
     33          1           0        0.623606   -2.675173    1.109423
     34          1           0       -1.670250   -3.003598    0.125353
 ---------------------------------------------------------------------

 SCF Done:  E(UB3LYP) =  -877.635808995     A.U. after   33 cycles
 SCF Done:  E(UB3LYP) =  -877.635808995     a.u. after    1 cycles

 The electronic state is 2-A.
 Alpha  occ. eigenvalues --  -19.06848 -19.05743 -19.04485 -19.00091 -14.25199
 Alpha  occ. eigenvalues --  -14.20055 -10.22455 -10.16522 -10.15818 -10.13124
 Alpha  occ. eigenvalues --  -10.12647 -10.11852 -10.11442 -10.08250 -10.08103
 Alpha  occ. eigenvalues --  -10.07995 -10.07113 -10.06668  -1.01395  -0.98102
 Alpha  occ. eigenvalues --   -0.96786  -0.91802  -0.85553  -0.83631  -0.71617
 Alpha  occ. eigenvalues --   -0.70381  -0.68215  -0.64832  -0.62261  -0.59400
 Alpha  occ. eigenvalues --   -0.57192  -0.53300  -0.51312  -0.49610  -0.49273
 Alpha  occ. eigenvalues --   -0.45269  -0.43798  -0.42302  -0.40734  -0.39235
 Alpha  occ. eigenvalues --   -0.38831  -0.38255  -0.36977  -0.36063  -0.35631
 Alpha  occ. eigenvalues --   -0.34913  -0.34049  -0.33180  -0.32071  -0.31642
 Alpha  occ. eigenvalues --   -0.31013  -0.30485  -0.30018  -0.28067  -0.27840
 Alpha  occ. eigenvalues --   -0.26626  -0.25999  -0.25292  -0.24331  -0.22881
 Alpha  occ. eigenvalues --   -0.22193  -0.20472  -0.18988  -0.18156  -0.17644
 Alpha  occ. eigenvalues --   -0.15633  -0.12748   0.04313
 Alpha virt. eigenvalues --    0.05749   0.06538   0.07146   0.07575   0.07775
 Alpha virt. eigenvalues --    0.08216   0.08902   0.09371   0.09631   0.10312
 Alpha virt. eigenvalues --    0.10605   0.11363   0.11601   0.11858   0.12590

  Beta  occ. eigenvalues --  -19.06807 -19.05744 -19.04493 -19.00075 -14.25194
  Beta  occ. eigenvalues --  -14.19932 -10.22454 -10.16513 -10.15758 -10.13093
  Beta  occ. eigenvalues --  -10.12642 -10.11843 -10.11412 -10.08111 -10.08086
  Beta  occ. eigenvalues --  -10.08019 -10.07080 -10.06656  -1.01346  -0.98081
  Beta  occ. eigenvalues --   -0.96759  -0.91753  -0.85531  -0.83478  -0.71469
  Beta  occ. eigenvalues --   -0.70332  -0.68142  -0.64775  -0.62202  -0.59337
  Beta  occ. eigenvalues --   -0.57122  -0.53172  -0.51225  -0.49513  -0.49205
  Beta  occ. eigenvalues --   -0.45234  -0.43731  -0.42263  -0.40697  -0.39189
  Beta  occ. eigenvalues --   -0.38789  -0.38186  -0.36939  -0.35967  -0.35590
  Beta  occ. eigenvalues --   -0.34849  -0.34016  -0.33140  -0.32036  -0.31562
  Beta  occ. eigenvalues --   -0.30922  -0.30422  -0.29957  -0.28025  -0.27734
  Beta  occ. eigenvalues --   -0.26582  -0.25972  -0.25233  -0.24308  -0.22824
  Beta  occ. eigenvalues --   -0.22086  -0.20317  -0.18879  -0.17656  -0.17514
  Beta  occ. eigenvalues --   -0.15587  -0.12549
  Beta virt. eigenvalues --    0.06206   0.06904   0.07641   0.07803   0.07885
  Beta virt. eigenvalues --    0.08252   0.08437   0.09040   0.09512   0.09794
  Beta virt. eigenvalues --    0.10479   0.11014   0.11618   0.11735   0.11927

 Mulliken charges and spin densities:
               1          2
     1  C   -0.222940  -0.191695
     2  C    0.147119  -0.415181
     3  C   -0.036635  -0.173471
     4  O   -0.050657   0.010238
     5  C   -0.171925  -0.114133
     6  N   -0.042517   0.078052
     7  C   -0.178973  -0.499177
     8  C   -0.014681   1.242035
     9  C    0.946925  -1.791834
    10  N   -0.113944   0.149585
    11  C    0.450566  -0.901340
    12  C   -0.050485  -0.100122
    13  O   -0.089674   0.027378
    14  C    0.413532  -0.287516
    15  O   -0.376278   0.023138
    16  O   -0.286174   0.084610
    17  C   -0.325199   0.283816
    18  C   -0.433312   0.134751
    19  H    0.139813   0.030337
    20  H    0.114028   0.020991
    21  H   -0.048655   0.187387
    22  H    0.054702   0.088187
    23  H   -0.209837   0.339077
    24  H   -0.147923   0.305215
    25  H    0.189819   0.002683
    26  H    0.183035   0.047548
    27  H    0.109755   0.084028
    28  H   -0.117361   0.293704
    29  H   -0.383711   0.605945
    30  H   -0.526263   0.723891
    31  H    0.199877  -0.035191
    32  H   -0.277557   0.587161
    33  H    0.050706   0.098730
    34  H    0.104824   0.061172
 Sum of Mulliken charges =  -1.00000   1.00000

 Dipole moment (field-independent basis, Debye):
    X=             -2.8994    Y=             -2.3052    Z=              2.4951  Tot=              4.4661
 Quadrupole moment (field-independent basis, Debye-Ang):
   XX=           -202.3091   YY=           -148.0308   ZZ=           -132.6475
   XY=              0.9612   XZ=              8.2648   YZ=             -1.0004

 Summary of Natural Population Analysis:

                                       Natural Population
                Natural  -----------------------------------------------
    Atom  No    Charge         Core      Valence    Rydberg      Total
 -----------------------------------------------------------------------
      C    1   -0.28895      0.99966     2.28440    0.00488     3.28895
      C    2   -0.20118      0.99964     2.19356    0.00798     3.20118
      C    3   -0.01583      0.99955     2.00359    0.01270     3.01583
      O    4   -0.28086      0.99985     3.27174    0.00926     4.28086
      C    5    0.27515      0.99946     1.70948    0.01591     2.72485
      N    6   -0.26042      0.99960     2.75130    0.00952     3.76042
      C    7    0.28478      0.99936     1.69980    0.01606     2.71522
      C    8   -0.08813      0.99944     2.08067    0.00802     3.08813
      C    9   -0.09037      0.99958     2.07879    0.01200     3.09037
      N   10   -0.26312      0.99964     2.75115    0.01233     3.76312
      C   11   -0.09945      0.99960     2.08808    0.01178     3.09945
      C   12   -0.01471      0.99955     2.00240    0.01276     3.01471
      O   13   -0.29049      0.99986     3.28175    0.00889     4.29049
      C   14    0.46305      0.99967     1.51186    0.02542     2.53695
      O   15   -0.33628      0.99987     3.33073    0.00567     4.33628
      O   16   -0.35304      0.99988     3.34672    0.00644     4.35304
      C   17   -0.04022      0.99954     2.03198    0.00870     3.04022
      C   18   -0.14401      0.99952     2.13543    0.00905     3.14401
      H   19    0.10429      0.00000     0.39445    0.00126     0.39571
      H   20    0.09974      0.00000     0.39910    0.00117     0.40026
      H   21    0.09526      0.00000     0.40381    0.00093     0.40474
      H   22    0.09425      0.00000     0.40458    0.00117     0.40575
      H   23    0.09695      0.00000     0.40155    0.00150     0.40305
      H   24    0.08827      0.00000     0.41063    0.00110     0.41173
      H   25    0.10079      0.00000     0.39738    0.00182     0.39921
      H   26    0.11281      0.00000     0.38610    0.00109     0.38719
      H   27    0.10120      0.00000     0.39748    0.00133     0.39880
      H   28    0.09734      0.00000     0.40111    0.00154     0.40266
      H   29    0.11692      0.00000     0.38074    0.00234     0.38308
      H   30    0.09572      0.00000     0.40233    0.00195     0.40428
      H   31    0.08816      0.00000     0.41035    0.00150     0.41184
      H   32    0.24609      0.00000     0.24586    0.00805     0.25391
      H   33    0.10107      0.00000     0.39803    0.00090     0.39893
      H   34    0.10521      0.00000     0.39382    0.00097     0.39479
 =======================================================================
   * Total *   -0.00000     17.99327    48.78073    0.22600    67.00000

 Normal termination of Gaussian 16 at Fri Dec 11 21:25:10 2020.
