 Gaussian 16, Revision A.03,

 -----------------------------------------------------------
 # opt freq B3LYP/6-31G(d) empiricaldispersion=gd3bj scf=xqc
 -----------------------------------------------------------

 ------------------------------
 CID_62344424_JID_9540_neutraal
 ------------------------------
 Symbolic Z-matrix:
 Charge =  0 Multiplicity = 1

 SCF Done:  E(RB3LYP) =  -931.418311789     A.U. after   18 cycles
 SCF Done:  E(RB3LYP) =  -931.421194369     A.U. after   15 cycles
 SCF Done:  E(RB3LYP) =  -931.417941281     A.U. after   15 cycles
 SCF Done:  E(RB3LYP) =  -931.420963893     A.U. after   15 cycles
 SCF Done:  E(RB3LYP) =  -931.422467668     A.U. after   12 cycles
 SCF Done:  E(RB3LYP) =  -931.423534878     A.U. after   14 cycles
 SCF Done:  E(RB3LYP) =  -931.423755936     A.U. after   14 cycles
 SCF Done:  E(RB3LYP) =  -931.424024500     A.U. after   12 cycles
 SCF Done:  E(RB3LYP) =  -931.424053748     A.U. after   12 cycles
 SCF Done:  E(RB3LYP) =  -931.424089705     A.U. after   12 cycles
 SCF Done:  E(RB3LYP) =  -931.424093646     A.U. after    9 cycles
 SCF Done:  E(RB3LYP) =  -931.424095115     A.U. after    9 cycles
 SCF Done:  E(RB3LYP) =  -931.424095442     A.U. after    8 cycles
 SCF Done:  E(RB3LYP) =  -931.424095598     A.U. after    8 cycles
 SCF Done:  E(RB3LYP) =  -931.424095600     A.U. after    8 cycles
 Optimization completed.
    -- Stationary point found.
 Normal termination of Gaussian 16 at Sun Dec 13 16:17:32 2020.

 --------------------------------------------------------------------
 #N Geom=AllCheck Guess=TCheck SCRF=Check GenChk RB3LYP/6-31G(d) Freq
 --------------------------------------------------------------------

 Structure from the checkpoint file:  "JID_9540.chk"
 ------------------------------
 CID_62344424_JID_9540_neutraal
 ------------------------------
 Charge =  0 Multiplicity = 1

 SCF Done:  E(RB3LYP) =  -931.424095600     A.U. after    1 cycles

  Exact polarizability: 196.972 -13.017 159.474  19.985  14.362 112.519
 Approx polarizability: 268.195 -18.969 261.881  56.676  30.369 206.299

                      1                      2                      3
                      A                      A                      A
 Frequencies --     31.2286                39.6086                53.3316
 Red. masses --      3.9820                 6.0229                 4.8199
 Frc consts  --      0.0023                 0.0056                 0.0081
 IR Inten    --      1.8426                 0.2308                 2.4834

                      4                      5                      6
                      A                      A                      A
 Frequencies --     58.2752                82.3789               111.9845
 Red. masses --      8.2756                 6.9886                 4.7408
 Frc consts  --      0.0166                 0.0279                 0.0350
 IR Inten    --      4.4967                 0.8307                 1.0059

                      7                      8                      9
                      A                      A                      A
 Frequencies --    142.1485               151.9145               172.2861
 Red. masses --      7.2101                 6.9637                 3.8555
 Frc consts  --      0.0858                 0.0947                 0.0674
 IR Inten    --      0.9810                 3.0131                 5.0527

                     10                     11                     12
                      A                      A                      A
 Frequencies --    196.6033               250.4736               281.8892
 Red. masses --      5.1426                 1.8372                 5.9222
 Frc consts  --      0.1171                 0.0679                 0.2773
 IR Inten    --      1.2998                 0.0158                 1.5608

                     13                     14                     15
                      A                      A                      A
 Frequencies --    295.4069               340.8312               351.4763
 Red. masses --      5.1831                 3.0317                 7.7395
 Frc consts  --      0.2665                 0.2075                 0.5633
 IR Inten    --      7.5996                 1.4324                 2.4018

                     16                     17                     18
                      A                      A                      A
 Frequencies --    375.9912               393.0950               411.7266
 Red. masses --      3.8086                 4.0094                 3.7780
 Frc consts  --      0.3172                 0.3650                 0.3773
 IR Inten    --      4.3626                 0.9012                 2.5100

                     19                     20                     21
                      A                      A                      A
 Frequencies --    428.3758               453.9941               474.8224
 Red. masses --      1.2396                 4.0354                 2.9266
 Frc consts  --      0.1340                 0.4900                 0.3888
 IR Inten    --    159.1754                14.3625                17.7955

                     22                     23                     24
                      A                      A                      A
 Frequencies --    488.2563               520.3664               544.3718
 Red. masses --      4.2554                 2.9556                 1.5947
 Frc consts  --      0.5977                 0.4715                 0.2784
 IR Inten    --      2.5748                 3.4763                61.0584

                     25                     26                     27
                      A                      A                      A
 Frequencies --    559.2072               589.6556               609.1327
 Red. masses --      2.5726                 3.2941                 3.4198
 Frc consts  --      0.4740                 0.6748                 0.7476
 IR Inten    --     27.0650                 8.4118                38.9889

                     28                     29                     30
                      A                      A                      A
 Frequencies --    628.4095               683.1015               711.2277
 Red. masses --      2.6371                 6.3566                 4.7189
 Frc consts  --      0.6136                 1.7476                 1.4064
 IR Inten    --     25.4385                22.5875                14.1351

                     31                     32                     33
                      A                      A                      A
 Frequencies --    754.0033               777.6230               792.6644
 Red. masses --      4.1961                 5.3966                 5.2287
 Frc consts  --      1.4055                 1.9227                 1.9356
 IR Inten    --      6.2381                26.6198                 5.6939

                     34                     35                     36
                      A                      A                      A
 Frequencies --    799.3601               822.4708               842.9038
 Red. masses --      2.2548                 5.0552                 1.4245
 Frc consts  --      0.8489                 2.0148                 0.5963
 IR Inten    --     70.0513                22.4250                 1.2425

                     37                     38                     39
                      A                      A                      A
 Frequencies --    859.2092               875.6764               903.8950
 Red. masses --      1.7602                 1.9687                 2.4630
 Frc consts  --      0.7656                 0.8895                 1.1856
 IR Inten    --     18.9857                 3.0980                 1.7121

                     40                     41                     42
                      A                      A                      A
 Frequencies --    926.5623               933.3206               951.4580
 Red. masses --      5.2306                 2.0323                 1.4748
 Frc consts  --      2.6458                 1.0430                 0.7866
 IR Inten    --      5.9670                 0.7164                14.1545

                     43                     44                     45
                      A                      A                      A
 Frequencies --    974.7080               992.0415              1007.3567
 Red. masses --      1.4285                 3.2026                 1.4158
 Frc consts  --      0.7996                 1.8570                 0.8465
 IR Inten    --      7.5736               103.9540                 1.1971

                     46                     47                     48
                      A                      A                      A
 Frequencies --   1056.9837              1085.2556              1108.8597
 Red. masses --      1.9544                 2.3019                 1.8667
 Frc consts  --      1.2865                 1.5974                 1.3523
 IR Inten    --     32.2700                49.0413                 1.3483

                     49                     50                     51
                      A                      A                      A
 Frequencies --   1111.5143              1123.1102              1158.2162
 Red. masses --      2.0894                 2.5878                 2.2887
 Frc consts  --      1.5209                 1.9232                 1.8089
 IR Inten    --     57.0197                 0.1440                10.5109

                     52                     53                     54
                      A                      A                      A
 Frequencies --   1167.4585              1176.7990              1184.8663
 Red. masses --      2.3234                 2.7326                 1.1930
 Frc consts  --      1.8657                 2.2296                 0.9868
 IR Inten    --     39.6242                25.7121                 0.5639

                     55                     56                     57
                      A                      A                      A
 Frequencies --   1193.1940              1241.9127              1267.6194
 Red. masses --      1.7773                 1.2272                 2.2075
 Frc consts  --      1.4908                 1.1152                 2.0899
 IR Inten    --     11.3482                 0.2378                94.9177

                     58                     59                     60
                      A                      A                      A
 Frequencies --   1289.3134              1305.4440              1318.6134
 Red. masses --      1.7582                 1.3387                 1.3085
 Frc consts  --      1.7220                 1.3442                 1.3404
 IR Inten    --    131.4269                 2.1257                25.1286

                     61                     62                     63
                      A                      A                      A
 Frequencies --   1347.8556              1349.5056              1368.0936
 Red. masses --      3.1797                 1.6170                 1.2984
 Frc consts  --      3.4034                 1.7350                 1.4318
 IR Inten    --      7.6473                 2.6916                29.1533

                     64                     65                     66
                      A                      A                      A
 Frequencies --   1377.7644              1380.4582              1409.3462
 Red. masses --      2.3735                 1.6832                 1.4492
 Frc consts  --      2.6545                 1.8898                 1.6959
 IR Inten    --    188.9809               157.9592                 8.5547

                     67                     68                     69
                      A                      A                      A
 Frequencies --   1412.0395              1427.7385              1448.1474
 Red. masses --     11.6873                 1.4038                 1.5048
 Frc consts  --     13.7296                 1.6859                 1.8594
 IR Inten    --    180.7144                 9.8372                15.6518

                     70                     71                     72
                      A                      A                      A
 Frequencies --   1450.7583              1496.4585              1511.6694
 Red. masses --      3.5142                 1.2706                 1.1019
 Frc consts  --      4.3578                 1.6764                 1.4836
 IR Inten    --     12.6422                 3.7513                 0.5438

                     73                     74                     75
                      A                      A                      A
 Frequencies --   1527.8236              1529.5016              1538.4688
 Red. masses --      1.0996                 1.1128                 2.9356
 Frc consts  --      1.5122                 1.5338                 4.0938
 IR Inten    --      8.4413                 1.6631                54.2987

                     76                     77                     78
                      A                      A                      A
 Frequencies --   1541.0273              1612.3273              1637.0908
 Red. masses --      1.1388                 7.1537                 9.9836
 Frc consts  --      1.5934                10.9569                15.7645
 IR Inten    --      0.0893                20.7712               122.6377

                     79                     80                     81
                      A                      A                      A
 Frequencies --   1649.6507              1672.0855              1794.5598
 Red. masses --      1.2482                 7.5440                 8.4561
 Frc consts  --      2.0013                12.4271                16.0448
 IR Inten    --    132.8089               169.4847               254.8215

                     82                     83                     84
                      A                      A                      A
 Frequencies --   2920.1817              2926.8970              3059.9937
 Red. masses --      1.0744                 1.0729                 1.0595
 Frc consts  --      5.3982                 5.4151                 5.8454
 IR Inten    --     37.8776               140.6239                15.5357

                     85                     86                     87
                      A                      A                      A
 Frequencies --   3067.3805              3083.3098              3089.3902
 Red. masses --      1.0647                 1.0854                 1.0875
 Frc consts  --      5.9023                 6.0798                 6.1156
 IR Inten    --     10.3294                25.0041                45.4328

                     88                     89                     90
                      A                      A                      A
 Frequencies --   3097.1525              3112.1280              3132.6687
 Red. masses --      1.0881                 1.1037                 1.1024
 Frc consts  --      6.1497                 6.2984                 6.3741
 IR Inten    --     27.5771                41.1900                19.8037

                     91                     92                     93
                      A                      A                      A
 Frequencies --   3203.8052              3230.3188              3251.5595
 Red. masses --      1.0888                 1.0934                 1.0910
 Frc consts  --      6.5846                 6.7225                 6.7961
 IR Inten    --      7.8333                 4.5879                 7.0762

                     94                     95                     96
                      A                      A                      A
 Frequencies --   3508.1989              3578.1384              3695.6796
 Red. masses --      1.0747                 1.0462                 1.1023
 Frc consts  --      7.7928                 7.8919                 8.8701
 IR Inten    --      0.7339                40.9925                28.8997

 - Thermochemistry -
 -------------------
 Temperature   298.150 Kelvin.  Pressure   1.00000 Atm.
 Atom     1 has atomic number  6 and mass  12.00000

 Molecular mass:   265.10626 amu.
 Principal axes and moments of inertia in atomic units:
                           1         2         3
     Eigenvalues --  2963.146547825.953879192.79246
           X            0.99999   0.00015  -0.00472
           Y           -0.00010   0.99993   0.01152
           Z            0.00473  -0.01152   0.99992
 This molecule is an asymmetric top.
 Rotational symmetry number  1.
 Warning -- assumption of classical behavior for rotation
           may cause significant error
 Rotational temperatures (Kelvin)      0.02923     0.01107     0.00942
 Rotational constants (GHZ):           0.60906     0.23061     0.19632
 Zero-point vibrational energy     722982.0 (Joules/Mol)
                                  172.79685 (Kcal/Mol)
 Warning -- explicit consideration of  27 degrees of freedom as
           vibrations may cause significant error
 Vibrational temperatures:     44.93    56.99    76.73    83.85   118.52
          (Kelvin)            161.12   204.52   218.57   247.88   282.87
                              360.38   405.58   425.02   490.38   505.70
                              540.97   565.58   592.38   616.34   653.20
                              683.16   702.49   748.69   783.23   804.57
                              848.38   876.41   904.14   982.83  1023.30
                             1084.84  1118.83  1140.47  1150.10  1183.35
                             1212.75  1236.21  1259.90  1300.50  1333.12
                             1342.84  1368.94  1402.39  1427.33  1449.36
                             1520.76  1561.44  1595.40  1599.22  1615.91
                             1666.41  1679.71  1693.15  1704.76  1716.74
                             1786.84  1823.82  1855.03  1878.24  1897.19
                             1939.26  1941.64  1968.38  1982.30  1986.17
                             2027.73  2031.61  2054.20  2083.56  2087.32
                             2153.07  2174.96  2198.20  2200.61  2213.51
                             2217.19  2319.78  2355.41  2373.48  2405.76
                             2581.97  4201.49  4211.15  4402.65  4413.28
                             4436.20  4444.94  4456.11  4477.66  4507.21
                             4609.56  4647.71  4678.27  5047.52  5148.14
                             5317.26

 Zero-point correction=                           0.275369 (Hartree/Particle)
 Thermal correction to Energy=                    0.292163
 Thermal correction to Enthalpy=                  0.293107
 Thermal correction to Gibbs Free Energy=         0.229591
 Sum of electronic and zero-point Energies=           -931.148726
 Sum of electronic and thermal Energies=              -931.131933
 Sum of electronic and thermal Enthalpies=            -931.130989
 Sum of electronic and thermal Free Energies=         -931.194505

                     E (Thermal)             CV                S
                      KCal/Mol        Cal/Mol-Kelvin    Cal/Mol-Kelvin
 Total                  183.335             64.638            133.681
 Electronic               0.000              0.000              0.000
 Translational            0.889              2.981             42.624
 Rotational               0.889              2.981             33.721
 Vibrational            181.557             58.677             57.335
 Vibration     1          0.594              1.983              5.750
 Vibration     2          0.594              1.981              5.279
 Vibration     3          0.596              1.976              4.690
 Vibration     4          0.596              1.974              4.515
 Vibration     5          0.600              1.961              3.833
 Vibration     6          0.607              1.940              3.234
 Vibration     7          0.616              1.911              2.775
 Vibration     8          0.619              1.901              2.648
 Vibration     9          0.626              1.877              2.410
 Vibration    10          0.636              1.845              2.165
 Vibration    11          0.663              1.762              1.727
 Vibration    12          0.681              1.707              1.522
 Vibration    13          0.690              1.682              1.443
 Vibration    14          0.720              1.594              1.208
 Vibration    15          0.728              1.572              1.160
 Vibration    16          0.747              1.521              1.055
 Vibration    17          0.760              1.485              0.988
 Vibration    18          0.776              1.445              0.921
 Vibration    19          0.790              1.408              0.864
 Vibration    20          0.812              1.352              0.784
 Vibration    21          0.832              1.306              0.724
 Vibration    22          0.844              1.276              0.688
 Vibration    23          0.875              1.205              0.609
 Vibration    24          0.900              1.152              0.556
 Vibration    25          0.915              1.120              0.525
 Vibration    26          0.947              1.054              0.468
 Vibration    27          0.968              1.012              0.434

 Optimization completed.
    -- Stationary point found.
 Normal termination of Gaussian 16 at Sun Dec 13 16:35:24 2020.

 ----------------------------------------------------------------------
 # B3LYP/6-311++G(d,p) empiricaldispersion=gd3bj scf=xqc pop=npa geom=c
 heck
 ----------------------------------------------------------------------

 --------------------------------------
 CID_62344424_JID_9540_Energie_neutraal
 --------------------------------------
 Structure from the checkpoint file:  "JID_9540.chk"
 Charge =  0 Multiplicity = 1

 SCF Done:  E(RB3LYP) =  -931.696432350     A.U. after   21 cycles
 Normal termination of Gaussian 16 at Sun Dec 13 16:45:55 2020.

 ----------------------------------------------------------------------
 # B3LYP/6-311++G(d,p) empiricaldispersion=gd3bj scf=xqc pop=npa geom=c
 heck
 ----------------------------------------------------------------------

 ------------------------------------
 CID_62344424_JID_9540_Energie_kation
 ------------------------------------
 Structure from the checkpoint file:  "JID_9540.chk"
 Charge =  1 Multiplicity = 2

 SCF Done:  E(UB3LYP) =  -931.380240496     A.U. after   33 cycles
 SCF Done:  E(UB3LYP) =  -931.380240501     a.u. after    2 cycles
 Normal termination of Gaussian 16 at Sun Dec 13 17:33:05 2020.
 Gaussian 16:  ES64L-G16RevA.03 25-Dec-2016

 ----------------------------------------------------------------------
 # B3LYP/6-311++G(d,p) empiricaldispersion=gd3bj scf=xqc pop=npa geom=c
 heck
 ----------------------------------------------------------------------

 -----------------------------------
 CID_62344424_JID_9540_Energie_anion
 -----------------------------------
 Structure from the checkpoint file:  "JID_9540.chk"
 Charge = -1 Multiplicity = 2

                         Standard orientation:
 ---------------------------------------------------------------------
 Center     Atomic      Atomic             Coordinates (Angstroms)
 Number     Number       Type             X           Y           Z
 ---------------------------------------------------------------------
      1          6           0       -2.432553   -1.654493   -0.473041
      2          6           0       -3.714061   -1.952001    0.314679
      3          7           0       -3.723071   -1.151732    1.536797
      4          6           0       -3.755188    0.279839    1.240882
      5          6           0       -2.483219    0.677400    0.482935
      6          6           0       -2.356477   -0.161005   -0.788878
      7          8           0       -1.185839    0.183770   -1.583781
      8          6           0        0.050266   -0.015567   -1.060151
      9          6           0        0.744706    0.977804   -0.341573
     10          6           0        2.014489    0.752227    0.174378
     11          6           0        2.648177   -0.472654   -0.033632
     12          6           0        1.986388   -1.459681   -0.776189
     13          6           0        0.707374   -1.234255   -1.272651
     14          6           0        4.026354   -0.639083    0.535110
     15          8           0        4.710828    0.321560    0.858074
     16          7           0        4.482376   -1.932741    0.640990
     17          7           0        0.156743    2.302213   -0.110035
     18          8           0        0.366785    2.819166    0.988032
     19          8           0       -0.492408    2.811403   -1.018957
     20          1           0       -2.410415   -2.235213   -1.402363
     21          1           0       -1.572407   -1.948772    0.138208
     22          1           0       -4.589648   -1.751287   -0.335059
     23          1           0       -3.746772   -3.012604    0.585644
     24          1           0       -4.524821   -1.404132    2.109724
     25          1           0       -3.811447    0.834398    2.182992
     26          1           0       -4.637542    0.568342    0.635420
     27          1           0       -1.620592    0.499069    1.135302
     28          1           0       -2.509736    1.740061    0.226996
     29          1           0       -3.173361    0.101478   -1.468664
     30          1           0        2.521779    1.529241    0.732933
     31          1           0        2.479291   -2.401394   -0.997399
     32          1           0        0.192592   -1.991607   -1.852752
     33          1           0        3.824349   -2.693426    0.732294
     34          1           0        5.353928   -2.036706    1.144309
 ---------------------------------------------------------------------

 SCF Done:  E(UB3LYP) =  -931.733261558     A.U. after   24 cycles

 The electronic state is 2-A.
 Alpha  occ. eigenvalues --  -19.01248 -18.97375 -18.95599 -18.95585 -14.33432
 Alpha  occ. eigenvalues --  -14.22891 -14.21525 -10.15924 -10.12016 -10.11154
 Alpha  occ. eigenvalues --  -10.10265 -10.09817 -10.07203 -10.07076 -10.05481
 Alpha  occ. eigenvalues --  -10.05436 -10.05138 -10.05135 -10.04725  -1.03688
 Alpha  occ. eigenvalues --   -0.93188  -0.92597  -0.86476  -0.82876  -0.80097
 Alpha  occ. eigenvalues --   -0.73796  -0.68860  -0.66313  -0.65170  -0.62960
 Alpha  occ. eigenvalues --   -0.55702  -0.54110  -0.53221  -0.51268  -0.47719
 Alpha  occ. eigenvalues --   -0.46883  -0.44988  -0.43091  -0.42574  -0.39694
 Alpha  occ. eigenvalues --   -0.38420  -0.36760  -0.36381  -0.35927  -0.35332
 Alpha  occ. eigenvalues --   -0.34024  -0.33856  -0.32759  -0.32182  -0.31264
 Alpha  occ. eigenvalues --   -0.30745  -0.30502  -0.29521  -0.28442  -0.27020
 Alpha  occ. eigenvalues --   -0.25786  -0.25515  -0.24818  -0.24150  -0.23132
 Alpha  occ. eigenvalues --   -0.20922  -0.17590  -0.16074  -0.14926  -0.14760
 Alpha  occ. eigenvalues --   -0.14496  -0.14270  -0.12464  -0.12362  -0.10548
 Alpha  occ. eigenvalues --    0.02473
 Alpha virt. eigenvalues --    0.05843   0.06816   0.07709   0.08051   0.08451
 Alpha virt. eigenvalues --    0.09411   0.10603   0.10937   0.11259   0.11961
 Alpha virt. eigenvalues --    0.11989   0.12631   0.12983   0.13772   0.14641

  Beta  occ. eigenvalues --  -19.01240 -18.97296 -18.95179 -18.95161 -14.32874
  Beta  occ. eigenvalues --  -14.22889 -14.21524 -10.15878 -10.11974 -10.11153
  Beta  occ. eigenvalues --  -10.10262 -10.09517 -10.07131 -10.07075 -10.05481
  Beta  occ. eigenvalues --  -10.05423 -10.05229 -10.05128 -10.04415  -1.02761
  Beta  occ. eigenvalues --   -0.93061  -0.92470  -0.85683  -0.82873  -0.80057
  Beta  occ. eigenvalues --   -0.73517  -0.68795  -0.66303  -0.64621  -0.62767
  Beta  occ. eigenvalues --   -0.55408  -0.53673  -0.53071  -0.51023  -0.47621
  Beta  occ. eigenvalues --   -0.46707  -0.44852  -0.43043  -0.42300  -0.39523
  Beta  occ. eigenvalues --   -0.37982  -0.36615  -0.35853  -0.35700  -0.34706
  Beta  occ. eigenvalues --   -0.33801  -0.32703  -0.32351  -0.32067  -0.31147
  Beta  occ. eigenvalues --   -0.30326  -0.30177  -0.29450  -0.28152  -0.26837
  Beta  occ. eigenvalues --   -0.25731  -0.25400  -0.24719  -0.23752  -0.23054
  Beta  occ. eigenvalues --   -0.20621  -0.17373  -0.15926  -0.14780  -0.14744
  Beta  occ. eigenvalues --   -0.13779  -0.12043  -0.11808  -0.11283  -0.09817
  Beta virt. eigenvalues --    0.05786   0.06741   0.07874   0.08092   0.08450
  Beta virt. eigenvalues --    0.09312   0.09595   0.10590   0.10922   0.11444
  Beta virt. eigenvalues --    0.11919   0.12587   0.12911   0.13303   0.13897

 Mulliken charges and spin densities:
               1          2
     1  C   -0.266679   0.033384
     2  C   -0.540388  -0.029158
     3  N   -0.145429   0.004625
     4  C   -0.609671  -0.033630
     5  C   -0.200177  -0.027420
     6  C   -0.038379   0.005033
     7  O   -0.045718  -0.002642
     8  C   -0.402784   0.201045
     9  C    0.177497   0.030066
    10  C   -0.317989   0.001175
    11  C    0.933127  -0.016085
    12  C   -0.639484   0.265412
    13  C   -0.125055  -0.082716
    14  C   -0.198012   0.034578
    15  O   -0.362756   0.027296
    16  N   -0.348118  -0.006450
    17  N   -0.270124   0.187941
    18  O   -0.129545   0.156493
    19  O   -0.085339   0.157514
    20  H    0.126230   0.011147
    21  H    0.208609  -0.007513
    22  H    0.098073   0.004635
    23  H    0.144227   0.004031
    24  H    0.230320   0.003489
    25  H    0.151517   0.013413
    26  H    0.099910   0.005872
    27  H    0.195827   0.020269
    28  H    0.209794   0.018015
    29  H    0.170270   0.010077
    30  H    0.239375   0.003811
    31  H    0.109353  -0.021881
    32  H    0.142163   0.007942
    33  H    0.202056   0.017366
    34  H    0.287299   0.002868
 Sum of Mulliken charges =  -1.00000   1.00000

 Dipole moment (field-independent basis, Debye):
    X=             -5.7969    Y=             -9.9817    Z=              0.9285  Tot=             11.5802
 Quadrupole moment (field-independent basis, Debye-Ang):
   XX=           -141.3162   YY=           -140.8320   ZZ=           -127.9830
   XY=             -7.0288   XZ=             -4.1199   YZ=             -1.5846

 Summary of Natural Population Analysis:

                                       Natural Population
                Natural  -----------------------------------------------
    Atom  No    Charge         Core      Valence    Rydberg      Total
 -----------------------------------------------------------------------
      C    1   -0.21089      0.99961     2.20325    0.00803     3.21089
      C    2   -0.08484      0.99963     2.07614    0.00907     3.08484
      N    3   -0.33758      0.99973     2.82774    0.01011     3.83758
      C    4   -0.08550      0.99963     2.07591    0.00995     3.08550
      C    5   -0.21752      0.99960     2.20861    0.00931     3.21752
      C    6    0.07879      0.99949     1.90789    0.01383     2.92121
      O    7   -0.28589      0.99985     3.27564    0.01039     4.28589
      C    8    0.21142      0.99933     1.77574    0.01351     2.78858
      C    9    0.03611      0.99936     1.95097    0.01357     2.96389
      C   10   -0.06816      0.99950     2.06014    0.00853     3.06816
      C   11   -0.08575      0.99946     2.07732    0.00898     3.08575
      C   12   -0.03624      0.99955     2.02843    0.00826     3.03624
      C   13   -0.14500      0.99954     2.13668    0.00879     3.14500
      C   14    0.33859      0.99966     1.63982    0.02193     2.66141
      O   15   -0.31581      0.99988     3.30957    0.00636     4.31581
      N   16   -0.41196      0.99971     2.90506    0.00719     3.91196
      N   17    0.29799      0.99971     2.17527    0.02704     3.20201
      O   18   -0.19687      0.99990     3.18889    0.00807     4.19687
      O   19   -0.18546      0.99990     3.17720    0.00836     4.18546
      H   20    0.09894      0.00000     0.39982    0.00123     0.40106
      H   21    0.10804      0.00000     0.39071    0.00124     0.39196
      H   22    0.07236      0.00000     0.42597    0.00167     0.42764
      H   23    0.09159      0.00000     0.40724    0.00117     0.40841
      H   24    0.16881      0.00000     0.32866    0.00253     0.33119
      H   25    0.09523      0.00000     0.40282    0.00195     0.40477
      H   26    0.07276      0.00000     0.42543    0.00181     0.42724
      H   27    0.10879      0.00000     0.38894    0.00227     0.39121
      H   28    0.11719      0.00000     0.38052    0.00229     0.38281
      H   29    0.08523      0.00000     0.41295    0.00182     0.41477
      H   30    0.12255      0.00000     0.37621    0.00124     0.37745
      H   31    0.08890      0.00000     0.40951    0.00159     0.41110
      H   32    0.09773      0.00000     0.40065    0.00163     0.40227
      H   33    0.19027      0.00000     0.30822    0.00151     0.30973
      H   34    0.18617      0.00000     0.31019    0.00364     0.31383
 =======================================================================
   * Total *    0.00000     18.99303    50.76811    0.23886    70.00000

 Normal termination of Gaussian 16 at Sun Dec 13 17:49:45 2020.
