 Gaussian 16, Revision A.03,

 -----------------------------------------------------------
 # opt freq B3LYP/6-31G(d) empiricaldispersion=gd3bj scf=xqc
 -----------------------------------------------------------

 -------------------------------
 CID_129949307_JID_6871_neutraal
 -------------------------------
 Symbolic Z-matrix:
 Charge =  0 Multiplicity = 1

 SCF Done:  E(RB3LYP) =  -708.394955522     A.U. after   17 cycles
 SCF Done:  E(RB3LYP) =  -708.401722554     A.U. after   14 cycles
 SCF Done:  E(RB3LYP) =  -708.402860758     A.U. after   13 cycles
 SCF Done:  E(RB3LYP) =  -708.403060787     A.U. after   12 cycles
 SCF Done:  E(RB3LYP) =  -708.403174248     A.U. after   12 cycles
 SCF Done:  E(RB3LYP) =  -708.403309299     A.U. after   12 cycles
 SCF Done:  E(RB3LYP) =  -708.403351498     A.U. after   11 cycles
 SCF Done:  E(RB3LYP) =  -708.403357535     A.U. after   10 cycles
 SCF Done:  E(RB3LYP) =  -708.403358745     A.U. after    9 cycles
 SCF Done:  E(RB3LYP) =  -708.403359088     A.U. after    9 cycles
 SCF Done:  E(RB3LYP) =  -708.403359207     A.U. after    8 cycles
 SCF Done:  E(RB3LYP) =  -708.403359270     A.U. after    8 cycles
 Optimization completed.
    -- Stationary point found.
 Normal termination of Gaussian 16 at Fri Dec 11 00:55:57 2020.

 --------------------------------------------------------------------
 #N Geom=AllCheck Guess=TCheck SCRF=Check GenChk RB3LYP/6-31G(d) Freq
 --------------------------------------------------------------------

 Structure from the checkpoint file:  "JID_6871.chk"
 -------------------------------
 CID_129949307_JID_6871_neutraal
 -------------------------------
 Charge =  0 Multiplicity = 1

 SCF Done:  E(RB3LYP) =  -708.403359270     A.U. after    1 cycles

  Exact polarizability: 237.022  24.259 144.490   6.846   2.410  84.713
 Approx polarizability: 465.909  83.831 208.481  36.864  10.097 136.627

                      1                      2                      3
                      A                      A                      A
 Frequencies --     39.6666                58.0373                83.9640
 Red. masses --      5.4025                 4.3775                 4.3441
 Frc consts  --      0.0050                 0.0087                 0.0180
 IR Inten    --      4.5854                 0.3298                 2.3607

                      4                      5                      6
                      A                      A                      A
 Frequencies --    104.8781               144.3692               153.9385
 Red. masses --      3.1053                 2.4768                 3.0986
 Frc consts  --      0.0201                 0.0304                 0.0433
 IR Inten    --      0.3010                 0.6006                 1.2706

                      7                      8                      9
                      A                      A                      A
 Frequencies --    167.3436               187.0530               230.5772
 Red. masses --      3.1762                 1.3551                 4.1798
 Frc consts  --      0.0524                 0.0279                 0.1309
 IR Inten    --      1.0906                 1.1648                 1.6184

                     10                     11                     12
                      A                      A                      A
 Frequencies --    254.7504               283.7020               307.3173
 Red. masses --      3.7904                 3.0296                 3.0093
 Frc consts  --      0.1449                 0.1437                 0.1675
 IR Inten    --      2.8138                 2.1893                 2.9977

                     13                     14                     15
                      A                      A                      A
 Frequencies --    371.3506               375.3592               404.6524
 Red. masses --      1.4844                 4.8990                 2.8392
 Frc consts  --      0.1206                 0.4067                 0.2739
 IR Inten    --    116.7247                 6.2934                14.6322

                     16                     17                     18
                      A                      A                      A
 Frequencies --    408.8658               430.7804               468.2900
 Red. masses --      3.7166                 3.4131                 2.9654
 Frc consts  --      0.3661                 0.3732                 0.3831
 IR Inten    --      0.1572                 8.4502                 5.6306

                     19                     20                     21
                      A                      A                      A
 Frequencies --    477.0915               519.0700               533.3561
 Red. masses --      4.1778                 3.1596                 4.6215
 Frc consts  --      0.5603                 0.5016                 0.7746
 IR Inten    --      4.0825                 0.2889                 1.0074

                     22                     23                     24
                      A                      A                      A
 Frequencies --    569.5845               599.6757               647.7938
 Red. masses --      3.7124                 3.0505                 2.8277
 Frc consts  --      0.7096                 0.6463                 0.6991
 IR Inten    --      9.1438                 9.6281                20.0169

                     25                     26                     27
                      A                      A                      A
 Frequencies --    682.7687               701.2039               737.4442
 Red. masses --      3.8246                 5.2417                 2.9643
 Frc consts  --      1.0505                 1.5185                 0.9498
 IR Inten    --     10.0094                 3.5862                 8.8209

                     28                     29                     30
                      A                      A                      A
 Frequencies --    779.5257               809.8082               851.0395
 Red. masses --      4.0762                 5.5868                 2.0920
 Frc consts  --      1.4594                 2.1586                 0.8927
 IR Inten    --      6.0274                 3.6502                43.1131

                     31                     32                     33
                      A                      A                      A
 Frequencies --    869.1151               906.0486               915.0758
 Red. masses --      2.0331                 1.6061                 3.9594
 Frc consts  --      0.9048                 0.7768                 1.9534
 IR Inten    --      3.2430                16.4978                 5.1012

                     34                     35                     36
                      A                      A                      A
 Frequencies --    938.9561               947.2533               977.4503
 Red. masses --      2.3394                 1.3561                 2.0606
 Frc consts  --      1.2152                 0.7169                 1.1600
 IR Inten    --      4.2217                43.1372                22.0392

                     37                     38                     39
                      A                      A                      A
 Frequencies --   1005.2092              1009.3538              1033.9259
 Red. masses --      1.2866                 3.0047                 1.1282
 Frc consts  --      0.7660                 1.8036                 0.7106
 IR Inten    --      0.6968                43.8931                 9.8044

                     40                     41                     42
                      A                      A                      A
 Frequencies --   1061.6724              1076.2230              1082.2525
 Red. masses --      4.1659                 1.9550                 1.5184
 Frc consts  --      2.7666                 1.3341                 1.0478
 IR Inten    --     50.4455                 5.8768                 2.3058

                     43                     44                     45
                      A                      A                      A
 Frequencies --   1096.0788              1129.9259              1159.6619
 Red. masses --      2.9601                 1.5156                 1.8969
 Frc consts  --      2.0953                 1.1401                 1.5030
 IR Inten    --      8.4833                 8.4355                14.5051

                     46                     47                     48
                      A                      A                      A
 Frequencies --   1194.5895              1236.4997              1252.5553
 Red. masses --      1.8353                 1.7759                 1.6224
 Frc consts  --      1.5431                 1.5998                 1.4997
 IR Inten    --     35.5848                16.3263                41.9805

                     49                     50                     51
                      A                      A                      A
 Frequencies --   1263.3546              1277.9639              1319.6241
 Red. masses --      1.3199                 2.0436                 2.1700
 Frc consts  --      1.2412                 1.9665                 2.2264
 IR Inten    --      3.2733                19.7408                39.6024

                     52                     53                     54
                      A                      A                      A
 Frequencies --   1336.0249              1346.1271              1374.8132
 Red. masses --      1.4547                 1.2655                 2.0055
 Frc consts  --      1.5299                 1.3511                 2.2333
 IR Inten    --      8.3429                 3.7768                 3.1017

                     55                     56                     57
                      A                      A                      A
 Frequencies --   1419.2380              1421.2944              1444.6690
 Red. masses --      2.1259                 1.2042                 1.3228
 Frc consts  --      2.5229                 1.4332                 1.6266
 IR Inten    --      5.6623                90.7503                14.8165

                     58                     59                     60
                      A                      A                      A
 Frequencies --   1454.0033              1470.0438              1497.8241
 Red. masses --      3.2700                 1.1916                 1.0444
 Frc consts  --      4.0731                 1.5172                 1.3806
 IR Inten    --     35.6964                 0.5958                 6.4835

                     61                     62                     63
                      A                      A                      A
 Frequencies --   1511.6266              1517.4436              1602.8389
 Red. masses --      1.0725                 1.1075                11.1700
 Frc consts  --      1.4438                 1.5025                16.9077
 IR Inten    --      7.0168                 6.6622               194.5229

                     64                     65                     66
                      A                      A                      A
 Frequencies --   1641.1783              1692.2484              1724.0423
 Red. masses --      8.8369                 7.1880                 4.4776
 Frc consts  --     14.0236                12.1280                 7.8414
 IR Inten    --     53.5204               108.8885                11.3907

                     67                     68                     69
                      A                      A                      A
 Frequencies --   1730.9549              1763.4934              2979.2409
 Red. masses --      7.3653                11.4149                 1.0796
 Frc consts  --     13.0020                20.9156                 5.6459
 IR Inten    --     63.2771               218.1265                10.8823

                     70                     71                     72
                      A                      A                      A
 Frequencies --   3063.4698              3063.8994              3125.9237
 Red. masses --      1.0646                 1.0351                 1.0999
 Frc consts  --      5.8867                 5.7253                 6.3320
 IR Inten    --     17.0187                13.6869                 7.7674

                     73                     74                     75
                      A                      A                      A
 Frequencies --   3126.4694              3142.5833              3158.7028
 Red. masses --      1.0972                 1.1047                 1.0699
 Frc consts  --      6.3191                 6.4281                 6.2895
 IR Inten    --      4.5925                15.3661                 9.7098

                     76                     77                     78
                      A                      A                      A
 Frequencies --   3168.8105              3190.4248              3201.6614
 Red. masses --      1.0803                 1.0908                 1.0870
 Frc consts  --      6.3910                 6.5416                 6.5646
 IR Inten    --      5.7608                12.1846                 6.8566

                     79                     80                     81
                      A                      A                      A
 Frequencies --   3226.2787              3246.7857              3723.2576
 Red. masses --      1.0969                 1.1168                 1.0662
 Frc consts  --      6.7269                 6.9363                 8.7087
 IR Inten    --     10.5316                10.9640                21.2066

 - Thermochemistry -
 -------------------
 Temperature   298.150 Kelvin.  Pressure   1.00000 Atm.
 Atom     1 has atomic number  6 and mass  12.00000

 Molecular mass:   215.09463 amu.
 Principal axes and moments of inertia in atomic units:
                           1         2         3
     Eigenvalues --  2218.196724344.858846131.89361
           X            0.99918  -0.04030  -0.00269
           Y            0.04028   0.99917  -0.00557
           Z            0.00291   0.00546   0.99998
 This molecule is an asymmetric top.
 Rotational symmetry number  1.
 Warning -- assumption of classical behavior for rotation
           may cause significant error
 Rotational temperatures (Kelvin)      0.03905     0.01993     0.01413
 Rotational constants (GHZ):           0.81361     0.41537     0.29432
 Zero-point vibrational energy     613094.6 (Joules/Mol)
                                  146.53314 (Kcal/Mol)
 Warning -- explicit consideration of  23 degrees of freedom as
           vibrations may cause significant error
 Vibrational temperatures:     57.07    83.50   120.81   150.90   207.72
          (Kelvin)            221.48   240.77   269.13   331.75   366.53
                              408.18   442.16   534.29   540.06   582.20
                              588.27   619.80   673.76   686.43   746.83
                              767.38   819.50   862.80   932.03   982.35
                             1008.88  1061.02  1121.56  1165.13  1224.46
                             1250.46  1303.60  1316.59  1350.95  1362.89
                             1406.33  1446.27  1452.23  1487.59  1527.51
                             1548.44  1557.12  1577.01  1625.71  1668.49
                             1718.75  1779.05  1802.15  1817.69  1838.70
                             1898.64  1922.24  1936.78  1978.05  2041.97
                             2044.93  2078.56  2091.99  2115.07  2155.03
                             2174.89  2183.26  2306.13  2361.29  2434.77
                             2480.51  2490.46  2537.27  4286.46  4407.65
                             4408.27  4497.51  4498.29  4521.48  4544.67
                             4559.21  4590.31  4606.48  4641.90  4671.40
                             5356.94

 Zero-point correction=                           0.233515 (Hartree/Particle)
 Thermal correction to Energy=                    0.248051
 Thermal correction to Enthalpy=                  0.248995
 Thermal correction to Gibbs Free Energy=         0.191933
 Sum of electronic and zero-point Energies=           -708.169844
 Sum of electronic and thermal Energies=              -708.155308
 Sum of electronic and thermal Enthalpies=            -708.154364
 Sum of electronic and thermal Free Energies=         -708.211427

                     E (Thermal)             CV                S
                      KCal/Mol        Cal/Mol-Kelvin    Cal/Mol-Kelvin
 Total                  155.654             55.935            120.098
 Electronic               0.000              0.000              0.000
 Translational            0.889              2.981             42.001
 Rotational               0.889              2.981             32.447
 Vibrational            153.877             49.974             45.650
 Vibration     1          0.594              1.981              5.276
 Vibration     2          0.596              1.974              4.523
 Vibration     3          0.601              1.960              3.796
 Vibration     4          0.605              1.945              3.362
 Vibration     5          0.616              1.909              2.745
 Vibration     6          0.619              1.898              2.623
 Vibration     7          0.624              1.883              2.465
 Vibration     8          0.632              1.858              2.257
 Vibration     9          0.652              1.794              1.874
 Vibration    10          0.665              1.755              1.697
 Vibration    11          0.682              1.704              1.511
 Vibration    12          0.697              1.660              1.377
 Vibration    13          0.743              1.531              1.074
 Vibration    14          0.746              1.523              1.058
 Vibration    15          0.770              1.460              0.946
 Vibration    16          0.773              1.451              0.931
 Vibration    17          0.792              1.403              0.856
 Vibration    18          0.825              1.320              0.742
 Vibration    19          0.834              1.301              0.718
 Vibration    20          0.874              1.208              0.612
 Vibration    21          0.888              1.176              0.580
 Vibration    22          0.926              1.097              0.505
 Vibration    23          0.958              1.032              0.450

 Optimization completed.
    -- Stationary point found.
 Normal termination of Gaussian 16 at Fri Dec 11 01:06:26 2020.

 ----------------------------------------------------------------------
 # B3LYP/6-311++G(d,p) empiricaldispersion=gd3bj scf=xqc pop=npa geom=c
 heck
 ----------------------------------------------------------------------

 ---------------------------------------
 CID_129949307_JID_6871_Energie_neutraal
 ---------------------------------------
 Structure from the checkpoint file:  "JID_6871.chk"
 Charge =  0 Multiplicity = 1

 SCF Done:  E(RB3LYP) =  -708.603131407     A.U. after   17 cycles
 Normal termination of Gaussian 16 at Fri Dec 11 01:11:45 2020.

 ----------------------------------------------------------------------
 # B3LYP/6-311++G(d,p) empiricaldispersion=gd3bj scf=xqc pop=npa geom=c
 heck
 ----------------------------------------------------------------------

 -------------------------------------
 CID_129949307_JID_6871_Energie_kation
 -------------------------------------
 Structure from the checkpoint file:  "JID_6871.chk"
 Charge =  1 Multiplicity = 2

 SCF Done:  E(UB3LYP) =  -708.286054976     A.U. after   33 cycles
 SCF Done:  E(UB3LYP) =  -708.286140702     a.u. after    5 cycles
 Normal termination of Gaussian 16 at Fri Dec 11 02:29:56 2020.
 Gaussian 16:  ES64L-G16RevA.03 25-Dec-2016

 ----------------------------------------------------------------------
 # B3LYP/6-311++G(d,p) empiricaldispersion=gd3bj scf=xqc pop=npa geom=c
 heck
 ----------------------------------------------------------------------

 ------------------------------------
 CID_129949307_JID_6871_Energie_anion
 ------------------------------------
 Structure from the checkpoint file:  "JID_6871.chk"
 Charge = -1 Multiplicity = 2

                         Standard orientation:
 ---------------------------------------------------------------------
 Center     Atomic      Atomic             Coordinates (Angstroms)
 Number     Number       Type             X           Y           Z
 ---------------------------------------------------------------------
      1          6           0       -1.830134    2.924219   -0.496447
      2          6           0       -0.786885    1.929819   -0.073092
      3          6           0        0.485401    2.271088    0.187383
      4          6           0        1.533708    1.306174    0.644819
      5          6           0        1.119613   -0.143663    0.601232
      6          6           0       -0.173184   -0.499611    0.364866
      7          6           0       -1.197773    0.517383    0.046426
      8          7           0       -2.448670    0.248281   -0.178366
      9          6           0       -2.908404   -1.086577   -0.121097
     10          8           0       -4.094284   -1.332572   -0.290048
     11          6           0       -1.930649   -2.160281    0.140936
     12          6           0       -0.636077   -1.876417    0.373929
     13          6           0        2.242183   -1.138449    0.796699
     14          6           0        2.714347   -1.646676   -0.550075
     15          6           0        3.890830   -1.346354   -1.100699
     16          8           0        2.785991    1.530749   -0.010975
     17          1           0       -2.251614    2.654221   -1.470080
     18          1           0       -1.406623    3.931005   -0.553317
     19          1           0       -2.669455    2.924647    0.206192
     20          1           0        0.815866    3.303349    0.101444
     21          1           0        1.758915    1.531419    1.701792
     22          1           0       -2.316334   -3.174241    0.153188
     23          1           0        0.072748   -2.671459    0.582447
     24          1           0        3.073383   -0.651776    1.312603
     25          1           0        1.910520   -1.979062    1.416917
     26          1           0        2.006104   -2.273562   -1.091175
     27          1           0        4.178785   -1.736175   -2.073096
     28          1           0        4.608260   -0.706699   -0.592715
     29          1           0        2.688622    1.221002   -0.926748
 ---------------------------------------------------------------------

 SCF Done:  E(UB3LYP) =  -708.661064266     A.U. after   23 cycles

 The electronic state is 2-A.
 Alpha  occ. eigenvalues --  -19.00716 -18.92237 -14.14295 -10.10684 -10.09735
 Alpha  occ. eigenvalues --  -10.07972 -10.06941 -10.06596 -10.06450 -10.05611
 Alpha  occ. eigenvalues --  -10.04719 -10.04545 -10.04448 -10.04377 -10.04317
 Alpha  occ. eigenvalues --  -10.03269  -0.91097  -0.87181  -0.77814  -0.71446
 Alpha  occ. eigenvalues --   -0.69010  -0.67195  -0.63373  -0.59937  -0.58460
 Alpha  occ. eigenvalues --   -0.54067  -0.49550  -0.48781  -0.46215  -0.43696
 Alpha  occ. eigenvalues --   -0.40469  -0.39193  -0.37221  -0.36015  -0.34193
 Alpha  occ. eigenvalues --   -0.34149  -0.32298  -0.31189  -0.29896  -0.29859
 Alpha  occ. eigenvalues --   -0.28896  -0.27602  -0.26965  -0.26638  -0.26168
 Alpha  occ. eigenvalues --   -0.25220  -0.24712  -0.22774  -0.21120  -0.20614
 Alpha  occ. eigenvalues --   -0.18529  -0.16990  -0.15761  -0.12331  -0.11698
 Alpha  occ. eigenvalues --   -0.10766  -0.08959  -0.00040
 Alpha virt. eigenvalues --    0.07806   0.08417   0.08901   0.09364   0.09452
 Alpha virt. eigenvalues --    0.09857   0.11086   0.11445   0.11794   0.12330
 Alpha virt. eigenvalues --    0.12541   0.13463   0.14270   0.14840   0.15224

  Beta  occ. eigenvalues --  -19.00620 -18.91769 -14.14200 -10.10739 -10.09657
  Beta  occ. eigenvalues --  -10.07940 -10.06691 -10.06634 -10.06414 -10.05660
  Beta  occ. eigenvalues --  -10.04609 -10.04543 -10.04534 -10.04226 -10.03731
  Beta  occ. eigenvalues --  -10.03246  -0.90859  -0.86439  -0.77391  -0.71006
  Beta  occ. eigenvalues --   -0.68842  -0.67027  -0.63066  -0.59769  -0.58208
  Beta  occ. eigenvalues --   -0.53849  -0.49223  -0.48308  -0.46088  -0.43355
  Beta  occ. eigenvalues --   -0.40292  -0.39040  -0.36997  -0.35885  -0.34021
  Beta  occ. eigenvalues --   -0.33654  -0.32168  -0.31062  -0.29694  -0.29610
  Beta  occ. eigenvalues --   -0.28795  -0.27410  -0.26554  -0.26131  -0.25840
  Beta  occ. eigenvalues --   -0.24928  -0.24518  -0.22596  -0.20686  -0.19322
  Beta  occ. eigenvalues --   -0.18184  -0.16435  -0.15510  -0.11584  -0.11321
  Beta  occ. eigenvalues --   -0.08677  -0.08564
  Beta virt. eigenvalues --    0.05772   0.07900   0.08754   0.08903   0.09412
  Beta virt. eigenvalues --    0.09779   0.10479   0.11082   0.11454   0.11802
  Beta virt. eigenvalues --    0.12416   0.12619   0.13509   0.14299   0.14848

 Mulliken charges and spin densities:
               1          2
     1  C   -0.570848   0.013361
     2  C    0.690848  -0.055034
     3  C   -0.589263   0.143420
     4  C   -1.014861  -0.188868
     5  C    0.583102   0.478826
     6  C    0.605661  -0.043518
     7  C   -0.638537   0.133128
     8  N   -0.050314   0.052733
     9  C   -0.060973   0.061031
    10  O   -0.404488   0.165514
    11  C   -0.297306   0.030918
    12  C   -0.380458   0.068870
    13  C    0.038826  -0.017004
    14  C   -0.009259   0.034232
    15  C   -0.591649  -0.033746
    16  O   -0.136487   0.003023
    17  H    0.169166  -0.000701
    18  H    0.106947  -0.000556
    19  H    0.170516  -0.001346
    20  H    0.125961  -0.002349
    21  H    0.117512   0.066123
    22  H    0.149648  -0.001396
    23  H    0.104270  -0.006653
    24  H    0.172152   0.032794
    25  H    0.124550   0.030839
    26  H    0.157347   0.000226
    27  H    0.103874  -0.003956
    28  H    0.110548   0.008700
    29  H    0.213515   0.031392
 Sum of Mulliken charges =  -1.00000   1.00000

 Dipole moment (field-independent basis, Debye):
    X=              7.4130    Y=              0.7368    Z=              0.2779  Tot=              7.4547
 Quadrupole moment (field-independent basis, Debye-Ang):
   XX=           -161.8456   YY=           -110.3368   ZZ=            -99.8557
   XY=            -11.8632   XZ=             -4.8472   YZ=             -1.1163

 Summary of Natural Population Analysis:

                                       Natural Population
                Natural  -----------------------------------------------
    Atom  No    Charge         Core      Valence    Rydberg      Total
 -----------------------------------------------------------------------
      C    1   -0.29206      0.99964     2.28718    0.00525     3.29206
      C    2   -0.02697      0.99947     2.01901    0.00850     3.02697
      C    3   -0.06214      0.99948     2.05402    0.00864     3.06214
      C    4    0.03264      0.99948     1.95527    0.01261     2.96736
      C    5    0.14925      0.99946     1.83932    0.01198     2.85075
      C    6   -0.09475      0.99941     2.08548    0.00986     3.09475
      C    7    0.17159      0.99950     1.81531    0.01360     2.82841
      N    8   -0.25732      0.99965     2.74506    0.01261     3.75732
      C    9    0.30758      0.99964     1.67019    0.02260     2.69242
      O   10   -0.25514      0.99988     3.24811    0.00716     4.25514
      C   11   -0.13336      0.99951     2.12412    0.00973     3.13336
      C   12   -0.06734      0.99954     2.05935    0.00845     3.06734
      C   13   -0.23042      0.99959     2.22111    0.00973     3.23042
      C   14   -0.06500      0.99956     2.05649    0.00895     3.06500
      C   15   -0.20430      0.99957     2.19754    0.00720     3.20430
      O   16   -0.36572      0.99990     3.35911    0.00672     4.36572
      H   17    0.10753      0.00000     0.39144    0.00103     0.39247
      H   18    0.08997      0.00000     0.40906    0.00097     0.41003
      H   19    0.10861      0.00000     0.39035    0.00104     0.39139
      H   20    0.08887      0.00000     0.40940    0.00173     0.41113
      H   21    0.10169      0.00000     0.39657    0.00174     0.39831
      H   22    0.09566      0.00000     0.40301    0.00133     0.40434
      H   23    0.08877      0.00000     0.40957    0.00166     0.41123
      H   24    0.10619      0.00000     0.39196    0.00185     0.39381
      H   25    0.10570      0.00000     0.39241    0.00189     0.39430
      H   26    0.09311      0.00000     0.40585    0.00104     0.40689
      H   27    0.08850      0.00000     0.41036    0.00114     0.41150
      H   28    0.09190      0.00000     0.40651    0.00158     0.40810
      H   29    0.22697      0.00000     0.26943    0.00360     0.27303
 =======================================================================
   * Total *    0.00000     15.99326    40.82257    0.18417    57.00000

 Normal termination of Gaussian 16 at Fri Dec 11 02:40:14 2020.
