 Gaussian 16, Revision A.03,

 -----------------------------------------------------------
 # opt freq B3LYP/6-31G(d) empiricaldispersion=gd3bj scf=xqc
 -----------------------------------------------------------

 -------------------------------
 CID_150392102_JID_4930_neutraal
 -------------------------------
 Symbolic Z-matrix:
 Charge =  0 Multiplicity = 1

 SCF Done:  E(RB3LYP) =  -638.218967942     A.U. after   13 cycles
 SCF Done:  E(RB3LYP) =  -638.221569740     A.U. after   11 cycles
 SCF Done:  E(RB3LYP) =  -638.220613754     A.U. after   12 cycles
 SCF Done:  E(RB3LYP) =  -638.222065979     A.U. after   11 cycles
 SCF Done:  E(RB3LYP) =  -638.222443797     A.U. after   11 cycles
 SCF Done:  E(RB3LYP) =  -638.222460788     A.U. after   10 cycles
 SCF Done:  E(RB3LYP) =  -638.222533082     A.U. after    9 cycles
 SCF Done:  E(RB3LYP) =  -638.222541163     A.U. after    9 cycles
 SCF Done:  E(RB3LYP) =  -638.222541687     A.U. after    7 cycles
 SCF Done:  E(RB3LYP) =  -638.222541742     A.U. after    6 cycles
 Optimization completed.
    -- Stationary point found.
 Normal termination of Gaussian 16 at Thu Dec 10 10:54:29 2020.

 --------------------------------------------------------------------
 #N Geom=AllCheck Guess=TCheck SCRF=Check GenChk RB3LYP/6-31G(d) Freq
 --------------------------------------------------------------------

 Structure from the checkpoint file:  "JID_4930.chk"
 -------------------------------
 CID_150392102_JID_4930_neutraal
 -------------------------------
 Charge =  0 Multiplicity = 1

 SCF Done:  E(RB3LYP) =  -638.222541742     A.U. after    1 cycles

  Exact polarizability: 149.930  -3.502 122.192  -1.340   0.467 115.301
 Approx polarizability: 183.641  -2.332 178.099  -2.291   0.836 167.186

                      1                      2                      3
                      A                      A                      A
 Frequencies --     35.8603                41.1898                48.9693
 Red. masses --      4.0307                 2.9295                 3.3174
 Frc consts  --      0.0031                 0.0029                 0.0047
 IR Inten    --      0.1157                 0.2858                 0.0787

                      4                      5                      6
                      A                      A                      A
 Frequencies --     69.1094                93.5073               113.8398
 Red. masses --      3.6539                 2.9201                 3.3930
 Frc consts  --      0.0103                 0.0150                 0.0259
 IR Inten    --      0.0449                 0.1426                 0.5018

                      7                      8                      9
                      A                      A                      A
 Frequencies --    177.7231               192.0760               233.0769
 Red. masses --      3.5033                 1.7438                 2.0535
 Frc consts  --      0.0652                 0.0379                 0.0657
 IR Inten    --      1.9097                 0.2570                 5.8016

                     10                     11                     12
                      A                      A                      A
 Frequencies --    242.5173               265.3817               283.9394
 Red. masses --      2.1015                 1.0518                 1.9550
 Frc consts  --      0.0728                 0.0436                 0.0929
 IR Inten    --      8.4131                83.4262                 1.1327

                     13                     14                     15
                      A                      A                      A
 Frequencies --    312.0403               328.9801               363.2569
 Red. masses --      2.0444                 2.3794                 2.5984
 Frc consts  --      0.1173                 0.1517                 0.2020
 IR Inten    --      1.2684                 0.4711                 2.8075

                     16                     17                     18
                      A                      A                      A
 Frequencies --    394.2065               399.8376               429.1693
 Red. masses --      2.4305                 2.0208                 2.6293
 Frc consts  --      0.2225                 0.1903                 0.2853
 IR Inten    --      5.2946                 2.5270                 0.4381

                     19                     20                     21
                      A                      A                      A
 Frequencies --    447.6142               491.9515               507.1910
 Red. masses --      2.1663                 2.5693                 3.3153
 Frc consts  --      0.2557                 0.3664                 0.5025
 IR Inten    --      3.5781                 2.1706                 7.9510

                     22                     23                     24
                      A                      A                      A
 Frequencies --    514.1812               565.1185               690.5516
 Red. masses --      2.7327                 2.2499                 2.3618
 Frc consts  --      0.4257                 0.4233                 0.6636
 IR Inten    --      8.2522                 1.8828                 6.8330

                     25                     26                     27
                      A                      A                      A
 Frequencies --    719.2439               767.7319               803.0672
 Red. masses --      1.3189                 1.8156                 2.1336
 Frc consts  --      0.4020                 0.6305                 0.8107
 IR Inten    --      8.3188                 0.8907                10.8476

                     28                     29                     30
                      A                      A                      A
 Frequencies --    810.1427               814.0461               828.4519
 Red. masses --      1.5694                 2.7792                 2.4644
 Frc consts  --      0.6069                 1.0851                 0.9965
 IR Inten    --      0.2058                 0.7716                22.7060

                     31                     32                     33
                      A                      A                      A
 Frequencies --    868.2017               896.6480               921.0123
 Red. masses --      2.1199                 1.6572                 2.2017
 Frc consts  --      0.9415                 0.7850                 1.1004
 IR Inten    --      3.1715                14.3898                 5.6842

                     34                     35                     36
                      A                      A                      A
 Frequencies --    941.4356               971.4522               985.2331
 Red. masses --      2.0681                 2.0439                 2.2765
 Frc consts  --      1.0799                 1.1365                 1.3019
 IR Inten    --      9.9252                 2.6884                 3.7903

                     37                     38                     39
                      A                      A                      A
 Frequencies --    994.9243              1024.7677              1041.8763
 Red. masses --      2.5454                 1.4170                 2.0173
 Frc consts  --      1.4845                 0.8767                 1.2902
 IR Inten    --     14.5162                 0.6561                 0.2927

                     40                     41                     42
                      A                      A                      A
 Frequencies --   1045.7628              1048.5750              1068.2046
 Red. masses --      1.6559                 1.5490                 2.4109
 Frc consts  --      1.0670                 1.0034                 1.6208
 IR Inten    --     17.5734                 9.1609                17.7903

                     43                     44                     45
                      A                      A                      A
 Frequencies --   1079.5396              1113.4670              1115.8479
 Red. masses --      2.5474                 2.3805                 1.4330
 Frc consts  --      1.7491                 1.7389                 1.0513
 IR Inten    --     63.2722                56.0436                10.8002

                     46                     47                     48
                      A                      A                      A
 Frequencies --   1134.1686              1139.8812              1149.9848
 Red. masses --      3.4211                 1.9352                 2.0344
 Frc consts  --      2.5928                 1.4815                 1.5851
 IR Inten    --      0.1211                65.6787                 0.3738

                     49                     50                     51
                      A                      A                      A
 Frequencies --   1166.7988              1206.7582              1227.5011
 Red. masses --      2.0986                 1.0821                 1.2658
 Frc consts  --      1.6833                 0.9285                 1.1237
 IR Inten    --      3.4054                 5.2415                 5.9029

                     52                     53                     54
                      A                      A                      A
 Frequencies --   1255.2503              1260.8951              1281.2152
 Red. masses --      1.3583                 1.3711                 2.0552
 Frc consts  --      1.2610                 1.2843                 1.9877
 IR Inten    --      7.1552                11.8355                13.3557

                     55                     56                     57
                      A                      A                      A
 Frequencies --   1307.7096              1311.7564              1319.6370
 Red. masses --      1.2416                 1.2986                 1.4633
 Frc consts  --      1.2510                 1.3166                 1.5014
 IR Inten    --      4.9205                 7.8301                 0.7447

                     58                     59                     60
                      A                      A                      A
 Frequencies --   1327.8965              1354.7665              1356.5521
 Red. masses --      1.1788                 1.1206                 1.3408
 Frc consts  --      1.2247                 1.2118                 1.4537
 IR Inten    --      4.2313                 0.8935                 0.4550

                     61                     62                     63
                      A                      A                      A
 Frequencies --   1371.4050              1381.2925              1393.7568
 Red. masses --      1.4675                 1.3550                 1.5205
 Frc consts  --      1.6262                 1.5232                 1.7402
 IR Inten    --      2.1832                11.2955                 2.0263

                     64                     65                     66
                      A                      A                      A
 Frequencies --   1399.0953              1403.2295              1411.6430
 Red. masses --      1.4298                 1.4254                 1.3607
 Frc consts  --      1.6490                 1.6537                 1.5976
 IR Inten    --      3.1795                 3.4443                 6.2920

                     67                     68                     69
                      A                      A                      A
 Frequencies --   1418.8019              1423.7958              1437.9317
 Red. masses --      1.4621                 1.4356                 1.3418
 Frc consts  --      1.7341                 1.7146                 1.6346
 IR Inten    --     13.7447                 3.7544                27.4825

                     70                     71                     72
                      A                      A                      A
 Frequencies --   1442.7757              1447.0625              1493.0965
 Red. masses --      1.2655                 1.2327                 1.0976
 Frc consts  --      1.5521                 1.5209                 1.4416
 IR Inten    --      2.6793                49.9028                 4.0964

                     73                     74                     75
                      A                      A                      A
 Frequencies --   1500.2113              1506.7938              1508.2780
 Red. masses --      1.0795                 1.0969                 1.0919
 Frc consts  --      1.4315                 1.4673                 1.4635
 IR Inten    --      1.5455                11.8742                 0.6764

                     76                     77                     78
                      A                      A                      A
 Frequencies --   1516.7753              1526.0754              1529.3599
 Red. masses --      1.0766                 1.0573                 1.0736
 Frc consts  --      1.4594                 1.4508                 1.4795
 IR Inten    --      6.5103                 2.0662                 1.7777

                     79                     80                     81
                      A                      A                      A
 Frequencies --   1535.2206              1538.2642              1542.0138
 Red. masses --      1.0725                 1.0727                 1.0796
 Frc consts  --      1.4893                 1.4955                 1.5125
 IR Inten    --      2.6903                 5.4055                 3.3551

                     82                     83                     84
                      A                      A                      A
 Frequencies --   1553.0036              2946.4795              2958.1331
 Red. masses --      1.0964                 1.0742                 1.0724
 Frc consts  --      1.5579                 5.4949                 5.5288
 IR Inten    --      7.9420                36.3700               116.6789

                     85                     86                     87
                      A                      A                      A
 Frequencies --   3026.6107              3028.6496              3034.3680
 Red. masses --      1.0698                 1.0638                 1.0608
 Frc consts  --      5.7741                 5.7494                 5.7547
 IR Inten    --     28.5958                 8.2499                26.9739

                     88                     89                     90
                      A                      A                      A
 Frequencies --   3039.8600              3043.7240              3049.6855
 Red. masses --      1.0610                 1.0432                 1.0648
 Frc consts  --      5.7768                 5.6941                 5.8346
 IR Inten    --     21.5861                21.3462                37.1390

                     91                     92                     93
                      A                      A                      A
 Frequencies --   3056.4856              3059.5746              3063.0191
 Red. masses --      1.0623                 1.0634                 1.0985
 Frc consts  --      5.8469                 5.8652                 6.0724
 IR Inten    --     11.9982                12.7414                49.1479

                     94                     95                     96
                      A                      A                      A
 Frequencies --   3070.4579              3086.4054              3090.5695
 Red. masses --      1.0972                 1.0936                 1.0858
 Frc consts  --      6.0944                 6.1381                 6.1102
 IR Inten    --     23.3403                48.4862                61.5473

                     97                     98                     99
                      A                      A                      A
 Frequencies --   3094.5331              3102.7835              3105.4456
 Red. masses --      1.1034                 1.0893                 1.0935
 Frc consts  --      6.2256                 6.1789                 6.2130
 IR Inten    --     40.0976                20.5721                90.6460

                    100                    101                    102
                      A                      A                      A
 Frequencies --   3108.2692              3109.2390              3111.2511
 Red. masses --      1.1017                 1.1024                 1.1034
 Frc consts  --      6.2710                 6.2788                 6.2928
 IR Inten    --     54.6198                21.7722                36.4316

                    103                    104                    105
                      A                      A                      A
 Frequencies --   3114.3465              3116.0198              3741.3968
 Red. masses --      1.1018                 1.0883                 1.0654
 Frc consts  --      6.2964                 6.2259                 8.7870
 IR Inten    --     42.5850                18.5906                 5.9335

 - Thermochemistry -
 -------------------
 Temperature   298.150 Kelvin.  Pressure   1.00000 Atm.
 Atom     1 has atomic number  6 and mass  12.00000

 Molecular mass:   201.17288 amu.
 Principal axes and moments of inertia in atomic units:
                           1         2         3
     Eigenvalues --  1432.351755593.733615990.32533
           X            0.99998   0.00592   0.00041
           Y           -0.00591   0.99996  -0.00655
           Z           -0.00045   0.00655   0.99998
 This molecule is an asymmetric top.
 Rotational symmetry number  1.
 Warning -- assumption of classical behavior for rotation
           may cause significant error
 Rotational temperatures (Kelvin)      0.06047     0.01548     0.01446
 Rotational constants (GHZ):           1.25998     0.32264     0.30128
 Zero-point vibrational energy     893244.9 (Joules/Mol)
                                  213.49065 (Kcal/Mol)
 Warning -- explicit consideration of  23 degrees of freedom as
           vibrations may cause significant error
 Vibrational temperatures:     51.59    59.26    70.46    99.43   134.54
          (Kelvin)            163.79   255.70   276.35   335.35   348.93
                              381.83   408.53   448.96   473.33   522.65
                              567.18   575.28   617.48   644.02   707.81
                              729.73   739.79   813.08   993.55  1034.83
                             1104.60  1155.43  1165.61  1171.23  1191.96
                             1249.15  1290.08  1325.13  1354.52  1397.70
                             1417.53  1431.47  1474.41  1499.03  1504.62
                             1508.67  1536.91  1553.22  1602.03  1605.46
                             1631.82  1640.03  1654.57  1678.76  1736.26
                             1766.10  1806.03  1814.15  1843.38  1881.50
                             1887.32  1898.66  1910.55  1949.21  1951.78
                             1973.15  1987.37  2005.31  2012.99  2018.93
                             2031.04  2041.34  2048.52  2068.86  2075.83
                             2082.00  2148.23  2158.47  2167.94  2170.08
                             2182.30  2195.68  2200.41  2208.84  2213.22
                             2218.61  2234.43  4239.33  4256.09  4354.62
                             4357.55  4365.78  4373.68  4379.24  4387.82
                             4397.60  4402.05  4407.00  4417.70  4440.65
                             4446.64  4452.34  4464.21  4468.04  4472.11
                             4473.50  4476.40  4480.85  4483.26  5383.04

 Zero-point correction=                           0.340219 (Hartree/Particle)
 Thermal correction to Energy=                    0.355600
 Thermal correction to Enthalpy=                  0.356544
 Thermal correction to Gibbs Free Energy=         0.296894
 Sum of electronic and zero-point Energies=           -637.882323
 Sum of electronic and thermal Energies=              -637.866942
 Sum of electronic and thermal Enthalpies=            -637.865998
 Sum of electronic and thermal Free Energies=         -637.925648

                     E (Thermal)             CV                S
                      KCal/Mol        Cal/Mol-Kelvin    Cal/Mol-Kelvin
 Total                  223.142             58.899            125.543
 Electronic               0.000              0.000              0.000
 Translational            0.889              2.981             41.802
 Rotational               0.889              2.981             32.240
 Vibrational            221.365             52.937             51.502
 Vibration     1          0.594              1.982              5.476
 Vibration     2          0.594              1.981              5.201
 Vibration     3          0.595              1.978              4.859
 Vibration     4          0.598              1.969              4.179
 Vibration     5          0.603              1.954              3.585
 Vibration     6          0.607              1.938              3.202
 Vibration     7          0.628              1.870              2.352
 Vibration     8          0.634              1.851              2.208
 Vibration     9          0.654              1.790              1.855
 Vibration    10          0.659              1.775              1.784
 Vibration    11          0.671              1.737              1.626
 Vibration    12          0.682              1.703              1.510
 Vibration    13          0.700              1.651              1.351
 Vibration    14          0.712              1.618              1.265
 Vibration    15          0.737              1.548              1.108
 Vibration    16          0.761              1.483              0.984
 Vibration    17          0.766              1.470              0.963
 Vibration    18          0.791              1.407              0.861
 Vibration    19          0.807              1.366              0.803
 Vibration    20          0.848              1.268              0.679
 Vibration    21          0.862              1.234              0.640
 Vibration    22          0.869              1.219              0.624
 Vibration    23          0.921              1.107              0.514

                           ! Non-Optimized Parameters !
 Normal termination of Gaussian 16 at Thu Dec 10 11:06:40 2020.

 ----------------------------------------------------------------------
 # B3LYP/6-311++G(d,p) empiricaldispersion=gd3bj scf=xqc pop=npa geom=c
 heck
 ----------------------------------------------------------------------

 ---------------------------------------
 CID_150392102_JID_4930_Energie_neutraal
 ---------------------------------------
 Structure from the checkpoint file:  "JID_4930.chk"
 Charge =  0 Multiplicity = 1

 SCF Done:  E(RB3LYP) =  -638.412560717     A.U. after   12 cycles
 Normal termination of Gaussian 16 at Thu Dec 10 11:11:55 2020.

 ----------------------------------------------------------------------
 # B3LYP/6-311++G(d,p) empiricaldispersion=gd3bj scf=xqc pop=npa geom=c
 heck
 ----------------------------------------------------------------------

 -------------------------------------
 CID_150392102_JID_4930_Energie_kation
 -------------------------------------
 Structure from the checkpoint file:  "JID_4930.chk"
 Charge =  1 Multiplicity = 2

 SCF Done:  E(UB3LYP) =  -638.099974598     A.U. after   24 cycles
 Normal termination of Gaussian 16 at Thu Dec 10 11:25:32 2020.
 Gaussian 16:  ES64L-G16RevA.03 25-Dec-2016

 ----------------------------------------------------------------------
 # B3LYP/6-311++G(d,p) empiricaldispersion=gd3bj scf=xqc pop=npa geom=c
 heck
 ----------------------------------------------------------------------

 ------------------------------------
 CID_150392102_JID_4930_Energie_anion
 ------------------------------------
 Structure from the checkpoint file:  "JID_4930.chk"
 Charge = -1 Multiplicity = 2

                         Standard orientation:
 ---------------------------------------------------------------------
 Center     Atomic      Atomic             Coordinates (Angstroms)
 Number     Number       Type             X           Y           Z
 ---------------------------------------------------------------------
      1          6           0       -4.778133   -1.077809   -0.029528
      2          6           0       -3.476640   -1.055113    0.777610
      3          6           0       -2.206966   -1.107856   -0.085089
      4          6           0       -2.047861    0.038949   -1.094534
      5          6           0       -2.106562    1.454996   -0.499227
      6          6           0       -1.135011    1.772648    0.637634
      7          8           0        0.235009    1.872586    0.245748
      8          7           0        0.809855    0.553746    0.118560
      9          6           0        1.666680    0.353961    1.289408
     10          6           0        2.344424   -1.016512    1.193859
     11          6           0        3.157951   -1.144866   -0.102365
     12          6           0        2.274990   -0.782054   -1.305484
     13          6           0        1.599167    0.578494   -1.111149
     14          8           0        4.348182   -0.356175   -0.061107
     15          1           0       -4.875728   -0.190994   -0.665823
     16          1           0       -5.653606   -1.109213    0.628717
     17          1           0       -4.819066   -1.958062   -0.683116
     18          1           0       -3.459825   -0.159343    1.413177
     19          1           0       -3.465320   -1.910030    1.466639
     20          1           0       -1.323728   -1.126338    0.563531
     21          1           0       -2.198037   -2.056962   -0.639961
     22          1           0       -1.096595   -0.097641   -1.618103
     23          1           0       -2.830079   -0.034611   -1.861666
     24          1           0       -1.941869    2.189233   -1.298415
     25          1           0       -3.118843    1.644993   -0.114835
     26          1           0       -1.362233    2.766934    1.039180
     27          1           0       -1.231146    1.051808    1.459775
     28          1           0        1.039144    0.412403    2.183603
     29          1           0        2.415079    1.164421    1.366122
     30          1           0        1.571731   -1.794778    1.214523
     31          1           0        3.001973   -1.168625    2.056167
     32          1           0        3.519087   -2.172609   -0.208806
     33          1           0        2.883687   -0.768791   -2.215653
     34          1           0        1.497882   -1.546537   -1.427506
     35          1           0        0.924854    0.803381   -1.941226
     36          1           0        2.349129    1.391293   -1.077946
     37          1           0        4.086766    0.573531    0.027754
 ---------------------------------------------------------------------

 SCF Done:  E(UB3LYP) =  -638.397960138     A.U. after   28 cycles

 The electronic state is 2-A.
 Alpha  occ. eigenvalues --  -19.05022 -19.03037 -14.25952 -10.12855 -10.11670
 Alpha  occ. eigenvalues --  -10.10349 -10.10222 -10.07673 -10.07530 -10.06748
 Alpha  occ. eigenvalues --  -10.06217 -10.06073 -10.05870 -10.05578  -0.97225
 Alpha  occ. eigenvalues --   -0.93333  -0.79213  -0.70676  -0.68182  -0.66958
 Alpha  occ. eigenvalues --   -0.65511  -0.60240  -0.56079  -0.54294  -0.53590
 Alpha  occ. eigenvalues --   -0.49763  -0.46970  -0.44707  -0.43106  -0.40794
 Alpha  occ. eigenvalues --   -0.38280  -0.37843  -0.37156  -0.36382  -0.35181
 Alpha  occ. eigenvalues --   -0.34610  -0.33266  -0.32545  -0.31362  -0.30125
 Alpha  occ. eigenvalues --   -0.29910  -0.29646  -0.27417  -0.26897  -0.26697
 Alpha  occ. eigenvalues --   -0.26303  -0.25907  -0.25099  -0.24409  -0.22638
 Alpha  occ. eigenvalues --   -0.22051  -0.21553  -0.21316  -0.18323  -0.17470
 Alpha  occ. eigenvalues --   -0.14027   0.04396
 Alpha virt. eigenvalues --    0.06331   0.06919   0.07009   0.07926   0.08532
 Alpha virt. eigenvalues --    0.08619   0.09455   0.09755   0.10588   0.10974
 Alpha virt. eigenvalues --    0.11203   0.11281   0.11647   0.12422   0.12849

  Beta  occ. eigenvalues --  -19.05009 -19.03021 -14.25945 -10.12845 -10.11656
  Beta  occ. eigenvalues --  -10.10336 -10.10204 -10.07655 -10.07509 -10.06735
  Beta  occ. eigenvalues --  -10.06197 -10.06063 -10.05841 -10.05563  -0.97203
  Beta  occ. eigenvalues --   -0.93294  -0.79192  -0.70646  -0.68145  -0.66923
  Beta  occ. eigenvalues --   -0.65475  -0.60201  -0.56035  -0.54249  -0.53544
  Beta  occ. eigenvalues --   -0.49706  -0.46920  -0.44654  -0.43055  -0.40765
  Beta  occ. eigenvalues --   -0.38244  -0.37805  -0.37116  -0.36348  -0.35152
  Beta  occ. eigenvalues --   -0.34581  -0.33228  -0.32518  -0.31327  -0.30094
  Beta  occ. eigenvalues --   -0.29881  -0.29611  -0.27380  -0.26861  -0.26660
  Beta  occ. eigenvalues --   -0.26269  -0.25873  -0.25067  -0.24380  -0.22605
  Beta  occ. eigenvalues --   -0.22022  -0.21522  -0.21280  -0.18298  -0.17438
  Beta  occ. eigenvalues --   -0.13987
  Beta virt. eigenvalues --    0.06397   0.06977   0.07463   0.07629   0.08281
  Beta virt. eigenvalues --    0.08938   0.09094   0.09903   0.10093   0.10821
  Beta virt. eigenvalues --    0.11316   0.11586   0.11658   0.11914   0.12771

 Mulliken charges and spin densities:
               1          2
     1  C    0.643121  -1.286724
     2  C   -0.213746  -0.042690
     3  C    0.113018  -0.307964
     4  C    0.068519   0.077980
     5  C   -0.001410  -0.585097
     6  C   -0.111135  -0.156405
     7  O    0.101462   0.048785
     8  N   -0.251302   0.060076
     9  C    0.464393  -0.713502
    10  C   -0.177828  -0.304248
    11  C    0.079285  -0.222444
    12  C    0.038784  -0.456174
    13  C    0.033714  -0.373441
    14  O   -0.186716   0.017005
    15  H   -0.074932   0.205310
    16  H   -0.240300   0.374204
    17  H   -0.052929   0.189605
    18  H   -0.087156   0.221131
    19  H   -0.409750   0.563942
    20  H    0.354315  -0.191455
    21  H   -0.291905   0.445514
    22  H    0.083411   0.029995
    23  H   -0.112089   0.291792
    24  H    0.104892   0.072463
    25  H   -0.033746   0.158810
    26  H   -0.159398   0.332774
    27  H    0.129874   0.004285
    28  H   -0.275539   0.442091
    29  H    0.040185   0.104808
    30  H   -0.168133   0.303272
    31  H   -0.141130   0.350225
    32  H   -0.255790   0.489587
    33  H   -0.089704   0.304039
    34  H   -0.063612   0.183984
    35  H   -0.020017   0.174883
    36  H   -0.024479   0.161421
    37  H    0.187776   0.032164
 Sum of Mulliken charges =  -1.00000   1.00000

 Dipole moment (field-independent basis, Debye):
    X=              1.8171    Y=              3.1744    Z=             -1.3493  Tot=              3.8987
 Quadrupole moment (field-independent basis, Debye-Ang):
   XX=           -178.9068   YY=           -132.5972   ZZ=           -127.7667
   XY=             -1.6634   XZ=              3.7475   YZ=              1.1901

 Summary of Natural Population Analysis:

                                       Natural Population
                Natural  -----------------------------------------------
    Atom  No    Charge         Core      Valence    Rydberg      Total
 -----------------------------------------------------------------------
      C    1   -0.28518      0.99967     2.28110    0.00441     3.28518
      C    2   -0.19207      0.99964     2.18438    0.00805     3.19207
      C    3   -0.19331      0.99962     2.18395    0.00973     3.19331
      C    4   -0.19139      0.99962     2.18308    0.00869     3.19139
      C    5   -0.20407      0.99962     2.19637    0.00808     3.20407
      C    6   -0.00899      0.99957     1.99598    0.01345     3.00899
      O    7   -0.23169      0.99990     3.22220    0.00959     4.23169
      N    8   -0.13045      0.99969     2.61649    0.01427     3.63045
      C    9   -0.09198      0.99960     2.07888    0.01350     3.09198
      C   10   -0.20947      0.99959     2.19999    0.00988     3.20947
      C   11    0.06515      0.99955     1.92101    0.01429     2.93485
      C   12   -0.20933      0.99959     2.20002    0.00971     3.20933
      C   13   -0.09033      0.99960     2.07810    0.01263     3.09033
      O   14   -0.37268      0.99990     3.36609    0.00669     4.37268
      H   15    0.09438      0.00000     0.40449    0.00114     0.40562
      H   16    0.09789      0.00000     0.40095    0.00116     0.40211
      H   17    0.09512      0.00000     0.40361    0.00126     0.40488
      H   18    0.09123      0.00000     0.40738    0.00139     0.40877
      H   19    0.09692      0.00000     0.40174    0.00133     0.40308
      H   20    0.10167      0.00000     0.39593    0.00240     0.39833
      H   21    0.09505      0.00000     0.40365    0.00130     0.40495
      H   22    0.09944      0.00000     0.39866    0.00190     0.40056
      H   23    0.09399      0.00000     0.40484    0.00118     0.40601
      H   24    0.09828      0.00000     0.40061    0.00111     0.40172
      H   25    0.09770      0.00000     0.40108    0.00123     0.40230
      H   26    0.08915      0.00000     0.40979    0.00106     0.41085
      H   27    0.08460      0.00000     0.41374    0.00166     0.41540
      H   28    0.10434      0.00000     0.39427    0.00139     0.39566
      H   29    0.08040      0.00000     0.41766    0.00194     0.41960
      H   30    0.10598      0.00000     0.39217    0.00185     0.39402
      H   31    0.10614      0.00000     0.39270    0.00115     0.39386
      H   32    0.09162      0.00000     0.40702    0.00137     0.40838
      H   33    0.10546      0.00000     0.39345    0.00108     0.39454
      H   34    0.10555      0.00000     0.39264    0.00180     0.39445
      H   35    0.10470      0.00000     0.39393    0.00137     0.39530
      H   36    0.08048      0.00000     0.41770    0.00182     0.41952
      H   37    0.22570      0.00000     0.27109    0.00321     0.27430
 =======================================================================
   * Total *    0.00000     13.99517    41.82673    0.17810    56.00000

 Normal termination of Gaussian 16 at Thu Dec 10 11:41:51 2020.
