 Gaussian 16, Revision A.03,

 -----------------------------------------------------------
 # opt freq B3LYP/6-31G(d) empiricaldispersion=gd3bj scf=xqc
 -----------------------------------------------------------

 -------------------------------
 CID_147950889_JID_2707_neutraal
 -------------------------------
 Symbolic Z-matrix:
 Charge =  0 Multiplicity = 1

 SCF Done:  E(RB3LYP) =  -469.260047367     A.U. after   13 cycles
 SCF Done:  E(RB3LYP) =  -469.277993073     A.U. after   11 cycles
 SCF Done:  E(RB3LYP) =  -469.281878035     A.U. after   11 cycles
 SCF Done:  E(RB3LYP) =  -469.282204798     A.U. after   10 cycles
 SCF Done:  E(RB3LYP) =  -469.282787156     A.U. after   10 cycles
 SCF Done:  E(RB3LYP) =  -469.282852019     A.U. after    9 cycles
 SCF Done:  E(RB3LYP) =  -469.282859508     A.U. after    9 cycles
 SCF Done:  E(RB3LYP) =  -469.282863166     A.U. after    7 cycles
 SCF Done:  E(RB3LYP) =  -469.282863729     A.U. after    6 cycles
 Optimization completed.
    -- Stationary point found.
 Normal termination of Gaussian 16 at Wed Dec  9 17:49:40 2020.

 --------------------------------------------------------------------
 #N Geom=AllCheck Guess=TCheck SCRF=Check GenChk RB3LYP/6-31G(d) Freq
 --------------------------------------------------------------------

 Structure from the checkpoint file:  "JID_2707.chk"
 -------------------------------
 CID_147950889_JID_2707_neutraal
 -------------------------------
 Charge =  0 Multiplicity = 1

 SCF Done:  E(RB3LYP) =  -469.282863729     A.U. after    1 cycles

  Exact polarizability: 133.755  -0.320 114.582   1.904  -0.994 105.897
 Approx polarizability: 168.847   1.355 163.907   1.399  -2.011 163.282

                      1                      2                      3
                      A                      A                      A
 Frequencies --     62.0972                76.2062               117.5132
 Red. masses --      2.9275                 3.0354                 2.4654
 Frc consts  --      0.0067                 0.0104                 0.0201
 IR Inten    --      0.0482                 0.0320                 0.0190

                      4                      5                      6
                      A                      A                      A
 Frequencies --    164.4315               210.1827               231.8639
 Red. masses --      2.6591                 2.0245                 1.4958
 Frc consts  --      0.0424                 0.0527                 0.0474
 IR Inten    --      0.0357                 0.1715                 0.0610

                      7                      8                      9
                      A                      A                      A
 Frequencies --    249.5057               303.0207               332.0992
 Red. masses --      2.5150                 1.4650                 2.4281
 Frc consts  --      0.0922                 0.0793                 0.1578
 IR Inten    --      0.2237                 0.0559                 1.7177

                     10                     11                     12
                      A                      A                      A
 Frequencies --    340.1756               410.8188               425.1957
 Red. masses --      2.2314                 2.5235                 2.5388
 Frc consts  --      0.1521                 0.2509                 0.2704
 IR Inten    --      0.2739                 0.7656                 0.0087

                     13                     14                     15
                      A                      A                      A
 Frequencies --    451.0776               457.8373               468.3821
 Red. masses --      2.6368                 2.1828                 3.1210
 Frc consts  --      0.3161                 0.2696                 0.4034
 IR Inten    --      0.1794                 5.1606                 0.5393

                     16                     17                     18
                      A                      A                      A
 Frequencies --    629.7425               669.1439               764.8959
 Red. masses --      3.2089                 3.0448                 1.4438
 Frc consts  --      0.7498                 0.8032                 0.4977
 IR Inten    --      1.7285                 0.3544                 1.1762

                     19                     20                     21
                      A                      A                      A
 Frequencies --    767.2446               804.1420               814.1848
 Red. masses --      1.7440                 2.1038                 1.8661
 Frc consts  --      0.6049                 0.8015                 0.7289
 IR Inten    --      1.5948                 0.1547                 0.9693

                     22                     23                     24
                      A                      A                      A
 Frequencies --    839.1883               856.9632               859.8688
 Red. masses --      2.1585                 2.3734                 3.1980
 Frc consts  --      0.8956                 1.0269                 1.3931
 IR Inten    --      2.5774                 2.1092                 8.4094

                     25                     26                     27
                      A                      A                      A
 Frequencies --    883.3871               903.8990               913.6926
 Red. masses --      2.0414                 2.5815                 1.7297
 Frc consts  --      0.9386                 1.2427                 0.8508
 IR Inten    --      0.0265                 1.6515                 1.5727

                     28                     29                     30
                      A                      A                      A
 Frequencies --    946.2597               972.4844               990.1919
 Red. masses --      1.6729                 1.9417                 1.4448
 Frc consts  --      0.8825                 1.0819                 0.8346
 IR Inten    --      2.4340                 1.5540                 0.6609

                     31                     32                     33
                      A                      A                      A
 Frequencies --   1022.3114              1032.5117              1040.4294
 Red. masses --      2.2236                 1.8979                 2.2208
 Frc consts  --      1.3692                 1.1921                 1.4164
 IR Inten    --      0.9787                 1.7395                 0.7360

                     34                     35                     36
                      A                      A                      A
 Frequencies --   1073.8901              1081.8328              1089.6128
 Red. masses --      1.6708                 1.2678                 1.4881
 Frc consts  --      1.1353                 0.8742                 1.0410
 IR Inten    --      0.4764                 4.7330                 4.6406

                     37                     38                     39
                      A                      A                      A
 Frequencies --   1098.7910              1111.2429              1130.7535
 Red. masses --      1.6686                 1.8822                 1.9238
 Frc consts  --      1.1870                 1.3694                 1.4493
 IR Inten    --      0.3257                12.0168                 0.6325

                     40                     41                     42
                      A                      A                      A
 Frequencies --   1142.5193              1154.7283              1172.9627
 Red. masses --      1.5165                 1.4960                 1.2501
 Frc consts  --      1.1663                 1.1753                 1.0134
 IR Inten    --      1.3798                 1.5442                 1.6043

                     43                     44                     45
                      A                      A                      A
 Frequencies --   1196.7673              1215.9821              1240.3455
 Red. masses --      1.7673                 1.3519                 1.6462
 Frc consts  --      1.4914                 1.1777                 1.4922
 IR Inten    --      1.1945                 0.0523                 3.0168

                     46                     47                     48
                      A                      A                      A
 Frequencies --   1254.7311              1257.8896              1276.9281
 Red. masses --      1.4997                 1.3995                 1.3718
 Frc consts  --      1.3911                 1.3047                 1.3178
 IR Inten    --      0.7075                 0.5305                 0.4587

                     49                     50                     51
                      A                      A                      A
 Frequencies --   1285.1872              1298.1563              1303.4943
 Red. masses --      1.4148                 1.5860                 1.4328
 Frc consts  --      1.3768                 1.5747                 1.4344
 IR Inten    --      0.4763                 2.5515                 0.9500

                     52                     53                     54
                      A                      A                      A
 Frequencies --   1320.7810              1337.3678              1343.6218
 Red. masses --      1.2891                 1.2298                 1.4437
 Frc consts  --      1.3249                 1.2960                 1.5356
 IR Inten    --      0.3859                 2.4113                10.2663

                     55                     56                     57
                      A                      A                      A
 Frequencies --   1355.5013              1369.1543              1387.2925
 Red. masses --      1.2351                 1.3581                 1.2719
 Frc consts  --      1.3370                 1.5000                 1.4422
 IR Inten    --      3.8584                 0.2711                 3.9941

                     58                     59                     60
                      A                      A                      A
 Frequencies --   1399.5270              1415.7399              1441.6916
 Red. masses --      1.3765                 1.4057                 1.2736
 Frc consts  --      1.5885                 1.6600                 1.5596
 IR Inten    --      5.6434                 0.6846                 5.3994

                     61                     62                     63
                      A                      A                      A
 Frequencies --   1447.9611              1483.2070              1508.2565
 Red. masses --      1.3336                 1.2961                 1.0843
 Frc consts  --      1.6473                 1.6800                 1.4533
 IR Inten    --      2.0592                 0.0050                 3.0511

                     64                     65                     66
                      A                      A                      A
 Frequencies --   1514.6210              1518.6485              1519.3315
 Red. masses --      1.1002                 1.0920                 1.0693
 Frc consts  --      1.4871                 1.4839                 1.4542
 IR Inten    --      3.4391                 0.8429                 1.2379

                     67                     68                     69
                      A                      A                      A
 Frequencies --   1529.3543              1532.9284              1536.8874
 Red. masses --      1.5825                 1.0619                 1.0821
 Frc consts  --      2.1808                 1.4701                 1.5060
 IR Inten    --      0.9075                 4.0866                 7.1056

                     70                     71                     72
                      A                      A                      A
 Frequencies --   1538.5563              3026.3264              3031.5255
 Red. masses --      1.0822                 1.0630                 1.0702
 Frc consts  --      1.5093                 5.7361                 5.7948
 IR Inten    --      4.6127                18.5024                24.6384

                     73                     74                     75
                      A                      A                      A
 Frequencies --   3035.9107              3036.9338              3042.9083
 Red. masses --      1.0679                 1.0709                 1.0750
 Frc consts  --      5.7990                 5.8192                 5.8646
 IR Inten    --     26.3107                43.9903                30.0996

                     76                     77                     78
                      A                      A                      A
 Frequencies --   3044.1127              3056.6904              3059.4458
 Red. masses --      1.0368                 1.0631                 1.0841
 Frc consts  --      5.6604                 5.8522                 5.9788
 IR Inten    --     14.9826                50.5272                38.1055

                     79                     80                     81
                      A                      A                      A
 Frequencies --   3060.1637              3072.2605              3074.6964
 Red. masses --      1.0980                 1.0853                 1.0942
 Frc consts  --      6.0584                 6.0356                 6.0947
 IR Inten    --     41.9726                25.5634                37.4346

                     82                     83                     84
                      A                      A                      A
 Frequencies --   3079.0670              3089.8002              3102.7020
 Red. masses --      1.0978                 1.0887                 1.0970
 Frc consts  --      6.1322                 6.1237                 6.2218
 IR Inten    --     45.7276                34.3249                51.8246

                     85                     86                     87
                      A                      A                      A
 Frequencies --   3108.0815              3110.0426              3113.7158
 Red. masses --      1.1054                 1.1009                 1.1018
 Frc consts  --      6.2917                 6.2738                 6.2938
 IR Inten    --     26.0405                46.2960                43.2037

                     88                     89                     90
                      A                      A                      A
 Frequencies --   3119.7104              3130.9837              3211.3085
 Red. masses --      1.0856                 1.0550                 1.1174
 Frc consts  --      6.2250                 6.0936                 6.7891
 IR Inten    --     53.2742                33.6924                18.7378

 - Thermochemistry -
 -------------------
 Temperature   298.150 Kelvin.  Pressure   1.00000 Atm.
 Atom     1 has atomic number  6 and mass  12.00000

 Molecular mass:   164.15650 amu.
 Principal axes and moments of inertia in atomic units:
                           1         2         3
     Eigenvalues --  1172.932472747.951233202.97278
           X            0.99996  -0.00889  -0.00133
           Y            0.00888   0.99993  -0.00822
           Z            0.00141   0.00821   0.99997
 This molecule is an asymmetric top.
 Rotational symmetry number  1.
 Warning -- assumption of classical behavior for rotation
           may cause significant error
 Rotational temperatures (Kelvin)      0.07384     0.03152     0.02704
 Rotational constants (GHZ):           1.53866     0.65676     0.56346
 Zero-point vibrational energy     780584.7 (Joules/Mol)
                                  186.56423 (Kcal/Mol)
 Warning -- explicit consideration of  15 degrees of freedom as
           vibrations may cause significant error
 Vibrational temperatures:     89.34   109.64   169.08   236.58   302.41
          (Kelvin)            333.60   358.98   435.98   477.82   489.44
                              591.08   611.76   649.00   658.73   673.90
                              906.06   962.75  1100.51  1103.89  1156.98
                             1171.43  1207.40  1232.98  1237.16  1271.00
                             1300.51  1314.60  1361.46  1399.19  1424.67
                             1470.88  1485.55  1496.95  1545.09  1556.52
                             1567.71  1580.92  1598.83  1626.90  1643.83
                             1661.40  1687.63  1721.88  1749.53  1784.58
                             1805.28  1809.82  1837.21  1849.10  1867.76
                             1875.44  1900.31  1924.17  1933.17  1950.26
                             1969.91  1996.00  2013.61  2036.93  2074.27
                             2083.29  2134.00  2170.04  2179.20  2185.00
                             2185.98  2200.40  2205.54  2211.24  2213.64
                             4354.21  4361.69  4368.00  4369.47  4378.07
                             4379.80  4397.90  4401.86  4402.89  4420.30
                             4423.80  4430.09  4445.53  4464.10  4471.84
                             4474.66  4479.94  4488.57  4504.79  4620.36

 Zero-point correction=                           0.297309 (Hartree/Particle)
 Thermal correction to Energy=                    0.308752
 Thermal correction to Enthalpy=                  0.309696
 Thermal correction to Gibbs Free Energy=         0.260398
 Sum of electronic and zero-point Energies=           -468.985555
 Sum of electronic and thermal Energies=              -468.974112
 Sum of electronic and thermal Enthalpies=            -468.973168
 Sum of electronic and thermal Free Energies=         -469.022466

                     E (Thermal)             CV                S
                      KCal/Mol        Cal/Mol-Kelvin    Cal/Mol-Kelvin
 Total                  193.745             46.582            103.757
 Electronic               0.000              0.000              0.000
 Translational            0.889              2.981             41.195
 Rotational               0.889              2.981             30.713
 Vibrational            191.967             40.620             31.849
 Vibration     1          0.597              1.972              4.389
 Vibration     2          0.599              1.965              3.986
 Vibration     3          0.608              1.935              3.141
 Vibration     4          0.623              1.886              2.498
 Vibration     5          0.642              1.825              2.042
 Vibration     6          0.653              1.792              1.864
 Vibration     7          0.662              1.764              1.734
 Vibration     8          0.694              1.668              1.400
 Vibration     9          0.714              1.611              1.250
 Vibration    10          0.720              1.595              1.211
 Vibration    11          0.775              1.447              0.924
 Vibration    12          0.787              1.415              0.874
 Vibration    13          0.810              1.359              0.793
 Vibration    14          0.816              1.344              0.772
 Vibration    15          0.826              1.320              0.742

                           ! Non-Optimized Parameters !
 Normal termination of Gaussian 16 at Wed Dec  9 17:58:22 2020.

 ----------------------------------------------------------------------
 # B3LYP/6-311++G(d,p) empiricaldispersion=gd3bj scf=xqc pop=npa geom=c
 heck
 ----------------------------------------------------------------------

 ---------------------------------------
 CID_147950889_JID_2707_Energie_neutraal
 ---------------------------------------
 Structure from the checkpoint file:  "JID_2707.chk"
 Charge =  0 Multiplicity = 1

 SCF Done:  E(RB3LYP) =  -469.404914822     A.U. after   13 cycles
 Normal termination of Gaussian 16 at Wed Dec  9 18:01:33 2020.

 ----------------------------------------------------------------------
 # B3LYP/6-311++G(d,p) empiricaldispersion=gd3bj scf=xqc pop=npa geom=c
 heck
 ----------------------------------------------------------------------

 -------------------------------------
 CID_147950889_JID_2707_Energie_kation
 -------------------------------------
 Structure from the checkpoint file:  "JID_2707.chk"
 Charge =  1 Multiplicity = 2

 SCF Done:  E(UB3LYP) =  -469.100476982     A.U. after   20 cycles
 Normal termination of Gaussian 16 at Wed Dec  9 18:08:19 2020.
 Gaussian 16:  ES64L-G16RevA.03 25-Dec-2016

 ----------------------------------------------------------------------
 # B3LYP/6-311++G(d,p) empiricaldispersion=gd3bj scf=xqc pop=npa geom=c
 heck
 ----------------------------------------------------------------------

 ------------------------------------
 CID_147950889_JID_2707_Energie_anion
 ------------------------------------
 Structure from the checkpoint file:  "JID_2707.chk"
 Charge = -1 Multiplicity = 2

                         Standard orientation:
 ---------------------------------------------------------------------
 Center     Atomic      Atomic             Coordinates (Angstroms)
 Number     Number       Type             X           Y           Z
 ---------------------------------------------------------------------
      1          6           0        3.357751   -1.089647    0.109509
      2          6           0        3.075478    0.087058   -0.827682
      3          6           0        1.593811    0.486179   -0.915308
      4          6           0        1.011194    1.019137    0.409806
      5          6           0       -0.041349    2.163345    0.288176
      6          6           0       -1.178604    1.179341    0.658921
      7          6           0       -0.068289    0.160149    1.165340
      8          6           0       -0.230973   -1.377045    0.938050
      9          6           0       -1.242833   -1.871571   -0.161409
     10          6           0       -2.357564   -0.860623   -0.077562
     11          6           0       -1.824051    0.479968   -0.505428
     12          6           0       -3.184662    0.024995   -0.982990
     13          1           0        3.020518   -0.879616    1.131042
     14          1           0        4.429605   -1.313557    0.153224
     15          1           0        2.842141   -1.995914   -0.230317
     16          1           0        3.655703    0.960702   -0.498987
     17          1           0        3.438532   -0.160319   -1.834134
     18          1           0        1.494723    1.262945   -1.685116
     19          1           0        1.017063   -0.373432   -1.278489
     20          1           0        1.850884    1.290785    1.061076
     21          1           0        0.105352    2.942915    1.042743
     22          1           0       -0.125276    2.644590   -0.692965
     23          1           0       -1.904096    1.513026    1.409448
     24          1           0        0.089634    0.310145    2.239359
     25          1           0        0.755921   -1.818359    0.762112
     26          1           0       -0.582566   -1.803479    1.886002
     27          1           0       -0.787872   -1.872598   -1.158943
     28          1           0       -1.533233   -2.906221    0.064916
     29          1           0       -2.756163   -0.815269    0.939494
     30          1           0       -1.106971    0.360625   -1.318467
     31          1           0       -3.263966   -0.164114   -2.051288
     32          1           0       -4.099380    0.409424   -0.537243
 ---------------------------------------------------------------------

 SCF Done:  E(UB3LYP) =  -469.386056409     A.U. after   33 cycles
 SCF Done:  E(UB3LYP) =  -469.386056409     a.u. after    1 cycles

 The electronic state is 2-A.
 Alpha  occ. eigenvalues --  -10.08572 -10.07195 -10.06986 -10.06680 -10.06534
 Alpha  occ. eigenvalues --  -10.06395 -10.06309 -10.06233 -10.06194 -10.06093
 Alpha  occ. eigenvalues --  -10.05613 -10.05346  -0.78117  -0.73159  -0.67957
 Alpha  occ. eigenvalues --   -0.66092  -0.60014  -0.56887  -0.55139  -0.50893
 Alpha  occ. eigenvalues --   -0.49412  -0.46616  -0.46042  -0.42321  -0.38666
 Alpha  occ. eigenvalues --   -0.36865  -0.34972  -0.34620  -0.34103  -0.32990
 Alpha  occ. eigenvalues --   -0.31151  -0.30170  -0.29986  -0.27364  -0.26053
 Alpha  occ. eigenvalues --   -0.25729  -0.25535  -0.24688  -0.23495  -0.22834
 Alpha  occ. eigenvalues --   -0.22088  -0.21449  -0.19984  -0.18308  -0.17016
 Alpha  occ. eigenvalues --   -0.13610   0.04794
 Alpha virt. eigenvalues --    0.06611   0.07120   0.07522   0.08432   0.08971
 Alpha virt. eigenvalues --    0.09353   0.09643   0.10160   0.10783   0.11569
 Alpha virt. eigenvalues --    0.12011   0.12441   0.12940   0.13269   0.13643

  Beta  occ. eigenvalues --  -10.08560 -10.07184 -10.06972 -10.06672 -10.06533
  Beta  occ. eigenvalues --  -10.06385 -10.06298 -10.06213 -10.06178 -10.06086
  Beta  occ. eigenvalues --  -10.05600 -10.05315  -0.78100  -0.73133  -0.67924
  Beta  occ. eigenvalues --   -0.66067  -0.59977  -0.56853  -0.55102  -0.50850
  Beta  occ. eigenvalues --   -0.49361  -0.46577  -0.45993  -0.42288  -0.38612
  Beta  occ. eigenvalues --   -0.36838  -0.34934  -0.34592  -0.34070  -0.32955
  Beta  occ. eigenvalues --   -0.31127  -0.30144  -0.29951  -0.27331  -0.26026
  Beta  occ. eigenvalues --   -0.25699  -0.25500  -0.24654  -0.23456  -0.22802
  Beta  occ. eigenvalues --   -0.22062  -0.21419  -0.19958  -0.18275  -0.16992
  Beta  occ. eigenvalues --   -0.13594
  Beta virt. eigenvalues --    0.06874   0.07521   0.07667   0.08052   0.08965
  Beta virt. eigenvalues --    0.09417   0.09865   0.10161   0.10444   0.11368
  Beta virt. eigenvalues --    0.12043   0.12303   0.12873   0.13197   0.13589

 Mulliken charges and spin densities:
               1          2
     1  C    0.782550  -1.346806
     2  C   -0.997789   0.513278
     3  C   -0.178065   0.086381
     4  C   -0.178626   0.428606
     5  C    1.545591  -2.385814
     6  C   -2.578045   2.790216
     7  C    1.400343  -1.517737
     8  C    0.086365  -0.594140
     9  C    0.317024  -0.902643
    10  C   -0.681922   0.935225
    11  C    0.197672  -0.259191
    12  C    1.713012  -2.251650
    13  H   -0.222082   0.370692
    14  H   -0.526646   0.676821
    15  H   -0.042115   0.176354
    16  H   -0.016442   0.143894
    17  H   -0.386587   0.530473
    18  H    0.095248   0.061661
    19  H    0.222403  -0.139905
    20  H    0.150278   0.080694
    21  H   -0.415149   0.553918
    22  H    0.173864  -0.040725
    23  H   -0.665647   0.921706
    24  H   -0.487627   0.711644
    25  H    0.227659  -0.117724
    26  H   -0.194055   0.369574
    27  H   -0.058209   0.214701
    28  H   -0.178584   0.321492
    29  H   -0.047753   0.195916
    30  H    0.008241   0.148021
    31  H    0.040269   0.086638
    32  H   -0.105175   0.238429
 Sum of Mulliken charges =  -1.00000   1.00000

 Dipole moment (field-independent basis, Debye):
    X=             -2.5044    Y=             -0.0274    Z=             -4.1081  Tot=              4.8113
 Quadrupole moment (field-independent basis, Debye-Ang):
   XX=           -148.2189   YY=           -120.4478   ZZ=           -118.0889
   XY=              6.1173   XZ=              4.7681   YZ=             -5.2009

 Summary of Natural Population Analysis:

                                       Natural Population
                Natural  -----------------------------------------------
    Atom  No    Charge         Core      Valence    Rydberg      Total
 -----------------------------------------------------------------------
      C    1   -0.28715      0.99967     2.28241    0.00508     3.28715
      C    2   -0.18551      0.99964     2.17745    0.00842     3.18551
      C    3   -0.19232      0.99960     2.18414    0.00858     3.19232
      C    4   -0.10976      0.99958     2.09759    0.01258     3.10976
      C    5   -0.18365      0.99962     2.17452    0.00951     3.18365
      C    6   -0.10152      0.99955     2.08871    0.01326     3.10152
      C    7   -0.09908      0.99958     2.08679    0.01271     3.09908
      C    8   -0.19606      0.99960     2.18763    0.00883     3.19606
      C    9   -0.18332      0.99960     2.17505    0.00867     3.18332
      C   10   -0.11747      0.99952     2.10752    0.01043     3.11747
      C   11   -0.11675      0.99950     2.10605    0.01120     3.11675
      C   12   -0.17950      0.99958     2.17207    0.00785     3.17950
      H   13    0.09827      0.00000     0.40049    0.00123     0.40173
      H   14    0.09959      0.00000     0.39914    0.00127     0.40041
      H   15    0.09444      0.00000     0.40420    0.00135     0.40556
      H   16    0.09225      0.00000     0.40639    0.00135     0.40775
      H   17    0.09332      0.00000     0.40564    0.00104     0.40668
      H   18    0.09591      0.00000     0.40291    0.00118     0.40409
      H   19    0.09502      0.00000     0.40322    0.00176     0.40498
      H   20    0.09756      0.00000     0.40081    0.00163     0.40244
      H   21    0.10140      0.00000     0.39733    0.00126     0.39860
      H   22    0.09296      0.00000     0.40591    0.00113     0.40704
      H   23    0.10160      0.00000     0.39631    0.00209     0.39840
      H   24    0.10376      0.00000     0.39414    0.00210     0.39624
      H   25    0.10401      0.00000     0.39453    0.00145     0.39599
      H   26    0.09889      0.00000     0.39966    0.00145     0.40111
      H   27    0.09311      0.00000     0.40546    0.00143     0.40689
      H   28    0.09562      0.00000     0.40339    0.00099     0.40438
      H   29    0.09578      0.00000     0.40213    0.00208     0.40422
      H   30    0.09491      0.00000     0.40249    0.00260     0.40509
      H   31    0.09990      0.00000     0.39913    0.00097     0.40010
      H   32    0.10376      0.00000     0.39513    0.00111     0.39624
 =======================================================================
   * Total *    0.00000     11.99504    33.85837    0.14659    46.00000

 Normal termination of Gaussian 16 at Wed Dec  9 18:19:13 2020.
