 Gaussian 16, Revision A.03,

 -----------------------------------------------------------
 # opt freq B3LYP/6-31G(d) empiricaldispersion=gd3bj scf=xqc
 -----------------------------------------------------------

 -------------------------------
 CID_131514287_JID_4363_neutraal
 -------------------------------
 Symbolic Z-matrix:
 Charge =  0 Multiplicity = 1

 SCF Done:  E(RB3LYP) =  -687.803038292     A.U. after   14 cycles
 SCF Done:  E(RB3LYP) =  -687.811382064     A.U. after   12 cycles
 SCF Done:  E(RB3LYP) =  -687.813600390     A.U. after   12 cycles
 SCF Done:  E(RB3LYP) =  -687.814080544     A.U. after   13 cycles
 SCF Done:  E(RB3LYP) =  -687.815794332     A.U. after   12 cycles
 SCF Done:  E(RB3LYP) =  -687.816317474     A.U. after   11 cycles
 SCF Done:  E(RB3LYP) =  -687.816603820     A.U. after   12 cycles
 SCF Done:  E(RB3LYP) =  -687.816671975     A.U. after   11 cycles
 SCF Done:  E(RB3LYP) =  -687.816684554     A.U. after   10 cycles
 SCF Done:  E(RB3LYP) =  -687.816688612     A.U. after    9 cycles
 SCF Done:  E(RB3LYP) =  -687.816688882     A.U. after    7 cycles
 SCF Done:  E(RB3LYP) =  -687.816688945     A.U. after    7 cycles
 Optimization completed.
    -- Stationary point found.
 Normal termination of Gaussian 16 at Thu Dec 10 09:24:57 2020.

 --------------------------------------------------------------------
 #N Geom=AllCheck Guess=TCheck SCRF=Check GenChk RB3LYP/6-31G(d) Freq
 --------------------------------------------------------------------

 Structure from the checkpoint file:  "JID_4363.chk"
 -------------------------------
 CID_131514287_JID_4363_neutraal
 -------------------------------
 Charge =  0 Multiplicity = 1

 SCF Done:  E(RB3LYP) =  -687.816688945     A.U. after    1 cycles

  Exact polarizability: 134.737   6.717 101.681  -4.482   0.349  98.330
 Approx polarizability: 158.915   6.330 153.604  -3.311  -1.523 163.329

                      1                      2                      3
                      A                      A                      A
 Frequencies --     38.7429                52.8547                92.7146
 Red. masses --      4.0658                 3.5729                 6.0249
 Frc consts  --      0.0036                 0.0059                 0.0305
 IR Inten    --      1.0606                 1.5429                 2.3393

                      4                      5                      6
                      A                      A                      A
 Frequencies --    102.1011               117.2883               148.4584
 Red. masses --      3.6316                 3.3501                 2.5932
 Frc consts  --      0.0223                 0.0272                 0.0337
 IR Inten    --      0.6243                 1.9206                 1.2098

                      7                      8                      9
                      A                      A                      A
 Frequencies --    214.8983               225.2341               237.2502
 Red. masses --      2.9893                 1.5906                 1.2796
 Frc consts  --      0.0813                 0.0475                 0.0424
 IR Inten    --      0.6980                 1.5472                 2.2417

                     10                     11                     12
                      A                      A                      A
 Frequencies --    250.4686               299.5876               301.1197
 Red. masses --      2.2119                 2.1109                 4.0617
 Frc consts  --      0.0818                 0.1116                 0.2170
 IR Inten    --      2.9408                 0.2073                 7.0498

                     13                     14                     15
                      A                      A                      A
 Frequencies --    331.4714               345.0873               376.1761
 Red. masses --      2.4085                 3.4323                 2.6278
 Frc consts  --      0.1559                 0.2408                 0.2191
 IR Inten    --      9.9263                 2.2721                11.8558

                     16                     17                     18
                      A                      A                      A
 Frequencies --    410.7415               426.8002               460.5545
 Red. masses --      3.0249                 3.6750                 3.1248
 Frc consts  --      0.3007                 0.3944                 0.3905
 IR Inten    --      3.7506                 2.6898                 7.0925

                     19                     20                     21
                      A                      A                      A
 Frequencies --    488.7088               515.5647               614.4407
 Red. masses --      3.6455                 2.9637                 3.2050
 Frc consts  --      0.5130                 0.4641                 0.7129
 IR Inten    --      8.1180                13.0054                11.7968

                     22                     23                     24
                      A                      A                      A
 Frequencies --    625.2901               700.5273               714.0993
 Red. masses --      1.8857                 2.0074                 2.5884
 Frc consts  --      0.4344                 0.5804                 0.7777
 IR Inten    --     58.8103                 4.7264                 7.5634

                     25                     26                     27
                      A                      A                      A
 Frequencies --    764.5615               770.8285               797.5152
 Red. masses --      3.5230                 3.7122                 2.7340
 Frc consts  --      1.2133                 1.2996                 1.0245
 IR Inten    --      8.3496                 8.6176                16.8941

                     28                     29                     30
                      A                      A                      A
 Frequencies --    821.4399               865.4567               879.0688
 Red. masses --      1.5197                 2.0349                 2.1665
 Frc consts  --      0.6042                 0.8980                 0.9864
 IR Inten    --      6.4464                86.3246                30.4941

                     31                     32                     33
                      A                      A                      A
 Frequencies --    905.1681               930.3915               940.6747
 Red. masses --      2.3888                 2.3180                 1.9700
 Frc consts  --      1.1532                 1.1822                 1.0271
 IR Inten    --      1.0499                 9.2499                 7.1287

                     34                     35                     36
                      A                      A                      A
 Frequencies --    963.6025               992.7008              1034.9520
 Red. masses --      1.8655                 2.0549                 2.5266
 Frc consts  --      1.0206                 1.1931                 1.5945
 IR Inten    --     38.7780                 2.1164                 7.9166

                     37                     38                     39
                      A                      A                      A
 Frequencies --   1045.2527              1109.8318              1116.8033
 Red. masses --      3.1656                 3.0410                 2.9342
 Frc consts  --      2.0377                 2.2069                 2.1562
 IR Inten    --     29.7079                 4.4890                32.0789

                     40                     41                     42
                      A                      A                      A
 Frequencies --   1131.1446              1149.0101              1161.6832
 Red. masses --      1.9788                 2.8393                 2.1077
 Frc consts  --      1.4917                 2.2086                 1.6759
 IR Inten    --     20.5955                20.2070               122.0679

                     43                     44                     45
                      A                      A                      A
 Frequencies --   1194.3297              1213.4962              1225.9020
 Red. masses --      2.8992                 1.9756                 1.7609
 Frc consts  --      2.4366                 1.7140                 1.5591
 IR Inten    --     52.4132                43.0998                54.3544

                     46                     47                     48
                      A                      A                      A
 Frequencies --   1250.8811              1288.6047              1293.9127
 Red. masses --      1.9982                 1.3600                 2.1293
 Frc consts  --      1.8421                 1.3306                 2.1004
 IR Inten    --    166.0181                23.7070               156.3238

                     49                     50                     51
                      A                      A                      A
 Frequencies --   1312.9224              1343.0947              1348.4560
 Red. masses --      1.8204                 1.1492                 1.2198
 Frc consts  --      1.8488                 1.2214                 1.3068
 IR Inten    --    116.6351                28.8462                 5.0079

                     52                     53                     54
                      A                      A                      A
 Frequencies --   1373.1765              1409.3414              1417.8687
 Red. masses --      1.2933                 1.3330                 1.2582
 Frc consts  --      1.4369                 1.5600                 1.4902
 IR Inten    --      4.7247                20.1473                10.7458

                     55                     56                     57
                      A                      A                      A
 Frequencies --   1428.6666              1444.7763              1496.3451
 Red. masses --      1.2420                 1.3302                 1.1539
 Frc consts  --      1.4937                 1.6359                 1.5223
 IR Inten    --      8.4357                14.5980                44.9108

                     58                     59                     60
                      A                      A                      A
 Frequencies --   1506.9206              1512.8373              1514.9659
 Red. masses --      1.1686                 1.0984                 1.1435
 Frc consts  --      1.5635                 1.4812                 1.5463
 IR Inten    --     21.6805                 0.0929                28.6909

                     61                     62                     63
                      A                      A                      A
 Frequencies --   1516.5734              1516.8823              1520.6317
 Red. masses --      1.0713                 1.0982                 1.0999
 Frc consts  --      1.4518                 1.4888                 1.4985
 IR Inten    --      4.3354                26.5338                 3.8874

                     64                     65                     66
                      A                      A                      A
 Frequencies --   1530.4480              1537.2675              1544.0302
 Red. masses --      1.1026                 1.0611                 1.1124
 Frc consts  --      1.5217                 1.4774                 1.5626
 IR Inten    --     32.8889                 8.1923                 8.2220

                     67                     68                     69
                      A                      A                      A
 Frequencies --   1809.4530              1843.7897              3005.4031
 Red. masses --     10.9536                 9.2999                 1.0709
 Frc consts  --     21.1301                18.6274                 5.6991
 IR Inten    --    184.4866               219.7005                41.6335

                     70                     71                     72
                      A                      A                      A
 Frequencies --   3053.0786              3059.3959              3062.9189
 Red. masses --      1.0673                 1.0354                 1.0359
 Frc consts  --      5.8615                 5.7101                 5.7260
 IR Inten    --     24.1609                23.9630                15.1061

                     73                     74                     75
                      A                      A                      A
 Frequencies --   3100.7901              3101.2188              3104.1269
 Red. masses --      1.0908                 1.0609                 1.0630
 Frc consts  --      6.1795                 6.0117                 6.0348
 IR Inten    --     31.3368                16.4452                22.0899

                     76                     77                     78
                      A                      A                      A
 Frequencies --   3124.9221              3129.8086              3140.1757
 Red. masses --      1.1014                 1.1011                 1.1030
 Frc consts  --      6.3371                 6.3550                 6.4084
 IR Inten    --     30.8099                23.5542                17.9867

                     79                     80                     81
                      A                      A                      A
 Frequencies --   3141.3703              3143.0825              3164.0370
 Red. masses --      1.0974                 1.1035                 1.1091
 Frc consts  --      6.3804                 6.4231                 6.5420
 IR Inten    --     16.3197                 6.1624                23.9556

                     82                     83                     84
                      A                      A                      A
 Frequencies --   3165.6538              3504.8421              3563.7117
 Red. masses --      1.1049                 1.0736                 1.0752
 Frc consts  --      6.5237                 7.7699                 8.0451
 IR Inten    --      6.0494                 0.6237                29.6714

 - Thermochemistry -
 -------------------
 Temperature   298.150 Kelvin.  Pressure   1.00000 Atm.
 Atom     1 has atomic number  6 and mass  12.00000

 Molecular mass:   200.11609 amu.
 Principal axes and moments of inertia in atomic units:
                           1         2         3
     Eigenvalues --  1223.066504549.190504813.47225
           X            0.99980   0.01975  -0.00024
           Y           -0.01972   0.99883   0.04405
           Z            0.00111  -0.04404   0.99903
 This molecule is an asymmetric top.
 Rotational symmetry number  1.
 Warning -- assumption of classical behavior for rotation
           may cause significant error
 Rotational temperatures (Kelvin)      0.07082     0.01904     0.01799
 Rotational constants (GHZ):           1.47559     0.39672     0.37494
 Zero-point vibrational energy     678464.3 (Joules/Mol)
                                  162.15686 (Kcal/Mol)
 Warning -- explicit consideration of  21 degrees of freedom as
           vibrations may cause significant error
 Vibrational temperatures:     55.74    76.05   133.40   146.90   168.75
          (Kelvin)            213.60   309.19   324.06   341.35   360.37
                              431.04   433.24   476.91   496.50   541.23
                              590.97   614.07   662.64   703.14   741.78
                              884.04   899.65  1007.90  1027.43  1100.03
                             1109.05  1147.45  1181.87  1245.20  1264.78
                             1302.33  1338.63  1353.42  1386.41  1428.28
                             1489.07  1503.89  1596.80  1606.83  1627.46
                             1653.17  1671.40  1718.37  1745.95  1763.80
                             1799.74  1854.01  1861.65  1889.00  1932.41
                             1940.13  1975.69  2027.73  2040.00  2055.53
                             2078.71  2152.91  2168.12  2176.64  2179.70
                             2182.01  2182.46  2187.85  2201.97  2211.79
                             2221.52  2603.40  2652.80  4324.10  4392.70
                             4401.79  4406.86  4461.35  4461.96  4466.15
                             4496.07  4503.10  4518.01  4519.73  4522.19
                             4552.34  4554.67  5042.69  5127.39

 Zero-point correction=                           0.258413 (Hartree/Particle)
 Thermal correction to Energy=                    0.272580
 Thermal correction to Enthalpy=                  0.273524
 Thermal correction to Gibbs Free Energy=         0.217414
 Sum of electronic and zero-point Energies=           -687.558276
 Sum of electronic and thermal Energies=              -687.544109
 Sum of electronic and thermal Enthalpies=            -687.543165
 Sum of electronic and thermal Free Energies=         -687.599275

                     E (Thermal)             CV                S
                      KCal/Mol        Cal/Mol-Kelvin    Cal/Mol-Kelvin
 Total                  171.047             53.809            118.094
 Electronic               0.000              0.000              0.000
 Translational            0.889              2.981             41.786
 Rotational               0.889              2.981             31.660
 Vibrational            169.269             47.847             44.647
 Vibration     1          0.594              1.981              5.322
 Vibration     2          0.596              1.976              4.708
 Vibration     3          0.602              1.954              3.602
 Vibration     4          0.604              1.947              3.414
 Vibration     5          0.608              1.935              3.145
 Vibration     6          0.618              1.904              2.692
 Vibration     7          0.645              1.818              2.002
 Vibration     8          0.650              1.803              1.917
 Vibration     9          0.656              1.784              1.823
 Vibration    10          0.663              1.762              1.727
 Vibration    11          0.692              1.674              1.419
 Vibration    12          0.693              1.672              1.411
 Vibration    13          0.714              1.613              1.253
 Vibration    14          0.723              1.585              1.189
 Vibration    15          0.747              1.521              1.055
 Vibration    16          0.775              1.447              0.924
 Vibration    17          0.788              1.412              0.869
 Vibration    18          0.818              1.338              0.764
 Vibration    19          0.845              1.275              0.687
 Vibration    20          0.871              1.216              0.620
 Vibration    21          0.974              1.001              0.425

                           ! Non-Optimized Parameters !
 Normal termination of Gaussian 16 at Thu Dec 10 09:34:38 2020.

 ----------------------------------------------------------------------
 # B3LYP/6-311++G(d,p) empiricaldispersion=gd3bj scf=xqc pop=npa geom=c
 heck
 ----------------------------------------------------------------------

 ---------------------------------------
 CID_131514287_JID_4363_Energie_neutraal
 ---------------------------------------
 Structure from the checkpoint file:  "JID_4363.chk"
 Charge =  0 Multiplicity = 1

 SCF Done:  E(RB3LYP) =  -688.023391981     A.U. after   14 cycles
 Normal termination of Gaussian 16 at Thu Dec 10 09:38:54 2020.

 ----------------------------------------------------------------------
 # B3LYP/6-311++G(d,p) empiricaldispersion=gd3bj scf=xqc pop=npa geom=c
 heck
 ----------------------------------------------------------------------

 -------------------------------------
 CID_131514287_JID_4363_Energie_kation
 -------------------------------------
 Structure from the checkpoint file:  "JID_4363.chk"
 Charge =  1 Multiplicity = 2

 SCF Done:  E(UB3LYP) =  -687.713313499     A.U. after   29 cycles
 Normal termination of Gaussian 16 at Thu Dec 10 09:51:10 2020.
 Gaussian 16:  ES64L-G16RevA.03 25-Dec-2016

 ----------------------------------------------------------------------
 # B3LYP/6-311++G(d,p) empiricaldispersion=gd3bj scf=xqc pop=npa geom=c
 heck
 ----------------------------------------------------------------------

 ------------------------------------
 CID_131514287_JID_4363_Energie_anion
 ------------------------------------
 Structure from the checkpoint file:  "JID_4363.chk"
 Charge = -1 Multiplicity = 2

                         Standard orientation:
 ---------------------------------------------------------------------
 Center     Atomic      Atomic             Coordinates (Angstroms)
 Number     Number       Type             X           Y           Z
 ---------------------------------------------------------------------
      1          6           0       -4.426753    0.122102    0.167114
      2          6           0       -3.466028   -0.925636   -0.369207
      3          8           0       -2.136754   -0.742755    0.181815
      4          6           0       -1.360000    0.176820   -0.416951
      5          8           0       -1.696696    0.833745   -1.380707
      6          6           0       -0.019456    0.330026    0.305296
      7          6           0        0.525284   -1.061643    0.755147
      8          7           0        1.953973   -0.961781    1.064378
      9          6           0        2.751374   -0.834952   -0.098652
     10          8           0        2.834290   -1.725331   -0.916471
     11          6           0        3.340617    0.553679   -0.287629
     12          6           0        2.149097    1.554809   -0.240191
     13          7           0        0.894898    0.932097   -0.673278
     14          6           0       -0.307205    1.215373    1.545831
     15          1           0       -4.449180    0.103884    1.261527
     16          1           0       -5.438782   -0.078421   -0.201674
     17          1           0       -4.130840    1.120039   -0.167081
     18          1           0       -3.747106   -1.932976   -0.055631
     19          1           0       -3.399268   -0.887105   -1.458634
     20          1           0       -0.025604   -1.427345    1.624890
     21          1           0        0.421762   -1.790490   -0.049494
     22          1           0        2.123101   -0.195905    1.712318
     23          1           0        3.845213    0.570817   -1.255764
     24          1           0        4.078034    0.793616    0.490101
     25          1           0        2.359259    2.384410   -0.921444
     26          1           0        2.075063    1.999000    0.763891
     27          1           0        0.357650    1.528778   -1.292116
     28          1           0       -0.622188    2.216583    1.234428
     29          1           0       -1.097896    0.771169    2.157321
     30          1           0        0.580376    1.323004    2.178016
 ---------------------------------------------------------------------

 SCF Done:  E(UB3LYP) =  -688.014656454     A.U. after   31 cycles

 The electronic state is 2-A.
 Alpha  occ. eigenvalues --  -19.08273 -19.02824 -19.00126 -14.22205 -14.20432
 Alpha  occ. eigenvalues --  -10.21474 -10.17453 -10.14236 -10.13246 -10.10899
 Alpha  occ. eigenvalues --  -10.10744 -10.07898 -10.07673 -10.07137  -1.02426
 Alpha  occ. eigenvalues --   -0.94818  -0.93817  -0.84110  -0.79839  -0.71345
 Alpha  occ. eigenvalues --   -0.68185  -0.64098  -0.59285  -0.58200  -0.56000
 Alpha  occ. eigenvalues --   -0.49621  -0.46858  -0.46135  -0.45018  -0.41436
 Alpha  occ. eigenvalues --   -0.39771  -0.38733  -0.38182  -0.36990  -0.35980
 Alpha  occ. eigenvalues --   -0.35149  -0.34060  -0.32352  -0.31858  -0.31369
 Alpha  occ. eigenvalues --   -0.30206  -0.30106  -0.29482  -0.28527  -0.28040
 Alpha  occ. eigenvalues --   -0.27029  -0.26054  -0.25294  -0.24360  -0.22304
 Alpha  occ. eigenvalues --   -0.20091  -0.16869  -0.15488  -0.13320   0.04020
 Alpha virt. eigenvalues --    0.05581   0.07543   0.07969   0.08261   0.08548
 Alpha virt. eigenvalues --    0.09012   0.09206   0.09940   0.10600   0.11173
 Alpha virt. eigenvalues --    0.11529   0.11893   0.12413   0.12852   0.13697

  Beta  occ. eigenvalues --  -19.08267 -19.02818 -19.00102 -14.22185 -14.20423
  Beta  occ. eigenvalues --  -10.21473 -10.17430 -10.14220 -10.13242 -10.10892
  Beta  occ. eigenvalues --  -10.10706 -10.07884 -10.07634 -10.07084  -1.02417
  Beta  occ. eigenvalues --   -0.94768  -0.93808  -0.84076  -0.79804  -0.71314
  Beta  occ. eigenvalues --   -0.68144  -0.64046  -0.59225  -0.58148  -0.55931
  Beta  occ. eigenvalues --   -0.49555  -0.46791  -0.46096  -0.44993  -0.41403
  Beta  occ. eigenvalues --   -0.39730  -0.38689  -0.38141  -0.36956  -0.35937
  Beta  occ. eigenvalues --   -0.35113  -0.34004  -0.32314  -0.31818  -0.31330
  Beta  occ. eigenvalues --   -0.30162  -0.30064  -0.29435  -0.28477  -0.28002
  Beta  occ. eigenvalues --   -0.26961  -0.26023  -0.25265  -0.24291  -0.22279
  Beta  occ. eigenvalues --   -0.20073  -0.16840  -0.15445  -0.13283
  Beta virt. eigenvalues --    0.06336   0.06884   0.08201   0.08376   0.08604
  Beta virt. eigenvalues --    0.09063   0.09237   0.09569   0.10425   0.11134
  Beta virt. eigenvalues --    0.11437   0.11839   0.12174   0.12652   0.13211

 Mulliken charges and spin densities:
               1          2
     1  C    0.643258  -1.030307
     2  C   -0.036151  -0.079332
     3  O    0.016587   0.033576
     4  C    0.526981  -0.651061
     5  O   -0.241001   0.013552
     6  C   -2.085320   1.532523
     7  C   -0.276997  -0.301935
     8  N    0.085285   0.026304
     9  C    0.086236   0.000789
    10  O   -0.310126   0.010391
    11  C   -0.154165  -0.307326
    12  C    0.841578  -1.012812
    13  N   -0.109504   0.099030
    14  C    1.517873  -1.828366
    15  H   -0.122061   0.275789
    16  H   -0.416797   0.566087
    17  H   -0.066426   0.245675
    18  H   -0.271795   0.440336
    19  H    0.192704  -0.026797
    20  H   -0.010476   0.234921
    21  H    0.203320   0.028097
    22  H    0.141631   0.104725
    23  H    0.237769  -0.074271
    24  H   -0.408544   0.598371
    25  H   -0.377341   0.530986
    26  H   -0.018548   0.181943
    27  H    0.234975   0.058581
    28  H   -0.207010   0.411549
    29  H    0.037684   0.099501
    30  H   -0.653616   0.819482
 Sum of Mulliken charges =  -1.00000   1.00000

 Dipole moment (field-independent basis, Debye):
    X=             -0.0541    Y=             -1.2399    Z=             -2.5624  Tot=              2.8471
 Quadrupole moment (field-independent basis, Debye-Ang):
   XX=           -162.3601   YY=           -126.1001   ZZ=           -123.2733
   XY=             -0.2370   XZ=             -0.7334   YZ=             -6.1204

 Summary of Natural Population Analysis:

                                       Natural Population
                Natural  -----------------------------------------------
    Atom  No    Charge         Core      Valence    Rydberg      Total
 -----------------------------------------------------------------------
      C    1   -0.30004      0.99966     2.29564    0.00474     3.30004
      C    2   -0.01593      0.99957     2.00450    0.01185     3.01593
      O    3   -0.28011      0.99986     3.27150    0.00875     4.28011
      C    4    0.41981      0.99960     1.55310    0.02749     2.58019
      O    5   -0.31107      0.99987     3.30578    0.00542     4.31107
      C    6    0.01819      0.99953     1.96837    0.01391     2.98181
      C    7   -0.08665      0.99956     2.07409    0.01300     3.08665
      N    8   -0.34228      0.99969     2.83136    0.01122     3.84228
      C    9    0.36420      0.99967     1.61090    0.02522     2.63580
      O   10   -0.29671      0.99986     3.29080    0.00605     4.29671
      C   11   -0.24057      0.99957     2.23228    0.00871     3.24057
      C   12   -0.09000      0.99962     2.07826    0.01212     3.09000
      N   13   -0.35601      0.99970     2.84521    0.01110     3.85601
      C   14   -0.29543      0.99962     2.28842    0.00739     3.29543
      H   15    0.10326      0.00000     0.39532    0.00142     0.39674
      H   16    0.10370      0.00000     0.39480    0.00150     0.39630
      H   17    0.10603      0.00000     0.39279    0.00118     0.39397
      H   18    0.09203      0.00000     0.40678    0.00119     0.40797
      H   19    0.09418      0.00000     0.40466    0.00116     0.40582
      H   20    0.10234      0.00000     0.39637    0.00129     0.39766
      H   21    0.10864      0.00000     0.39007    0.00129     0.39136
      H   22    0.18150      0.00000     0.31466    0.00384     0.31850
      H   23    0.10683      0.00000     0.39215    0.00102     0.39317
      H   24    0.10907      0.00000     0.38918    0.00175     0.39093
      H   25    0.10003      0.00000     0.39889    0.00108     0.39997
      H   26    0.09045      0.00000     0.40605    0.00350     0.40955
      H   27    0.19582      0.00000     0.30194    0.00224     0.30418
      H   28    0.10628      0.00000     0.39223    0.00149     0.39372
      H   29    0.10860      0.00000     0.38973    0.00166     0.39140
      H   30    0.10383      0.00000     0.39372    0.00245     0.39617
 =======================================================================
   * Total *    0.00000     13.99539    39.80956    0.19505    54.00000

 Normal termination of Gaussian 16 at Thu Dec 10 10:04:36 2020.
