 Gaussian 16, Revision A.03,

 -----------------------------------------------------------
 # opt freq B3LYP/6-31G(d) empiricaldispersion=gd3bj scf=xqc
 -----------------------------------------------------------

 -------------------------------
 CID_141282608_JID_6275_neutraal
 -------------------------------
 Symbolic Z-matrix:
 Charge =  0 Multiplicity = 1

 SCF Done:  E(RB3LYP) =  -723.043161478     A.U. after   15 cycles
 SCF Done:  E(RB3LYP) =  -723.047231957     A.U. after   12 cycles
 SCF Done:  E(RB3LYP) =  -723.047840881     A.U. after   12 cycles
 SCF Done:  E(RB3LYP) =  -723.048069556     A.U. after   12 cycles
 SCF Done:  E(RB3LYP) =  -723.048289227     A.U. after   12 cycles
 SCF Done:  E(RB3LYP) =  -723.048505026     A.U. after   13 cycles
 SCF Done:  E(RB3LYP) =  -723.048680331     A.U. after   11 cycles
 SCF Done:  E(RB3LYP) =  -723.049076585     A.U. after   12 cycles
 SCF Done:  E(RB3LYP) =  -723.049144630     A.U. after   12 cycles
 SCF Done:  E(RB3LYP) =  -723.049118925     A.U. after   12 cycles
 SCF Done:  E(RB3LYP) =  -723.049324992     A.U. after   11 cycles
 SCF Done:  E(RB3LYP) =  -723.049322795     A.U. after   10 cycles
 SCF Done:  E(RB3LYP) =  -723.049325531     A.U. after   10 cycles
 SCF Done:  E(RB3LYP) =  -723.049325483     A.U. after    8 cycles
 SCF Done:  E(RB3LYP) =  -723.049325541     A.U. after    7 cycles
 Optimization completed.
    -- Stationary point found.
 Normal termination of Gaussian 16 at Thu Dec 10 22:24:22 2020.

 --------------------------------------------------------------------
 #N Geom=AllCheck Guess=TCheck SCRF=Check GenChk RB3LYP/6-31G(d) Freq
 --------------------------------------------------------------------

 Structure from the checkpoint file:  "JID_6275.chk"
 -------------------------------
 CID_141282608_JID_6275_neutraal
 -------------------------------
 Charge =  0 Multiplicity = 1

 SCF Done:  E(RB3LYP) =  -723.049325541     A.U. after    1 cycles

  Exact polarizability: 161.533  -2.970 148.708  -3.847  -0.542 100.485
 Approx polarizability: 211.529  -4.998 265.966  -5.959  -3.123 146.400

                      1                      2                      3
                      A                      A                      A
 Frequencies --     21.6458                37.4408                53.1472
 Red. masses --      3.8080                 4.0299                 4.4402
 Frc consts  --      0.0011                 0.0033                 0.0074
 IR Inten    --      0.0250                 2.3052                 0.3142

                      4                      5                      6
                      A                      A                      A
 Frequencies --    105.5388               122.0674               136.4563
 Red. masses --      4.6926                 7.1927                 4.4746
 Frc consts  --      0.0308                 0.0631                 0.0491
 IR Inten    --      0.1483                 8.2176                 1.0805

                      7                      8                      9
                      A                      A                      A
 Frequencies --    174.5052               181.7865               238.8474
 Red. masses --      5.6751                 3.5030                 2.1788
 Frc consts  --      0.1018                 0.0682                 0.0732
 IR Inten    --      1.2767                 1.9999                 3.6495

                     10                     11                     12
                      A                      A                      A
 Frequencies --    257.0713               273.0654               280.2570
 Red. masses --      3.0412                 1.4011                 2.6739
 Frc consts  --      0.1184                 0.0616                 0.1237
 IR Inten    --      2.3360                 0.6575                 8.4397

                     13                     14                     15
                      A                      A                      A
 Frequencies --    350.1681               362.4426               377.3277
 Red. masses --      1.3553                 2.6362                 2.0485
 Frc consts  --      0.0979                 0.2040                 0.1718
 IR Inten    --     76.1324                25.0009                 5.9012

                     16                     17                     18
                      A                      A                      A
 Frequencies --    403.7210               427.8649               464.7756
 Red. masses --      2.6485                 4.4832                 3.5597
 Frc consts  --      0.2543                 0.4836                 0.4531
 IR Inten    --     23.4980                18.6575                 3.6102

                     19                     20                     21
                      A                      A                      A
 Frequencies --    491.9096               508.5024               515.1351
 Red. masses --      3.7219                 2.8128                 6.4615
 Frc consts  --      0.5306                 0.4285                 1.0102
 IR Inten    --      2.7564                31.3032                11.8040

                     22                     23                     24
                      A                      A                      A
 Frequencies --    552.3470               594.0179               660.9496
 Red. masses --      2.6596                 4.1598                 5.5868
 Frc consts  --      0.4781                 0.8648                 1.4380
 IR Inten    --      3.5227                 5.5475                 3.0633

                     25                     26                     27
                      A                      A                      A
 Frequencies --    683.5713               697.4993               742.2091
 Red. masses --      7.0016                 6.0058                 3.2163
 Frc consts  --      1.9276                 1.7215                 1.0439
 IR Inten    --      4.6084                 4.7162                 9.2745

                     28                     29                     30
                      A                      A                      A
 Frequencies --    754.6690               817.4510               833.6019
 Red. masses --      2.4094                 1.6088                 2.4711
 Frc consts  --      0.8085                 0.6334                 1.0117
 IR Inten    --     70.3830                 0.9879                21.1353

                     31                     32                     33
                      A                      A                      A
 Frequencies --    849.9933               879.4582               894.7901
 Red. masses --      2.4446                 1.3039                 2.3867
 Frc consts  --      1.0406                 0.5942                 1.1259
 IR Inten    --      2.2329                11.1895                 1.2446

                     34                     35                     36
                      A                      A                      A
 Frequencies --    914.9497               925.7010              1017.7148
 Red. masses --      2.5092                 2.0820                 3.1744
 Frc consts  --      1.2376                 1.0512                 1.9371
 IR Inten    --     19.1451                 2.2035                46.2043

                     37                     38                     39
                      A                      A                      A
 Frequencies --   1035.4183              1045.9793              1064.1636
 Red. masses --      1.4631                 1.8293                 2.2508
 Frc consts  --      0.9242                 1.1792                 1.5018
 IR Inten    --      1.2150                43.3679                 5.0688

                     40                     41                     42
                      A                      A                      A
 Frequencies --   1075.6011              1087.6153              1112.1797
 Red. masses --      1.7138                 1.9005                 1.9350
 Frc consts  --      1.1682                 1.3246                 1.4102
 IR Inten    --      5.7470                18.4515                14.6864

                     43                     44                     45
                      A                      A                      A
 Frequencies --   1127.4262              1135.1657              1156.9725
 Red. masses --      2.2131                 2.5098                 3.6267
 Frc consts  --      1.6574                 1.9055                 2.8603
 IR Inten    --     24.6464                24.4598                14.9421

                     46                     47                     48
                      A                      A                      A
 Frequencies --   1197.4167              1200.7494              1212.8365
 Red. masses --      2.2098                 1.2614                 2.0255
 Frc consts  --      1.8668                 1.0715                 1.7554
 IR Inten    --     37.8929                 9.6633                 1.2435

                     49                     50                     51
                      A                      A                      A
 Frequencies --   1228.3033              1274.3418              1307.4949
 Red. masses --      1.1455                 1.5820                 1.5048
 Frc consts  --      1.0183                 1.5136                 1.5157
 IR Inten    --      7.7121                13.0504                 6.2992

                     52                     53                     54
                      A                      A                      A
 Frequencies --   1328.1696              1340.8186              1347.3491
 Red. masses --      1.5478                 1.6634                 1.5197
 Frc consts  --      1.6087                 1.7620                 1.6255
 IR Inten    --      6.2409                15.1854                35.4572

                     55                     56                     57
                      A                      A                      A
 Frequencies --   1356.2882              1372.7741              1389.2321
 Red. masses --      1.7029                 1.2899                 3.8209
 Frc consts  --      1.8456                 1.4322                 4.3448
 IR Inten    --      8.1403                29.5289                58.0006

                     58                     59                     60
                      A                      A                      A
 Frequencies --   1393.9817              1398.3278              1412.1384
 Red. masses --      1.4002                 4.1038                 1.6164
 Frc consts  --      1.6030                 4.7278                 1.8992
 IR Inten    --      9.7701                 5.1447                 0.8220

                     61                     62                     63
                      A                      A                      A
 Frequencies --   1432.7598              1435.7257              1437.5217
 Red. masses --      1.2473                 1.5323                 1.2798
 Frc consts  --      1.5085                 1.8609                 1.5582
 IR Inten    --     59.4324                14.6039                15.4963

                     64                     65                     66
                      A                      A                      A
 Frequencies --   1458.5636              1479.9080              1492.0027
 Red. masses --      1.6059                 4.1600                 1.1067
 Frc consts  --      2.0129                 5.3680                 1.4515
 IR Inten    --      8.1726                 1.2096                 8.8292

                     67                     68                     69
                      A                      A                      A
 Frequencies --   1503.5945              1508.2551              1522.1578
 Red. masses --      1.2761                 1.1042                 1.0654
 Frc consts  --      1.6997                 1.4800                 1.4544
 IR Inten    --      0.6116                 5.5672                 0.6395

                     70                     71                     72
                      A                      A                      A
 Frequencies --   1527.3325              1529.3230              1545.5310
 Red. masses --      1.0514                 1.1081                 1.1009
 Frc consts  --      1.4451                 1.5270                 1.5494
 IR Inten    --     10.7145                 0.2673                 9.5740

                     73                     74                     75
                      A                      A                      A
 Frequencies --   1584.2406              2342.5254              2951.7689
 Red. masses --      6.6524                12.6573                 1.0727
 Frc consts  --      9.8373                40.9222                 5.5068
 IR Inten    --      5.1170                44.3517                62.8247

                     76                     77                     78
                      A                      A                      A
 Frequencies --   3025.9732              3050.6146              3061.4447
 Red. masses --      1.0646                 1.0478                 1.0761
 Frc consts  --      5.7434                 5.7450                 5.9420
 IR Inten    --     34.4324                 9.0947                23.2191

                     79                     80                     81
                      A                      A                      A
 Frequencies --   3064.3207              3066.0639              3082.9851
 Red. masses --      1.0674                 1.0633                 1.0912
 Frc consts  --      5.9056                 5.8892                 6.1108
 IR Inten    --      5.0731                 6.2431                35.8890

                     82                     83                     84
                      A                      A                      A
 Frequencies --   3086.7012              3090.1686              3113.8679
 Red. masses --      1.0884                 1.0860                 1.1048
 Frc consts  --      6.1098                 6.1099                 6.3118
 IR Inten    --     59.7053                31.7327                26.5768

                     85                     86                     87
                      A                      A                      A
 Frequencies --   3120.0906              3126.4247              3149.4078
 Red. masses --      1.1030                 1.0970                 1.1034
 Frc consts  --      6.3264                 6.3177                 6.4480
 IR Inten    --     24.6682                25.9092                15.4951

                     88                     89                     90
                      A                      A                      A
 Frequencies --   3283.4075              3501.9835              3717.0443
 Red. masses --      1.0964                 1.0746                 1.0658
 Frc consts  --      6.9639                 7.7648                 8.6762
 IR Inten    --      0.8165                 1.6755                 9.3530

 - Thermochemistry -
 -------------------
 Temperature   298.150 Kelvin.  Pressure   1.00000 Atm.
 Atom     1 has atomic number  6 and mass  12.00000

 Molecular mass:   220.13241 amu.
 Principal axes and moments of inertia in atomic units:
                           1         2         3
     Eigenvalues --  1817.763685462.847006339.49969
           X            0.99997  -0.00458  -0.00660
           Y            0.00466   0.99992   0.01186
           Z            0.00655  -0.01189   0.99991
 This molecule is an asymmetric top.
 Rotational symmetry number  1.
 Warning -- assumption of classical behavior for rotation
           may cause significant error
 Rotational temperatures (Kelvin)      0.04765     0.01586     0.01366
 Rotational constants (GHZ):           0.99284     0.33037     0.28468
 Zero-point vibrational energy     714739.1 (Joules/Mol)
                                  170.82675 (Kcal/Mol)
 Warning -- explicit consideration of  23 degrees of freedom as
           vibrations may cause significant error
 Vibrational temperatures:     31.14    53.87    76.47   151.85   175.63
          (Kelvin)            196.33   251.07   261.55   343.65   369.87
                              392.88   403.23   503.81   521.47   542.89
                              580.86   615.60   668.71   707.75   731.62
                              741.16   794.70   854.66   950.96   983.51
                             1003.55  1067.87  1085.80  1176.13  1199.37
                             1222.95  1265.34  1287.40  1316.41  1331.88
                             1464.26  1489.74  1504.93  1531.09  1547.55
                             1564.84  1600.18  1622.11  1633.25  1664.63
                             1722.82  1727.61  1745.00  1767.25  1833.49
                             1881.19  1910.94  1929.14  1938.53  1951.40
                             1975.12  1998.80  2005.63  2011.88  2031.75
                             2061.42  2065.69  2068.27  2098.55  2129.26
                             2146.66  2163.34  2170.04  2190.05  2197.49
                             2200.35  2223.67  2279.37  3370.37  4246.94
                             4353.70  4389.15  4404.74  4408.87  4411.38
                             4435.73  4441.07  4446.06  4480.16  4489.11
                             4498.23  4531.30  4724.09  5038.57  5348.00

 Zero-point correction=                           0.272230 (Hartree/Particle)
 Thermal correction to Energy=                    0.287167
 Thermal correction to Enthalpy=                  0.288112
 Thermal correction to Gibbs Free Energy=         0.229021
 Sum of electronic and zero-point Energies=           -722.777096
 Sum of electronic and thermal Energies=              -722.762158
 Sum of electronic and thermal Enthalpies=            -722.761214
 Sum of electronic and thermal Free Energies=         -722.820304

                     E (Thermal)             CV                S
                      KCal/Mol        Cal/Mol-Kelvin    Cal/Mol-Kelvin
 Total                  180.200             57.093            124.366
 Electronic               0.000              0.000              0.000
 Translational            0.889              2.981             42.070
 Rotational               0.889              2.981             32.509
 Vibrational            178.423             51.131             49.787
 Vibration     1          0.593              1.985              6.477
 Vibration     2          0.594              1.982              5.390
 Vibration     3          0.596              1.976              4.697
 Vibration     4          0.605              1.945              3.349
 Vibration     5          0.610              1.931              3.067
 Vibration     6          0.614              1.917              2.853
 Vibration     7          0.627              1.874              2.386
 Vibration     8          0.630              1.865              2.310
 Vibration     9          0.657              1.781              1.811
 Vibration    10          0.667              1.751              1.682
 Vibration    11          0.676              1.723              1.577
 Vibration    12          0.680              1.710              1.532
 Vibration    13          0.727              1.575              1.165
 Vibration    14          0.736              1.550              1.112
 Vibration    15          0.748              1.518              1.050
 Vibration    16          0.769              1.462              0.949
 Vibration    17          0.789              1.410              0.866
 Vibration    18          0.822              1.328              0.752
 Vibration    19          0.848              1.268              0.679
 Vibration    20          0.864              1.231              0.637
 Vibration    21          0.870              1.216              0.621
 Vibration    22          0.908              1.135              0.539
 Vibration    23          0.952              1.045              0.460

 Optimization completed.
    -- Stationary point found.
 Normal termination of Gaussian 16 at Thu Dec 10 22:34:59 2020.

 ----------------------------------------------------------------------
 # B3LYP/6-311++G(d,p) empiricaldispersion=gd3bj scf=xqc pop=npa geom=c
 heck
 ----------------------------------------------------------------------

 ---------------------------------------
 CID_141282608_JID_6275_Energie_neutraal
 ---------------------------------------
 Structure from the checkpoint file:  "JID_6275.chk"
 Charge =  0 Multiplicity = 1

 SCF Done:  E(RB3LYP) =  -723.255469568     A.U. after   16 cycles
 Normal termination of Gaussian 16 at Thu Dec 10 22:40:00 2020.

 ----------------------------------------------------------------------
 # B3LYP/6-311++G(d,p) empiricaldispersion=gd3bj scf=xqc pop=npa geom=c
 heck
 ----------------------------------------------------------------------

 -------------------------------------
 CID_141282608_JID_6275_Energie_kation
 -------------------------------------
 Structure from the checkpoint file:  "JID_6275.chk"
 Charge =  1 Multiplicity = 2

 SCF Done:  E(UB3LYP) =  -722.946639640     A.U. after   29 cycles
 Normal termination of Gaussian 16 at Thu Dec 10 22:53:33 2020.
 Gaussian 16:  ES64L-G16RevA.03 25-Dec-2016

 ----------------------------------------------------------------------
 # B3LYP/6-311++G(d,p) empiricaldispersion=gd3bj scf=xqc pop=npa geom=c
 heck
 ----------------------------------------------------------------------

 ------------------------------------
 CID_141282608_JID_6275_Energie_anion
 ------------------------------------
 Structure from the checkpoint file:  "JID_6275.chk"
 Charge = -1 Multiplicity = 2

                         Standard orientation:
 ---------------------------------------------------------------------
 Center     Atomic      Atomic             Coordinates (Angstroms)
 Number     Number       Type             X           Y           Z
 ---------------------------------------------------------------------
      1          6           0       -3.815275    0.620479    0.879490
      2          6           0       -3.340296   -0.458986   -0.095294
      3          6           0       -1.839400   -0.504568   -0.251127
      4          6           0       -0.918184    0.538760   -0.382900
      5          7           0        0.325534   -0.032626   -0.521925
      6          7           0        0.257185   -1.367448   -0.477278
      7          6           0       -1.039360   -1.660001   -0.322806
      8          6           0        1.599821    0.703740   -0.628630
      9          6           0        2.700422   -0.136315   -1.294701
     10          6           0        3.360369   -1.150300   -0.352243
     11          7           0        3.793424   -0.473255    0.875253
     12          6           0        2.655484    0.098396    1.597419
     13          6           0        2.052304    1.218550    0.751029
     14          6           0       -1.097425    1.941717   -0.415346
     15          7           0       -1.232203    3.098430   -0.441183
     16          8           0       -3.832924   -1.746184    0.276847
     17          1           0       -3.371158    0.462946    1.870410
     18          1           0       -4.904145    0.573367    0.970917
     19          1           0       -3.534440    1.622738    0.542937
     20          1           0       -3.795099   -0.274852   -1.076212
     21          1           0       -1.365427   -2.688753   -0.276397
     22          1           0        1.371742    1.561897   -1.268560
     23          1           0        2.299952   -0.643938   -2.177430
     24          1           0        3.465496    0.572792   -1.630713
     25          1           0        2.657397   -1.973703   -0.159824
     26          1           0        4.245488   -1.567430   -0.845815
     27          1           0        4.274658   -1.141110    1.473253
     28          1           0        3.012788    0.509208    2.547789
     29          1           0        1.873347   -0.648200    1.831399
     30          1           0        2.819782    1.982624    0.584243
     31          1           0        1.212589    1.696659    1.266362
     32          1           0       -3.517918   -1.919305    1.179449
 ---------------------------------------------------------------------

 SCF Done:  E(UB3LYP) =  -723.255191599     A.U. after   33 cycles
 SCF Done:  E(UB3LYP) =  -723.255191599     a.u. after    1 cycles

 The electronic state is 2-A.
 Alpha  occ. eigenvalues --  -19.01343 -14.25305 -14.19883 -14.19721 -14.16990
 Alpha  occ. eigenvalues --  -10.11899 -10.10870 -10.09015 -10.08974 -10.08600
 Alpha  occ. eigenvalues --  -10.07210 -10.06813 -10.06351 -10.06238 -10.05205
 Alpha  occ. eigenvalues --  -10.04815  -0.92809  -0.91643  -0.81235  -0.77247
 Alpha  occ. eigenvalues --   -0.73249  -0.68700  -0.65992  -0.65247  -0.62496
 Alpha  occ. eigenvalues --   -0.55279  -0.53157  -0.52401  -0.49721  -0.47699
 Alpha  occ. eigenvalues --   -0.45843  -0.41616  -0.40220  -0.37914  -0.36766
 Alpha  occ. eigenvalues --   -0.35710  -0.35099  -0.33526  -0.33050  -0.32382
 Alpha  occ. eigenvalues --   -0.31040  -0.29748  -0.29209  -0.28458  -0.27578
 Alpha  occ. eigenvalues --   -0.26598  -0.25685  -0.25034  -0.23596  -0.23349
 Alpha  occ. eigenvalues --   -0.23187  -0.22110  -0.21909  -0.20641  -0.17809
 Alpha  occ. eigenvalues --   -0.16667  -0.13256  -0.12830  -0.12375   0.04659
 Alpha virt. eigenvalues --    0.06499   0.07713   0.08252   0.08652   0.09212
 Alpha virt. eigenvalues --    0.09962   0.10373   0.10922   0.11481   0.11764
 Alpha virt. eigenvalues --    0.12389   0.12750   0.13384   0.14004   0.14432

  Beta  occ. eigenvalues --  -19.01309 -14.24949 -14.19877 -14.19455 -14.16672
  Beta  occ. eigenvalues --  -10.11904 -10.10887 -10.08969 -10.08862 -10.08598
  Beta  occ. eigenvalues --  -10.07173 -10.06805 -10.06428 -10.06210 -10.05177
  Beta  occ. eigenvalues --  -10.04697  -0.92337  -0.91533  -0.81218  -0.76769
  Beta  occ. eigenvalues --   -0.73009  -0.68316  -0.65846  -0.65200  -0.62359
  Beta  occ. eigenvalues --   -0.55120  -0.53048  -0.52340  -0.49254  -0.47641
  Beta  occ. eigenvalues --   -0.45664  -0.41574  -0.40133  -0.37797  -0.36402
  Beta  occ. eigenvalues --   -0.35608  -0.35062  -0.33340  -0.32735  -0.32310
  Beta  occ. eigenvalues --   -0.30961  -0.29517  -0.29026  -0.28372  -0.27414
  Beta  occ. eigenvalues --   -0.26521  -0.25586  -0.25008  -0.23114  -0.23080
  Beta  occ. eigenvalues --   -0.22457  -0.21949  -0.21421  -0.20447  -0.17683
  Beta  occ. eigenvalues --   -0.16403  -0.12925  -0.12018  -0.10986
  Beta virt. eigenvalues --    0.06569   0.07839   0.08177   0.08579   0.09427
  Beta virt. eigenvalues --    0.09951   0.10289   0.10506   0.11031   0.11420
  Beta virt. eigenvalues --    0.11802   0.12386   0.12652   0.13412   0.14043

 Mulliken charges and spin densities:
               1          2
     1  C    0.090939  -0.646344
     2  C   -0.727141   0.412999
     3  C    0.333196  -0.071667
     4  C   -0.013069   1.145196
     5  N    0.258404   0.139987
     6  N   -0.046610   0.147411
     7  C    0.020940  -0.478118
     8  C    0.185676   0.030600
     9  C   -0.520439  -0.061074
    10  C   -0.066226  -0.268964
    11  N   -0.211525   0.053644
    12  C   -0.194909  -0.311205
    13  C   -0.333687  -0.012043
    14  C   -0.152486  -1.015403
    15  N   -0.328924   0.182320
    16  O   -0.214606  -0.013673
    17  H   -0.070070   0.220635
    18  H   -0.044300   0.176048
    19  H    0.138050   0.021528
    20  H    0.037556   0.145297
    21  H   -0.021096   0.144999
    22  H    0.134826   0.089189
    23  H    0.096921   0.072373
    24  H    0.023524   0.115265
    25  H    0.190503  -0.026335
    26  H   -0.022374   0.172959
    27  H    0.120610   0.107533
    28  H    0.006591   0.167388
    29  H    0.094320   0.058611
    30  H   -0.003918   0.153456
    31  H    0.154548  -0.000747
    32  H    0.084775   0.148139
 Sum of Mulliken charges =  -1.00000   1.00000

 Dipole moment (field-independent basis, Debye):
    X=              3.3323    Y=             -2.7160    Z=              0.4878  Tot=              4.3265
 Quadrupole moment (field-independent basis, Debye-Ang):
   XX=           -153.8358   YY=           -137.0363   ZZ=           -111.9025
   XY=             -1.8293   XZ=              0.0912   YZ=             -0.5295

 Summary of Natural Population Analysis:

                                       Natural Population
                Natural  -----------------------------------------------
    Atom  No    Charge         Core      Valence    Rydberg      Total
 -----------------------------------------------------------------------
      C    1   -0.29544      0.99965     2.29117    0.00463     3.29544
      C    2    0.05830      0.99955     1.92749    0.01467     2.94170
      C    3   -0.04296      0.99947     2.03223    0.01125     3.04296
      C    4    0.02683      0.99938     1.96366    0.01013     2.97317
      N    5   -0.05270      0.99962     2.53815    0.01493     3.55270
      N    6   -0.12001      0.99973     2.60741    0.01287     3.62001
      C    7   -0.03831      0.99957     2.02477    0.01397     3.03831
      C    8   -0.00474      0.99957     1.99227    0.01289     3.00474
      C    9   -0.19494      0.99961     2.18708    0.00825     3.19494
      C   10   -0.09176      0.99962     2.08246    0.00968     3.09176
      N   11   -0.34507      0.99974     2.83369    0.01164     3.84507
      C   12   -0.09134      0.99962     2.08198    0.00975     3.09134
      C   13   -0.19531      0.99960     2.18614    0.00956     3.19531
      C   14    0.13297      0.99964     1.85145    0.01594     2.86703
      N   15   -0.14931      0.99979     2.63850    0.01103     3.64931
      O   16   -0.37120      0.99990     3.36453    0.00676     4.37120
      H   17    0.09648      0.00000     0.40201    0.00151     0.40352
      H   18    0.09758      0.00000     0.40125    0.00116     0.40242
      H   19    0.11073      0.00000     0.38813    0.00113     0.38927
      H   20    0.08993      0.00000     0.40878    0.00129     0.41007
      H   21    0.09912      0.00000     0.39974    0.00113     0.40088
      H   22    0.10821      0.00000     0.39017    0.00162     0.39179
      H   23    0.10819      0.00000     0.39072    0.00109     0.39181
      H   24    0.09899      0.00000     0.39974    0.00127     0.40101
      H   25    0.09518      0.00000     0.40278    0.00205     0.40482
      H   26    0.08874      0.00000     0.41006    0.00120     0.41126
      H   27    0.17048      0.00000     0.32697    0.00255     0.32952
      H   28    0.09214      0.00000     0.40673    0.00113     0.40786
      H   29    0.08560      0.00000     0.41254    0.00187     0.41440
      H   30    0.09954      0.00000     0.39891    0.00155     0.40046
      H   31    0.10823      0.00000     0.39075    0.00101     0.39177
      H   32    0.22585      0.00000     0.27070    0.00344     0.27415
 =======================================================================
   * Total *    0.00000     15.99406    42.80296    0.20298    59.00000

 Normal termination of Gaussian 16 at Thu Dec 10 23:09:33 2020.
