 Gaussian 16, Revision A.03,

 -----------------------------------------------------------
 # opt freq B3LYP/6-31G(d) empiricaldispersion=gd3bj scf=xqc
 -----------------------------------------------------------

 -------------------------------
 CID_148260699_JID_7546_neutraal
 -------------------------------
 Symbolic Z-matrix:
 Charge =  0 Multiplicity = 1

 SCF Done:  E(RB3LYP) =  -858.981386390     A.U. after   15 cycles
 SCF Done:  E(RB3LYP) =  -858.998039868     A.U. after   13 cycles
 SCF Done:  E(RB3LYP) =  -859.000457643     A.U. after   13 cycles
 SCF Done:  E(RB3LYP) =  -859.001770542     A.U. after   12 cycles
 SCF Done:  E(RB3LYP) =  -859.002081891     A.U. after   12 cycles
 SCF Done:  E(RB3LYP) =  -859.002063598     A.U. after   11 cycles
 SCF Done:  E(RB3LYP) =  -859.002187471     A.U. after   11 cycles
 SCF Done:  E(RB3LYP) =  -859.002218258     A.U. after   10 cycles
 SCF Done:  E(RB3LYP) =  -859.002224284     A.U. after   10 cycles
 SCF Done:  E(RB3LYP) =  -859.002225941     A.U. after    9 cycles
 SCF Done:  E(RB3LYP) =  -859.002226599     A.U. after    9 cycles
 SCF Done:  E(RB3LYP) =  -859.002226763     A.U. after    8 cycles
 SCF Done:  E(RB3LYP) =  -859.002226859     A.U. after    7 cycles
 SCF Done:  E(RB3LYP) =  -859.002226933     A.U. after    7 cycles
 Optimization completed.
    -- Stationary point found.
 Normal termination of Gaussian 16 at Mon Dec 14 16:42:11 2020.

 --------------------------------------------------------------------
 #N Geom=AllCheck Guess=TCheck SCRF=Check GenChk RB3LYP/6-31G(d) Freq
 --------------------------------------------------------------------

 Structure from the checkpoint file:  "JID_7546.chk"
 -------------------------------
 CID_148260699_JID_7546_neutraal
 -------------------------------
 Charge =  0 Multiplicity = 1

 SCF Done:  E(RB3LYP) =  -859.002226933     A.U. after    1 cycles

  Exact polarizability: 177.110   2.723 135.516  -4.548   4.905 102.569
 Approx polarizability: 236.819  12.486 240.868  -8.424  29.860 154.351

                      1                      2                      3
                      A                      A                      A
 Frequencies --     25.5909                41.7286                57.0598
 Red. masses --      3.5714                 4.5361                 3.8572
 Frc consts  --      0.0014                 0.0047                 0.0074
 IR Inten    --      0.0794                 0.1703                 0.9301

                      4                      5                      6
                      A                      A                      A
 Frequencies --     78.6909                84.4744               109.4029
 Red. masses --      2.2541                 3.0948                 4.5905
 Frc consts  --      0.0082                 0.0130                 0.0324
 IR Inten    --      1.0787                 5.9669                 1.8433

                      7                      8                      9
                      A                      A                      A
 Frequencies --    135.0343               167.1056               197.0746
 Red. masses --      4.5367                 4.0910                 1.8229
 Frc consts  --      0.0487                 0.0673                 0.0417
 IR Inten    --      0.8131                 0.3229                 0.3428

                     10                     11                     12
                      A                      A                      A
 Frequencies --    197.3019               217.6200               229.8553
 Red. masses --      1.5593                 1.9022                 2.8435
 Frc consts  --      0.0358                 0.0531                 0.0885
 IR Inten    --      1.5030                 3.7287                 2.2309

                     13                     14                     15
                      A                      A                      A
 Frequencies --    246.9821               274.5657               277.6112
 Red. masses --      3.5820                 3.5369                 1.3807
 Frc consts  --      0.1287                 0.1571                 0.0627
 IR Inten    --      1.2025                 2.8245                 2.3539

                     16                     17                     18
                      A                      A                      A
 Frequencies --    308.5918               327.2524               367.5669
 Red. masses --      3.1742                 3.6548                 4.2984
 Frc consts  --      0.1781                 0.2306                 0.3422
 IR Inten    --      1.2480                 2.8325                 4.5108

                     19                     20                     21
                      A                      A                      A
 Frequencies --    370.3405               403.5927               443.0048
 Red. masses --      4.7970                 5.8794                 4.9383
 Frc consts  --      0.3876                 0.5642                 0.5710
 IR Inten    --     29.9228                16.0086                 7.5417

                     22                     23                     24
                      A                      A                      A
 Frequencies --    496.1257               508.6451               529.5815
 Red. masses --      4.3639                 3.6907                 6.5757
 Frc consts  --      0.6329                 0.5626                 1.0866
 IR Inten    --      2.0054                10.4108                17.2174

                     25                     26                     27
                      A                      A                      A
 Frequencies --    533.3789               590.7571               618.4071
 Red. masses --      4.6791                 2.0630                 1.9630
 Frc consts  --      0.7843                 0.4242                 0.4423
 IR Inten    --      2.0375                33.5234                23.0704

                     28                     29                     30
                      A                      A                      A
 Frequencies --    663.3578               680.5503               694.6810
 Red. masses --      6.0928                 3.7968                 4.3298
 Frc consts  --      1.5797                 1.0361                 1.2311
 IR Inten    --      4.3162                21.5607                 9.1032

                     31                     32                     33
                      A                      A                      A
 Frequencies --    720.8774               764.4475               813.8836
 Red. masses --      4.6444                 3.4283                 1.4943
 Frc consts  --      1.4220                 1.1804                 0.5832
 IR Inten    --     13.0222                30.8726                19.3921

                     34                     35                     36
                      A                      A                      A
 Frequencies --    835.3185               850.3545               897.4368
 Red. masses --      3.3936                 3.4875                 2.8112
 Frc consts  --      1.3951                 1.4858                 1.3340
 IR Inten    --      7.1921                72.4313                26.8152

                     37                     38                     39
                      A                      A                      A
 Frequencies --    940.7057               955.2439               971.5828
 Red. masses --      3.9489                 1.4058                 3.3006
 Frc consts  --      2.0589                 0.7558                 1.8357
 IR Inten    --     19.1107                 3.6522                22.4226

                     40                     41                     42
                      A                      A                      A
 Frequencies --   1016.5401              1029.9397              1071.8442
 Red. masses --      3.8514                 2.4423                 1.6623
 Frc consts  --      2.3449                 1.5264                 1.1252
 IR Inten    --     13.8778                 9.8423                18.0820

                     43                     44                     45
                      A                      A                      A
 Frequencies --   1091.5870              1123.3324              1130.7882
 Red. masses --      4.3427                 3.6339                 1.3006
 Frc consts  --      3.0488                 2.7017                 0.9798
 IR Inten    --     63.9203                23.4778                 5.4100

                     46                     47                     48
                      A                      A                      A
 Frequencies --   1152.4724              1164.1689              1169.9641
 Red. masses --      2.0574                 2.8723                 1.6481
 Frc consts  --      1.6100                 2.2936                 1.3292
 IR Inten    --     25.5352                93.2653                74.5156

                     49                     50                     51
                      A                      A                      A
 Frequencies --   1181.1184              1186.5442              1191.0616
 Red. masses --      2.8588                 1.2890                 1.2834
 Frc consts  --      2.3497                 1.0693                 1.0727
 IR Inten    --     28.8754                 2.0322                 2.2358

                     52                     53                     54
                      A                      A                      A
 Frequencies --   1216.6013              1231.1783              1248.4868
 Red. masses --      1.8858                 1.5168                 1.9234
 Frc consts  --      1.6445                 1.3546                 1.7664
 IR Inten    --     31.1426                 9.8577                56.1451

                     55                     56                     57
                      A                      A                      A
 Frequencies --   1254.1245              1306.7924              1348.4590
 Red. masses --      3.5169                 2.5274                 1.8918
 Frc consts  --      3.2591                 2.5430                 2.0268
 IR Inten    --     32.6939               152.0484                29.9405

                     58                     59                     60
                      A                      A                      A
 Frequencies --   1398.5316              1406.7976              1430.6845
 Red. masses --      2.0180                 1.4719                 1.3063
 Frc consts  --      2.3255                 1.7163                 1.5754
 IR Inten    --     48.7155                14.6064                 4.9100

                     61                     62                     63
                      A                      A                      A
 Frequencies --   1443.7752              1455.0423              1497.2558
 Red. masses --      1.8434                 2.4248                 1.1326
 Frc consts  --      2.2639                 3.0247                 1.4960
 IR Inten    --      8.6422                85.1968                 0.5414

                     64                     65                     66
                      A                      A                      A
 Frequencies --   1501.7227              1514.9052              1523.1321
 Red. masses --      1.1499                 1.0579                 1.0540
 Frc consts  --      1.5279                 1.4304                 1.4407
 IR Inten    --      0.1861                 3.5676                 3.3725

                     67                     68                     69
                      A                      A                      A
 Frequencies --   1524.7788              1526.0578              1537.8749
 Red. masses --      1.0569                 1.0480                 1.0518
 Frc consts  --      1.4477                 1.4380                 1.4656
 IR Inten    --      2.5883                16.1042                 1.2488

                     70                     71                     72
                      A                      A                      A
 Frequencies --   1543.6516              1545.0976              1580.8395
 Red. masses --      1.0554                 1.4053                 2.8068
 Frc consts  --      1.4817                 1.9766                 4.1328
 IR Inten    --     11.9135                11.9609               196.8010

                     73                     74                     75
                      A                      A                      A
 Frequencies --   1622.6654              1652.2253              1735.3247
 Red. masses --      5.1899                 4.0981                 5.0495
 Frc consts  --      8.0513                 6.5913                 8.9590
 IR Inten    --    134.1820                63.2443               188.4139

                     76                     77                     78
                      A                      A                      A
 Frequencies --   3008.3727              3053.6425              3055.4795
 Red. masses --      1.0364                 1.0342                 1.0898
 Frc consts  --      5.5264                 5.6816                 5.9946
 IR Inten    --     43.8269                32.8487                38.1690

                     79                     80                     81
                      A                      A                      A
 Frequencies --   3063.4303              3102.2159              3122.9678
 Red. masses --      1.0484                 1.0875                 1.0503
 Frc consts  --      5.7971                 6.1665                 6.0350
 IR Inten    --     43.0496                 0.7550                14.6968

                     82                     83                     84
                      A                      A                      A
 Frequencies --   3129.1607              3129.7051              3137.7763
 Red. masses --      1.1019                 1.0994                 1.0980
 Frc consts  --      6.3567                 6.3447                 6.3694
 IR Inten    --     30.7701                35.3403                15.8004

                     85                     86                     87
                      A                      A                      A
 Frequencies --   3139.0894              3167.9588              3206.2542
 Red. masses --      1.1025                 1.1062                 1.0889
 Frc consts  --      6.4010                 6.5412                 6.5956
 IR Inten    --     31.4266                24.5484                11.4865

                     88                     89                     90
                      A                      A                      A
 Frequencies --   3217.0345              3239.5394              3260.1825
 Red. masses --      1.1226                 1.0931                 1.0634
 Frc consts  --      6.8452                 6.7586                 6.6592
 IR Inten    --     17.7491                 2.0567               139.4844

 - Thermochemistry -
 -------------------
 Temperature   298.150 Kelvin.  Pressure   1.00000 Atm.
 Atom     1 has atomic number  6 and mass  12.00000

 Molecular mass:   241.09502 amu.
 Principal axes and moments of inertia in atomic units:
                           1         2         3
     Eigenvalues --  1844.121916678.474087054.51799
           X            0.99988  -0.01522   0.00079
           Y            0.01523   0.99683  -0.07813
           Z            0.00040   0.07813   0.99694
 This molecule is an asymmetric top.
 Rotational symmetry number  1.
 Warning -- assumption of classical behavior for rotation
           may cause significant error
 Rotational temperatures (Kelvin)      0.04697     0.01297     0.01228
 Rotational constants (GHZ):           0.97865     0.27023     0.25583
 Zero-point vibrational energy     677169.9 (Joules/Mol)
                                  161.84748 (Kcal/Mol)
 Warning -- explicit consideration of  27 degrees of freedom as
           vibrations may cause significant error
 Vibrational temperatures:     36.82    60.04    82.10   113.22   121.54
          (Kelvin)            157.41   194.28   240.43   283.55   283.87
                              313.11   330.71   355.35   395.04   399.42
                              443.99   470.84   528.85   532.84   580.68
                              637.39   713.81   731.83   761.95   767.41
                              849.97   889.75   954.42   979.16   999.49
                             1037.18  1099.87  1171.00  1201.84  1223.47
                             1291.21  1353.47  1374.38  1397.89  1462.57
                             1481.85  1542.14  1570.55  1616.22  1626.95
                             1658.15  1674.98  1683.32  1699.37  1707.17
                             1713.67  1750.42  1771.39  1796.29  1804.41
                             1880.18  1940.13  2012.18  2024.07  2058.44
                             2077.27  2093.48  2154.22  2160.64  2179.61
                             2191.45  2193.82  2195.66  2212.66  2220.97
                             2223.05  2274.48  2334.65  2377.18  2496.75
                             4328.38  4393.51  4396.15  4407.59  4463.40
                             4493.25  4502.16  4502.95  4514.56  4516.45
                             4557.99  4613.08  4628.60  4660.97  4690.68

 Zero-point correction=                           0.257920 (Hartree/Particle)
 Thermal correction to Energy=                    0.275035
 Thermal correction to Enthalpy=                  0.275979
 Thermal correction to Gibbs Free Energy=         0.212321
 Sum of electronic and zero-point Energies=           -858.744307
 Sum of electronic and thermal Energies=              -858.727192
 Sum of electronic and thermal Enthalpies=            -858.726248
 Sum of electronic and thermal Free Energies=         -858.789906

                     E (Thermal)             CV                S
                      KCal/Mol        Cal/Mol-Kelvin    Cal/Mol-Kelvin
 Total                  172.587             63.275            133.981
 Electronic               0.000              0.000              0.000
 Translational            0.889              2.981             42.341
 Rotational               0.889              2.981             32.830
 Vibrational            170.810             57.313             58.810
 Vibration     1          0.593              1.985              6.145
 Vibration     2          0.594              1.981              5.175
 Vibration     3          0.596              1.975              4.556
 Vibration     4          0.600              1.963              3.923
 Vibration     5          0.601              1.960              3.784
 Vibration     6          0.606              1.942              3.279
 Vibration     7          0.613              1.918              2.873
 Vibration     8          0.624              1.883              2.468
 Vibration     9          0.636              1.844              2.160
 Vibration    10          0.637              1.844              2.158
 Vibration    11          0.646              1.814              1.979
 Vibration    12          0.652              1.795              1.880
 Vibration    13          0.661              1.768              1.752
 Vibration    14          0.677              1.720              1.567
 Vibration    15          0.679              1.715              1.548
 Vibration    16          0.698              1.657              1.370
 Vibration    17          0.711              1.621              1.274
 Vibration    18          0.740              1.539              1.090
 Vibration    19          0.742              1.533              1.078
 Vibration    20          0.769              1.462              0.950
 Vibration    21          0.803              1.376              0.817
 Vibration    22          0.852              1.259              0.668
 Vibration    23          0.864              1.231              0.637
 Vibration    24          0.885              1.185              0.588
 Vibration    25          0.888              1.176              0.580
 Vibration    26          0.948              1.051              0.466
 Vibration    27          0.978              0.993              0.419

                           ! Non-Optimized Parameters !
 Normal termination of Gaussian 16 at Mon Dec 14 16:54:43 2020.

 ----------------------------------------------------------------------
 # B3LYP/6-311++G(d,p) empiricaldispersion=gd3bj scf=xqc pop=npa geom=c
 heck
 ----------------------------------------------------------------------

 ---------------------------------------
 CID_148260699_JID_7546_Energie_neutraal
 ---------------------------------------
 Structure from the checkpoint file:  "JID_7546.chk"
 Charge =  0 Multiplicity = 1

 SCF Done:  E(RB3LYP) =  -859.255834970     A.U. after   17 cycles
 Normal termination of Gaussian 16 at Mon Dec 14 17:01:12 2020.

 ----------------------------------------------------------------------
 # B3LYP/6-311++G(d,p) empiricaldispersion=gd3bj scf=xqc pop=npa geom=c
 heck
 ----------------------------------------------------------------------

 -------------------------------------
 CID_148260699_JID_7546_Energie_kation
 -------------------------------------
 Structure from the checkpoint file:  "JID_7546.chk"
 Charge =  1 Multiplicity = 2

 SCF Done:  E(UB3LYP) =  -858.953078472     A.U. after   24 cycles
 Normal termination of Gaussian 16 at Mon Dec 14 17:14:34 2020.
 Gaussian 16:  ES64L-G16RevA.03 25-Dec-2016

 ----------------------------------------------------------------------
 # B3LYP/6-311++G(d,p) empiricaldispersion=gd3bj scf=xqc pop=npa geom=c
 heck
 ----------------------------------------------------------------------

 ------------------------------------
 CID_148260699_JID_7546_Energie_anion
 ------------------------------------
 Structure from the checkpoint file:  "JID_7546.chk"
 Charge = -1 Multiplicity = 2

                         Standard orientation:
 ---------------------------------------------------------------------
 Center     Atomic      Atomic             Coordinates (Angstroms)
 Number     Number       Type             X           Y           Z
 ---------------------------------------------------------------------
      1          6           0        3.837048   -0.366637   -1.580191
      2          6           0        3.087385    0.365933   -0.467681
      3          6           0        1.606237    0.046846   -0.393836
      4          6           0        1.040395   -1.155981   -0.757430
      5          6           0       -0.337196   -1.417976   -0.602218
      6          6           0       -1.160276   -0.448748   -0.074875
      7          7           0       -0.595669    0.733304    0.265912
      8          6           0        0.767020    1.077472    0.153795
      9          8           0        1.071863    2.226519    0.516566
     10          8           0       -1.373951    1.748806    0.777764
     11          6           0       -2.640806   -0.655734    0.085889
     12          6           0       -3.143522   -1.723678    0.953398
     13          8           0       -3.179754   -0.337288    1.355692
     14          8           0       -3.409793   -0.360829   -1.020546
     15          6           0       -3.468375    1.026312   -1.371532
     16          8           0        3.712722    0.203424    0.813116
     17          6           0        3.728438   -1.108947    1.337100
     18          1           0        3.793570   -1.455954   -1.480872
     19          1           0        4.890029   -0.070877   -1.557845
     20          1           0        3.419968   -0.102257   -2.557455
     21          1           0        3.171528    1.442245   -0.638278
     22          1           0        1.669545   -1.933035   -1.180318
     23          1           0       -0.768639   -2.368041   -0.891450
     24          1           0       -0.657222    2.434483    0.910854
     25          1           0       -4.110296   -2.159745    0.710013
     26          1           0       -2.450829   -2.351039    1.511944
     27          1           0       -3.813103    1.626943   -0.525165
     28          1           0       -2.491491    1.396239   -1.704247
     29          1           0       -4.180802    1.092268   -2.195388
     30          1           0        2.717335   -1.527046    1.446383
     31          1           0        4.328388   -1.801171    0.728035
     32          1           0        4.184924   -1.034373    2.327154
 ---------------------------------------------------------------------

 SCF Done:  E(UB3LYP) =  -859.262684983     A.U. after   32 cycles

 The electronic state is 2-A.
 Alpha  occ. eigenvalues --  -19.02907 -19.02540 -19.02528 -18.98827 -18.94488
 Alpha  occ. eigenvalues --  -14.25449 -10.16638 -10.11806 -10.11321 -10.10576
 Alpha  occ. eigenvalues --  -10.08781 -10.08590 -10.05975 -10.04544 -10.02783
 Alpha  occ. eigenvalues --  -10.01989 -10.00786  -0.99393  -0.98082  -0.91938
 Alpha  occ. eigenvalues --   -0.90037  -0.87329  -0.76792  -0.66571  -0.63359
 Alpha  occ. eigenvalues --   -0.62076  -0.59807  -0.56842  -0.55659  -0.53150
 Alpha  occ. eigenvalues --   -0.49015  -0.47519  -0.44822  -0.42141  -0.41131
 Alpha  occ. eigenvalues --   -0.39756  -0.37148  -0.36131  -0.35266  -0.33932
 Alpha  occ. eigenvalues --   -0.33665  -0.32829  -0.32722  -0.31948  -0.30449
 Alpha  occ. eigenvalues --   -0.29855  -0.28971  -0.28209  -0.27753  -0.26385
 Alpha  occ. eigenvalues --   -0.25555  -0.24751  -0.23431  -0.22569  -0.21800
 Alpha  occ. eigenvalues --   -0.19598  -0.19446  -0.17853  -0.17290  -0.16854
 Alpha  occ. eigenvalues --   -0.13788  -0.12871  -0.12605  -0.07496   0.05102
 Alpha virt. eigenvalues --    0.07928   0.08460   0.08969   0.09797   0.10343
 Alpha virt. eigenvalues --    0.11046   0.11326   0.12174   0.12355   0.13157
 Alpha virt. eigenvalues --    0.13456   0.13753   0.13850   0.14441   0.15017

  Beta  occ. eigenvalues --  -19.02850 -19.02500 -19.02464 -18.98744 -18.94497
  Beta  occ. eigenvalues --  -14.24954 -10.16663 -10.11856 -10.11314 -10.10573
  Beta  occ. eigenvalues --  -10.08798 -10.08583 -10.05455 -10.04541 -10.02919
  Beta  occ. eigenvalues --  -10.01682 -10.00460  -0.99246  -0.97758  -0.91805
  Beta  occ. eigenvalues --   -0.89864  -0.87312  -0.76195  -0.66131  -0.62962
  Beta  occ. eigenvalues --   -0.61824  -0.59526  -0.56778  -0.55609  -0.52759
  Beta  occ. eigenvalues --   -0.48713  -0.47323  -0.44607  -0.41970  -0.40969
  Beta  occ. eigenvalues --   -0.39570  -0.36956  -0.35975  -0.35180  -0.33502
  Beta  occ. eigenvalues --   -0.33463  -0.32714  -0.32609  -0.31119  -0.30305
  Beta  occ. eigenvalues --   -0.29768  -0.28905  -0.28162  -0.27675  -0.26280
  Beta  occ. eigenvalues --   -0.25435  -0.24628  -0.23208  -0.22371  -0.21523
  Beta  occ. eigenvalues --   -0.19374  -0.18545  -0.17696  -0.16995  -0.16698
  Beta  occ. eigenvalues --   -0.13655  -0.12474  -0.10660  -0.06150
  Beta virt. eigenvalues --    0.07868   0.08399   0.08897   0.09701   0.10176
  Beta virt. eigenvalues --    0.10979   0.11301   0.11884   0.12221   0.12323
  Beta virt. eigenvalues --    0.13191   0.13445   0.13838   0.13962   0.14403

 Mulliken charges and spin densities:
               1          2
     1  C   -0.403273  -0.034747
     2  C   -1.099972   0.020449
     3  C    0.955703   0.100709
     4  C    0.108956   0.281283
     5  C   -0.264557   0.018403
     6  C    0.159736   0.382295
     7  N   -0.255538   0.137723
     8  C   -0.055071  -0.026653
     9  O   -0.423688  -0.000260
    10  O    0.109853   0.022597
    11  C   -0.745716  -0.094477
    12  C   -0.499207   0.018207
    13  O   -0.078014  -0.003175
    14  O   -0.006301  -0.011866
    15  C   -0.232811  -0.004157
    16  O   -0.045932   0.001298
    17  C   -0.209445  -0.084204
    18  H    0.123996   0.019930
    19  H    0.141347   0.000563
    20  H    0.115490  -0.000223
    21  H    0.223919   0.004707
    22  H    0.058301   0.017880
    23  H    0.087704   0.074713
    24  H    0.263173  -0.001462
    25  H    0.135805  -0.000553
    26  H    0.140748   0.007706
    27  H    0.172734  -0.003322
    28  H    0.165563   0.002282
    29  H    0.118474   0.009833
    30  H    0.114031   0.042148
    31  H    0.006490   0.090235
    32  H    0.117502   0.012138
 Sum of Mulliken charges =  -1.00000   1.00000

 Dipole moment (field-independent basis, Debye):
    X=             -2.3712    Y=             -1.9768    Z=             -2.0069  Tot=              3.6821
 Quadrupole moment (field-independent basis, Debye-Ang):
   XX=           -142.6927   YY=           -117.6208   ZZ=           -113.6346
   XY=             -3.6744   XZ=             -1.1361   YZ=             -6.2915

 Summary of Natural Population Analysis:

                                       Natural Population
                Natural  -----------------------------------------------
    Atom  No    Charge         Core      Valence    Rydberg      Total
 -----------------------------------------------------------------------
      C    1   -0.29682      0.99965     2.29315    0.00402     3.29682
      C    2    0.05661      0.99952     1.92730    0.01657     2.94339
      C    3   -0.03913      0.99945     2.02845    0.01123     3.03913
      C    4   -0.02993      0.99954     2.01965    0.01074     3.02993
      C    5   -0.16797      0.99954     2.15784    0.01059     3.16797
      C    6    0.15856      0.99945     1.82793    0.01406     2.84144
      N    7    0.01357      0.99952     2.47452    0.01239     3.48643
      C    8    0.29414      0.99956     1.68730    0.01900     2.70586
      O    9   -0.37328      0.99988     3.36654    0.00687     4.37328
      O   10   -0.27809      0.99990     3.27072    0.00747     4.27809
      C   11    0.25836      0.99947     1.72182    0.02035     2.74164
      C   12   -0.03131      0.99953     2.02272    0.00906     3.03131
      O   13   -0.27278      0.99991     3.26568    0.00719     4.27278
      O   14   -0.28851      0.99986     3.27900    0.00965     4.28851
      C   15   -0.10183      0.99960     2.09431    0.00792     3.10183
      O   16   -0.29498      0.99989     3.28489    0.01020     4.29498
      C   17   -0.10613      0.99961     2.09557    0.01094     3.10613
      H   18    0.09453      0.00000     0.40436    0.00111     0.40547
      H   19    0.09539      0.00000     0.40354    0.00108     0.40461
      H   20    0.10147      0.00000     0.39771    0.00082     0.39853
      H   21    0.10147      0.00000     0.39738    0.00115     0.39853
      H   22    0.08947      0.00000     0.40949    0.00104     0.41053
      H   23    0.09847      0.00000     0.40033    0.00120     0.40153
      H   24    0.24350      0.00000     0.25309    0.00341     0.25650
      H   25    0.08445      0.00000     0.41426    0.00129     0.41555
      H   26    0.08948      0.00000     0.40954    0.00098     0.41052
      H   27    0.08884      0.00000     0.40992    0.00124     0.41116
      H   28    0.08849      0.00000     0.41035    0.00116     0.41151
      H   29    0.08153      0.00000     0.41761    0.00086     0.41847
      H   30    0.08798      0.00000     0.41062    0.00140     0.41202
      H   31    0.07083      0.00000     0.42774    0.00143     0.42917
      H   32    0.08363      0.00000     0.41549    0.00088     0.41637
 =======================================================================
   * Total *    0.00000     16.99388    46.79882    0.20730    64.00000

 Normal termination of Gaussian 16 at Mon Dec 14 17:32:38 2020.
