 Gaussian 16, Revision A.03,

 -----------------------------------------------------------
 # opt freq B3LYP/6-31G(d) empiricaldispersion=gd3bj scf=xqc
 -----------------------------------------------------------

 -------------------------------
 CID_105450674_JID_4330_neutraal
 -------------------------------
 Symbolic Z-matrix:
 Charge =  0 Multiplicity = 1

 SCF Done:  E(RB3LYP) =  -666.723794174     A.U. after   15 cycles
 SCF Done:  E(RB3LYP) =  -666.731182281     A.U. after   13 cycles
 SCF Done:  E(RB3LYP) =  -666.728811022     A.U. after   13 cycles
 SCF Done:  E(RB3LYP) =  -666.731508999     A.U. after   12 cycles
 SCF Done:  E(RB3LYP) =  -666.734158828     A.U. after   13 cycles
 SCF Done:  E(RB3LYP) =  -666.735836056     A.U. after   13 cycles
 SCF Done:  E(RB3LYP) =  -666.737230031     A.U. after   13 cycles
 SCF Done:  E(RB3LYP) =  -666.737991886     A.U. after   13 cycles
 SCF Done:  E(RB3LYP) =  -666.736984474     A.U. after   13 cycles
 SCF Done:  E(RB3LYP) =  -666.738555145     A.U. after   13 cycles
 SCF Done:  E(RB3LYP) =  -666.738650006     A.U. after    8 cycles
 SCF Done:  E(RB3LYP) =  -666.738651734     A.U. after    9 cycles
 SCF Done:  E(RB3LYP) =  -666.738652969     A.U. after    8 cycles
 SCF Done:  E(RB3LYP) =  -666.738653427     A.U. after    8 cycles
 SCF Done:  E(RB3LYP) =  -666.738653588     A.U. after    7 cycles
 Optimization completed.
    -- Stationary point found.
 Normal termination of Gaussian 16 at Thu Dec 10 09:28:08 2020.

 --------------------------------------------------------------------
 #N Geom=AllCheck Guess=TCheck SCRF=Check GenChk RB3LYP/6-31G(d) Freq
 --------------------------------------------------------------------

 Structure from the checkpoint file:  "JID_4330.chk"
 -------------------------------
 CID_105450674_JID_4330_neutraal
 -------------------------------
 Charge =  0 Multiplicity = 1

 SCF Done:  E(RB3LYP) =  -666.738653588     A.U. after    1 cycles

  Exact polarizability: 151.931  -2.168 129.239   0.570   0.355  76.937
 Approx polarizability: 220.230   1.974 202.090  -0.402   0.508 113.374

                      1                      2                      3
                      A                      A                      A
 Frequencies --     43.4543                87.4294                99.6425
 Red. masses --      4.8236                 3.0714                 3.3381
 Frc consts  --      0.0054                 0.0138                 0.0195
 IR Inten    --      1.2411                 0.8538                 0.2642

                      4                      5                      6
                      A                      A                      A
 Frequencies --    130.1943               139.0869               145.5753
 Red. masses --      3.8362                 2.1137                 1.5456
 Frc consts  --      0.0383                 0.0241                 0.0193
 IR Inten    --      0.3820                 1.0044                 0.6956

                      7                      8                      9
                      A                      A                      A
 Frequencies --    209.4425               222.3258               243.6211
 Red. masses --      2.4586                 2.9420                 1.2296
 Frc consts  --      0.0635                 0.0857                 0.0430
 IR Inten    --      0.8233                 0.5155                 1.5019

                     10                     11                     12
                      A                      A                      A
 Frequencies --    269.4940               272.5324               291.8542
 Red. masses --      2.6988                 1.3129                 1.2726
 Frc consts  --      0.1155                 0.0575                 0.0639
 IR Inten    --      0.5619                 2.2918                50.6676

                     13                     14                     15
                      A                      A                      A
 Frequencies --    323.6893               324.6439               343.9320
 Red. masses --      3.8540                 3.1570                 2.8324
 Frc consts  --      0.2379                 0.1960                 0.1974
 IR Inten    --      6.0742                 4.5383                10.2030

                     16                     17                     18
                      A                      A                      A
 Frequencies --    375.1713               381.3863               384.1526
 Red. masses --      1.2570                 2.3814                 2.7572
 Frc consts  --      0.1042                 0.2041                 0.2397
 IR Inten    --      0.5931                 1.8496                 1.8119

                     19                     20                     21
                      A                      A                      A
 Frequencies --    406.5983               447.3608               463.5915
 Red. masses --      3.5695                 3.7052                 3.6632
 Frc consts  --      0.3477                 0.4369                 0.4639
 IR Inten    --      5.8604                 5.3844                 3.4004

                     22                     23                     24
                      A                      A                      A
 Frequencies --    542.0712               595.8927               601.6062
 Red. masses --      1.6504                 3.7537                 3.4396
 Frc consts  --      0.2857                 0.7853                 0.7335
 IR Inten    --     76.9338                 0.0561                 7.3303

                     25                     26                     27
                      A                      A                      A
 Frequencies --    670.1374               723.8391               754.6908
 Red. masses --      2.4975                 3.6640                 6.4581
 Frc consts  --      0.6608                 1.1311                 2.1672
 IR Inten    --     12.1347                40.0552                35.8855

                     28                     29                     30
                      A                      A                      A
 Frequencies --    769.5843               817.2735               845.9611
 Red. masses --      8.5030                 2.1031                 2.7739
 Frc consts  --      2.9671                 0.8276                 1.1696
 IR Inten    --     20.8541               122.5714                19.9219

                     31                     32                     33
                      A                      A                      A
 Frequencies --    852.6607               944.1951               950.8407
 Red. masses --      3.1916                 1.7957                 1.7678
 Frc consts  --      1.3671                 0.9432                 0.9417
 IR Inten    --     56.2506                 0.3379                 2.8034

                     34                     35                     36
                      A                      A                      A
 Frequencies --    980.9320               986.0224              1035.9507
 Red. masses --      1.1936                 6.6347                 2.8394
 Frc consts  --      0.6767                 3.8005                 1.7954
 IR Inten    --      0.1482                12.1362                54.4771

                     37                     38                     39
                      A                      A                      A
 Frequencies --   1072.3295              1083.7946              1108.8038
 Red. masses --      1.3928                 1.9347                 2.1925
 Frc consts  --      0.9436                 1.3389                 1.5882
 IR Inten    --      0.9232                44.5084                20.3027

                     40                     41                     42
                      A                      A                      A
 Frequencies --   1162.8671              1185.4108              1214.7050
 Red. masses --      2.1347                 1.2709                 1.6580
 Frc consts  --      1.7007                 1.0522                 1.4414
 IR Inten    --     37.3374                 0.8446                 4.6993

                     43                     44                     45
                      A                      A                      A
 Frequencies --   1239.3148              1244.8327              1248.3936
 Red. masses --      3.4584                 2.6321                 2.6122
 Frc consts  --      3.1296                 2.4031                 2.3986
 IR Inten    --    176.3307                 6.2627                93.5983

                     46                     47                     48
                      A                      A                      A
 Frequencies --   1269.4060              1317.3857              1350.5457
 Red. masses --      2.4521                 3.3274                 4.3851
 Frc consts  --      2.3281                 3.4023                 4.7124
 IR Inten    --     33.6301                13.0778               169.2555

                     49                     50                     51
                      A                      A                      A
 Frequencies --   1421.5532              1424.1234              1434.2659
 Red. masses --      1.5897                 1.2128                 2.2514
 Frc consts  --      1.8928                 1.4493                 2.7288
 IR Inten    --     63.4844                 6.5916                86.9757

                     52                     53                     54
                      A                      A                      A
 Frequencies --   1457.0426              1494.0194              1508.1810
 Red. masses --      1.2291                 1.2866                 3.7531
 Frc consts  --      1.5374                 1.6920                 5.0297
 IR Inten    --     11.7440                38.3871                28.5390

                     55                     56                     57
                      A                      A                      A
 Frequencies --   1511.2208              1511.8094              1522.4438
 Red. masses --      1.0525                 1.0485                 1.2046
 Frc consts  --      1.4162                 1.4119                 1.6450
 IR Inten    --      0.9089                 6.6044                28.9272

                     58                     59                     60
                      A                      A                      A
 Frequencies --   1524.9392              1527.8447              1532.7393
 Red. masses --      1.1113                 1.1783                 1.3679
 Frc consts  --      1.5226                 1.6205                 1.8934
 IR Inten    --     15.8619                17.6374                34.2662

                     61                     62                     63
                      A                      A                      A
 Frequencies --   1539.6975              1545.4270              1559.6809
 Red. masses --      1.5387                 1.0516                 1.1391
 Frc consts  --      2.1492                 1.4797                 1.6327
 IR Inten    --     54.7619                 3.7942                22.1676

                     64                     65                     66
                      A                      A                      A
 Frequencies --   1582.4628              1683.5005              1771.5191
 Red. masses --      3.7087                 1.1708                11.0760
 Frc consts  --      5.4719                 1.9551                20.4798
 IR Inten    --     10.9275                95.6554               288.8272

                     67                     68                     69
                      A                      A                      A
 Frequencies --   3041.2365              3047.0758              3053.1191
 Red. masses --      1.0406                 1.0405                 1.0418
 Frc consts  --      5.6709                 5.6920                 5.7217
 IR Inten    --     20.6431                37.2352                42.2190

                     70                     71                     72
                      A                      A                      A
 Frequencies --   3081.3906              3101.7640              3107.6775
 Red. masses --      1.0291                 1.0985                 1.1005
 Frc consts  --      5.7573                 6.2267                 6.2618
 IR Inten    --     33.9863                 4.6003                45.7146

                     73                     74                     75
                      A                      A                      A
 Frequencies --   3112.7189              3147.5520              3158.6758
 Red. masses --      1.1005                 1.1009                 1.1078
 Frc consts  --      6.2822                 6.4259                 6.5124
 IR Inten    --     55.9607                16.2843                16.8010

                     76                     77                     78
                      A                      A                      A
 Frequencies --   3167.9508              3176.8640              3189.5240
 Red. masses --      1.0971                 1.0953                 1.1076
 Frc consts  --      6.4870                 6.5132                 6.6384
 IR Inten    --      6.6929                 8.4889                13.2851

                     79                     80                     81
                      A                      A                      A
 Frequencies --   3528.7069              3630.4395              3657.3683
 Red. masses --      1.0497                 1.0941                 1.0811
 Frc consts  --      7.7009                 8.4964                 8.5206
 IR Inten    --      5.8455                10.1592               128.4510

 - Thermochemistry -
 -------------------
 Temperature   298.150 Kelvin.  Pressure   1.00000 Atm.
 Atom     1 has atomic number  6 and mass  12.00000

 Molecular mass:   197.11643 amu.
 Principal axes and moments of inertia in atomic units:
                           1         2         3
     Eigenvalues --  1863.614443051.652754496.54290
           X            0.99998   0.00535   0.00325
           Y           -0.00535   0.99999  -0.00009
           Z           -0.00325   0.00007   0.99999
 This molecule is an asymmetric top.
 Rotational symmetry number  1.
 Warning -- assumption of classical behavior for rotation
           may cause significant error
 Rotational temperatures (Kelvin)      0.04648     0.02838     0.01926
 Rotational constants (GHZ):           0.96841     0.59140     0.40136
 Zero-point vibrational energy     645559.7 (Joules/Mol)
                                  154.29248 (Kcal/Mol)
 Warning -- explicit consideration of  24 degrees of freedom as
           vibrations may cause significant error
 Vibrational temperatures:     62.52   125.79   143.36   187.32   200.12
          (Kelvin)            209.45   301.34   319.88   350.52   387.74
                              392.11   419.91   465.72   467.09   494.84
                              539.79   548.73   552.71   585.00   643.65
                              667.00   779.92   857.36   865.58   964.18
                             1041.44  1085.83  1107.26  1175.87  1217.15
                             1226.79  1358.49  1368.05  1411.34  1418.67
                             1490.50  1542.84  1559.34  1595.32  1673.11
                             1705.54  1747.69  1783.10  1791.04  1796.16
                             1826.39  1895.42  1943.13  2045.30  2049.00
                             2063.59  2096.36  2149.56  2169.94  2174.31
                             2175.16  2190.46  2194.05  2198.23  2205.27
                             2215.28  2223.52  2244.03  2276.81  2422.18
                             2548.82  4375.66  4384.06  4392.76  4433.43
                             4462.75  4471.25  4478.51  4528.63  4544.63
                             4557.97  4570.80  4589.01  5077.02  5223.39
                             5262.14

 Zero-point correction=                           0.245881 (Hartree/Particle)
 Thermal correction to Energy=                    0.260538
 Thermal correction to Enthalpy=                  0.261482
 Thermal correction to Gibbs Free Energy=         0.205307
 Sum of electronic and zero-point Energies=           -666.492773
 Sum of electronic and thermal Energies=              -666.478115
 Sum of electronic and thermal Enthalpies=            -666.477171
 Sum of electronic and thermal Free Energies=         -666.533346

                     E (Thermal)             CV                S
                      KCal/Mol        Cal/Mol-Kelvin    Cal/Mol-Kelvin
 Total                  163.490             55.509            118.231
 Electronic               0.000              0.000              0.000
 Translational            0.889              2.981             41.741
 Rotational               0.889              2.981             31.614
 Vibrational            161.713             49.548             44.876
 Vibration     1          0.595              1.980              5.095
 Vibration     2          0.601              1.958              3.717
 Vibration     3          0.604              1.949              3.461
 Vibration     4          0.612              1.923              2.943
 Vibration     5          0.615              1.914              2.816
 Vibration     6          0.617              1.907              2.729
 Vibration     7          0.642              1.826              2.049
 Vibration     8          0.648              1.807              1.940
 Vibration     9          0.659              1.773              1.776
 Vibration    10          0.674              1.729              1.599
 Vibration    11          0.676              1.724              1.580
 Vibration    12          0.687              1.689              1.463
 Vibration    13          0.708              1.628              1.291
 Vibration    14          0.709              1.626              1.287
 Vibration    15          0.723              1.588              1.194
 Vibration    16          0.746              1.523              1.059
 Vibration    17          0.751              1.510              1.034
 Vibration    18          0.753              1.504              1.023
 Vibration    19          0.771              1.456              0.939
 Vibration    20          0.806              1.367              0.804
 Vibration    21          0.821              1.331              0.756
 Vibration    22          0.897              1.157              0.561
 Vibration    23          0.954              1.041              0.457
 Vibration    24          0.960              1.028              0.447

                           ! Non-Optimized Parameters !
 Normal termination of Gaussian 16 at Thu Dec 10 09:37:27 2020.

 ----------------------------------------------------------------------
 # B3LYP/6-311++G(d,p) empiricaldispersion=gd3bj scf=xqc pop=npa geom=c
 heck
 ----------------------------------------------------------------------

 ---------------------------------------
 CID_105450674_JID_4330_Energie_neutraal
 ---------------------------------------
 Structure from the checkpoint file:  "JID_4330.chk"
 Charge =  0 Multiplicity = 1

 SCF Done:  E(RB3LYP) =  -666.934701423     A.U. after   16 cycles
 Normal termination of Gaussian 16 at Thu Dec 10 09:41:59 2020.

 ----------------------------------------------------------------------
 # B3LYP/6-311++G(d,p) empiricaldispersion=gd3bj scf=xqc pop=npa geom=c
 heck
 ----------------------------------------------------------------------

 -------------------------------------
 CID_105450674_JID_4330_Energie_kation
 -------------------------------------
 Structure from the checkpoint file:  "JID_4330.chk"
 Charge =  1 Multiplicity = 2

 SCF Done:  E(UB3LYP) =  -666.640690247     A.U. after   23 cycles
 Normal termination of Gaussian 16 at Thu Dec 10 09:51:21 2020.
 Gaussian 16:  ES64L-G16RevA.03 25-Dec-2016

 ----------------------------------------------------------------------
 # B3LYP/6-311++G(d,p) empiricaldispersion=gd3bj scf=xqc pop=npa geom=c
 heck
 ----------------------------------------------------------------------

 ------------------------------------
 CID_105450674_JID_4330_Energie_anion
 ------------------------------------
 Structure from the checkpoint file:  "JID_4330.chk"
 Charge = -1 Multiplicity = 2

                         Standard orientation:
 ---------------------------------------------------------------------
 Center     Atomic      Atomic             Coordinates (Angstroms)
 Number     Number       Type             X           Y           Z
 ---------------------------------------------------------------------
      1          6           0        0.274910    2.003989    1.244939
      2          6           0        0.958347    1.384873    0.005513
      3          6           0        0.347110    1.960944   -1.291504
      4          6           0        2.439070    1.811095    0.043991
      5          6           0        0.795858   -0.133409    0.015083
      6          6           0       -0.399651   -0.879585    0.022473
      7          7           0       -0.042372   -2.192578    0.006214
      8          7           0        1.278101   -2.384429    0.002106
      9          6           0        1.801737   -1.148862   -0.003166
     10          7           0        3.195857   -1.036769   -0.112393
     11          6           0       -1.853730   -0.663553    0.017549
     12          8           0       -2.644782   -1.593300    0.036815
     13          8           0       -2.241869    0.625707   -0.019798
     14          6           0       -3.664179    0.834828   -0.031326
     15          1           0        0.408573    3.092727    1.239929
     16          1           0        0.724443    1.612144    2.164558
     17          1           0       -0.794099    1.791304    1.266569
     18          1           0        0.451172    3.052874   -1.303487
     19          1           0        0.866716    1.559634   -2.168492
     20          1           0       -0.713064    1.717945   -1.376356
     21          1           0        2.916560    1.524154    0.989507
     22          1           0        3.011683    1.388006   -0.784759
     23          1           0        2.496027    2.903032   -0.021146
     24          1           0       -0.691059   -2.966413    0.006138
     25          1           0        3.614074   -1.957352   -0.013737
     26          1           0        3.607970   -0.397707    0.555996
     27          1           0       -4.110702    0.365541   -0.911051
     28          1           0       -4.118651    0.413043    0.868212
     29          1           0       -3.794366    1.916333   -0.060817
 ---------------------------------------------------------------------

 SCF Done:  E(UB3LYP) =  -666.928381097     A.U. after   33 cycles
 SCF Done:  E(UB3LYP) =  -666.928381097     a.u. after    1 cycles

 The electronic state is 2-A.
 Alpha  occ. eigenvalues --  -19.03305 -18.95693 -14.23428 -14.19399 -14.18617
 Alpha  occ. eigenvalues --  -10.14344 -10.10882 -10.09239 -10.07208 -10.06808
 Alpha  occ. eigenvalues --  -10.04421 -10.03785 -10.03629 -10.03246  -0.97254
 Alpha  occ. eigenvalues --   -0.91415  -0.87563  -0.78963  -0.70604  -0.67054
 Alpha  occ. eigenvalues --   -0.63606  -0.60652  -0.56897  -0.56491  -0.50692
 Alpha  occ. eigenvalues --   -0.46800  -0.46243  -0.42905  -0.39949  -0.38141
 Alpha  occ. eigenvalues --   -0.36357  -0.34412  -0.34015  -0.33445  -0.32699
 Alpha  occ. eigenvalues --   -0.32394  -0.31078  -0.30782  -0.28455  -0.27173
 Alpha  occ. eigenvalues --   -0.26769  -0.26522  -0.24862  -0.23244  -0.22368
 Alpha  occ. eigenvalues --   -0.21780  -0.20830  -0.19811  -0.17993  -0.16479
 Alpha  occ. eigenvalues --   -0.14540  -0.11599  -0.08923   0.05181
 Alpha virt. eigenvalues --    0.07101   0.07401   0.08631   0.09850   0.10395
 Alpha virt. eigenvalues --    0.10687   0.11081   0.11684   0.12129   0.12685
 Alpha virt. eigenvalues --    0.13298   0.14312   0.14444   0.15402   0.16153

  Beta  occ. eigenvalues --  -19.03207 -18.95407 -14.23190 -14.19396 -14.18419
  Beta  occ. eigenvalues --  -10.14024 -10.10868 -10.09310 -10.07217 -10.06759
  Beta  occ. eigenvalues --  -10.04400 -10.03635 -10.03620 -10.03218  -0.96921
  Beta  occ. eigenvalues --   -0.91087  -0.87109  -0.78926  -0.70495  -0.66692
  Beta  occ. eigenvalues --   -0.63354  -0.60491  -0.56859  -0.56447  -0.50255
  Beta  occ. eigenvalues --   -0.46542  -0.46177  -0.42795  -0.39798  -0.38035
  Beta  occ. eigenvalues --   -0.35835  -0.34258  -0.33852  -0.33260  -0.32631
  Beta  occ. eigenvalues --   -0.32261  -0.30649  -0.30422  -0.28347  -0.27041
  Beta  occ. eigenvalues --   -0.26494  -0.25820  -0.24708  -0.23089  -0.22226
  Beta  occ. eigenvalues --   -0.21711  -0.20749  -0.19615  -0.16982  -0.16239
  Beta  occ. eigenvalues --   -0.14277  -0.10432  -0.08225
  Beta virt. eigenvalues --    0.07324   0.07867   0.08891   0.09912   0.10532
  Beta virt. eigenvalues --    0.10633   0.10845   0.11229   0.11724   0.12330
  Beta virt. eigenvalues --    0.12671   0.13471   0.14331   0.14439   0.15361

 Mulliken charges and spin densities:
               1          2
     1  C    0.201888  -0.836177
     2  C   -1.139065   1.988910
     3  C   -0.324712  -0.287839
     4  C   -0.096808  -0.654484
     5  C    0.541346  -0.637764
     6  C    0.477562  -0.764970
     7  N   -0.240905   0.108192
     8  N   -0.208217   0.075182
     9  C    0.106981  -0.026906
    10  N   -0.359333   0.003733
    11  C   -0.133873   0.331415
    12  O   -0.356300   0.100832
    13  O   -0.130577   0.032738
    14  C    0.160386  -0.450064
    15  H   -0.185813   0.326479
    16  H   -0.046311   0.189722
    17  H    0.092839   0.042800
    18  H    0.009536   0.119656
    19  H    0.106717   0.030115
    20  H    0.180382  -0.036749
    21  H   -0.186463   0.301559
    22  H    0.091701   0.072367
    23  H   -0.040756   0.171602
    24  H    0.312729   0.005269
    25  H    0.174811   0.081161
    26  H    0.136668   0.095056
    27  H    0.027027   0.148555
    28  H    0.057760   0.113185
    29  H   -0.229197   0.356424
 Sum of Mulliken charges =  -1.00000   1.00000

 Dipole moment (field-independent basis, Debye):
    X=              0.6804    Y=             -0.1902    Z=             -0.6521  Tot=              0.9615
 Quadrupole moment (field-independent basis, Debye-Ang):
   XX=           -127.0177   YY=           -122.8630   ZZ=           -103.0231
   XY=             -2.1413   XZ=              0.2987   YZ=             -4.3273

 Summary of Natural Population Analysis:

                                       Natural Population
                Natural  -----------------------------------------------
    Atom  No    Charge         Core      Valence    Rydberg      Total
 -----------------------------------------------------------------------
      C    1   -0.28234      0.99963     2.27539    0.00733     3.28234
      C    2   -0.05216      0.99958     2.04228    0.01030     3.05216
      C    3   -0.27968      0.99963     2.27456    0.00549     3.27968
      C    4   -0.28477      0.99964     2.27755    0.00758     3.28477
      C    5   -0.03717      0.99943     2.02583    0.01191     3.03717
      C    6    0.03536      0.99948     1.95384    0.01132     2.96464
      N    7   -0.12584      0.99966     2.61343    0.01276     3.62584
      N    8   -0.15516      0.99970     2.64255    0.01292     3.65516
      C    9    0.13787      0.99954     1.84462    0.01798     2.86213
      N   10   -0.41429      0.99972     2.90445    0.01012     3.91429
      C   11    0.42730      0.99963     1.55023    0.02284     2.57270
      O   12   -0.30828      0.99988     3.30320    0.00520     4.30828
      O   13   -0.27624      0.99986     3.26770    0.00868     4.27624
      C   14   -0.10551      0.99960     2.09629    0.00962     3.10551
      H   15    0.09156      0.00000     0.40739    0.00105     0.40844
      H   16    0.09674      0.00000     0.40236    0.00091     0.40326
      H   17    0.11080      0.00000     0.38782    0.00139     0.38920
      H   18    0.09026      0.00000     0.40889    0.00085     0.40974
      H   19    0.09617      0.00000     0.40303    0.00080     0.40383
      H   20    0.10994      0.00000     0.38889    0.00117     0.39006
      H   21    0.09359      0.00000     0.40534    0.00107     0.40641
      H   22    0.10501      0.00000     0.39377    0.00122     0.39499
      H   23    0.09664      0.00000     0.40255    0.00082     0.40336
      H   24    0.20070      0.00000     0.29761    0.00169     0.29930
      H   25    0.18200      0.00000     0.31574    0.00225     0.31800
      H   26    0.18131      0.00000     0.31680    0.00189     0.31869
      H   27    0.08999      0.00000     0.40893    0.00108     0.41001
      H   28    0.08865      0.00000     0.41039    0.00096     0.41135
      H   29    0.08755      0.00000     0.41146    0.00099     0.41245
 =======================================================================
   * Total *   -0.00000     13.99496    38.83288    0.17216    53.00000

 Normal termination of Gaussian 16 at Thu Dec 10 10:05:01 2020.
