 Gaussian 16, Revision A.03,

 -----------------------------------------------------------
 # opt freq B3LYP/6-31G(d) empiricaldispersion=gd3bj scf=xqc
 -----------------------------------------------------------

 ------------------------------
 CID_54904438_JID_9873_neutraal
 ------------------------------
 Symbolic Z-matrix:
 Charge =  0 Multiplicity = 1

 SCF Done:  E(RB3LYP) =  -1260.64830681     A.U. after   14 cycles
 SCF Done:  E(RB3LYP) =  -1260.65180464     A.U. after   13 cycles
 SCF Done:  E(RB3LYP) =  -1260.64966200     A.U. after   13 cycles
 SCF Done:  E(RB3LYP) =  -1260.65373245     A.U. after   12 cycles
 SCF Done:  E(RB3LYP) =  -1260.65516550     A.U. after   13 cycles
 SCF Done:  E(RB3LYP) =  -1260.65630018     A.U. after   12 cycles
 SCF Done:  E(RB3LYP) =  -1260.65684296     A.U. after   12 cycles
 SCF Done:  E(RB3LYP) =  -1260.65716269     A.U. after   12 cycles
 SCF Done:  E(RB3LYP) =  -1260.65174803     A.U. after   15 cycles
 SCF Done:  E(RB3LYP) =  -1260.65564033     A.U. after   13 cycles
 SCF Done:  E(RB3LYP) =  -1260.65789842     A.U. after   10 cycles
 SCF Done:  E(RB3LYP) =  -1260.65790416     A.U. after    9 cycles
 SCF Done:  E(RB3LYP) =  -1260.65790503     A.U. after    8 cycles
 SCF Done:  E(RB3LYP) =  -1260.65790533     A.U. after    7 cycles
 SCF Done:  E(RB3LYP) =  -1260.65790540     A.U. after    7 cycles
 Optimization completed.
    -- Stationary point found.
 Normal termination of Gaussian 16 at Sun Dec 13 16:30:09 2020.

 --------------------------------------------------------------------
 #N Geom=AllCheck Guess=TCheck SCRF=Check GenChk RB3LYP/6-31G(d) Freq
 --------------------------------------------------------------------

 Structure from the checkpoint file:  "JID_9873.chk"
 ------------------------------
 CID_54904438_JID_9873_neutraal
 ------------------------------
 Charge =  0 Multiplicity = 1

 SCF Done:  E(RB3LYP) =  -1260.65790540     A.U. after    1 cycles

  Exact polarizability: 147.005  13.262 165.991  -7.043   4.857 175.112
 Approx polarizability: 202.449  25.341 271.025  -4.546   9.816 289.595

                      1                      2                      3
                      A                      A                      A
 Frequencies --     33.2796                47.6459                58.5255
 Red. masses --      6.3046                 4.9634                 4.2853
 Frc consts  --      0.0041                 0.0066                 0.0086
 IR Inten    --      3.2018                 3.6016                 1.2459

                      4                      5                      6
                      A                      A                      A
 Frequencies --     72.2720                86.0009               107.6562
 Red. masses --      5.2107                 4.7441                 3.5378
 Frc consts  --      0.0160                 0.0207                 0.0242
 IR Inten    --      0.3467                 3.9515                 2.3460

                      7                      8                      9
                      A                      A                      A
 Frequencies --    133.1110               157.6615               180.0028
 Red. masses --      4.1587                 3.8132                 2.8681
 Frc consts  --      0.0434                 0.0558                 0.0548
 IR Inten    --      8.1089                 1.6915                 2.7827

                     10                     11                     12
                      A                      A                      A
 Frequencies --    198.3018               215.5723               218.4738
 Red. masses --      4.1283                 2.8500                 1.2356
 Frc consts  --      0.0956                 0.0780                 0.0347
 IR Inten    --      1.0289                 2.1696                 0.7478

                     13                     14                     15
                      A                      A                      A
 Frequencies --    259.8223               278.2978               286.7487
 Red. masses --      3.4471                 2.5484                 3.4419
 Frc consts  --      0.1371                 0.1163                 0.1667
 IR Inten    --      0.9461                 2.7915                 1.9558

                     16                     17                     18
                      A                      A                      A
 Frequencies --    314.3029               327.4573               341.7758
 Red. masses --      2.3395                 2.9002                 2.3784
 Frc consts  --      0.1362                 0.1832                 0.1637
 IR Inten    --      1.2023                 4.6644                 2.8921

                     19                     20                     21
                      A                      A                      A
 Frequencies --    367.2238               407.1935               444.4466
 Red. masses --      3.8159                 3.4193                 4.0912
 Frc consts  --      0.3032                 0.3340                 0.4761
 IR Inten    --      1.0479                13.5140                 1.6085

                     22                     23                     24
                      A                      A                      A
 Frequencies --    459.5407               469.8595               480.2250
 Red. masses --      4.9214                 4.3001                 4.8885
 Frc consts  --      0.6123                 0.5593                 0.6642
 IR Inten    --     22.2367                 6.5326                 4.9678

                     25                     26                     27
                      A                      A                      A
 Frequencies --    490.1049               525.1735               534.6474
 Red. masses --      4.8302                 3.5522                 4.6151
 Frc consts  --      0.6836                 0.5772                 0.7773
 IR Inten    --      3.8552                 8.4992                 3.9921

                     28                     29                     30
                      A                      A                      A
 Frequencies --    560.7866               627.6864               643.9981
 Red. masses --      4.0580                 3.8985                 3.3335
 Frc consts  --      0.7519                 0.9050                 0.8146
 IR Inten    --      0.4187                 5.0882                 3.5826

                     31                     32                     33
                      A                      A                      A
 Frequencies --    652.3019               686.3072               716.4808
 Red. masses --      3.2678                 3.8463                 2.7746
 Frc consts  --      0.8192                 1.0674                 0.8392
 IR Inten    --     11.8220                 0.8896                11.3356

                     34                     35                     36
                      A                      A                      A
 Frequencies --    737.8100               775.2352               795.9356
 Red. masses --      2.5448                 1.8695                 1.8934
 Frc consts  --      0.8162                 0.6620                 0.7067
 IR Inten    --     50.7088                81.1431                34.2632

                     37                     38                     39
                      A                      A                      A
 Frequencies --    803.1607               831.5083               883.2623
 Red. masses --      1.7742                 3.7331                 2.1835
 Frc consts  --      0.6743                 1.5207                 1.0037
 IR Inten    --     15.9836                41.2662                12.4124

                     40                     41                     42
                      A                      A                      A
 Frequencies --    895.4077               907.7648               911.7663
 Red. masses --      1.3881                 2.5903                 2.1233
 Frc consts  --      0.6557                 1.2576                 1.0400
 IR Inten    --      1.9984                20.9128                25.4948

                     43                     44                     45
                      A                      A                      A
 Frequencies --    948.2828               952.0845               970.0765
 Red. masses --      2.3236                 1.2512                 1.9858
 Frc consts  --      1.2311                 0.6682                 1.1010
 IR Inten    --     17.5122                 2.0568                13.1327

                     46                     47                     48
                      A                      A                      A
 Frequencies --    988.4491               994.0502              1010.3363
 Red. masses --      1.3620                 1.7379                 2.4718
 Frc consts  --      0.7840                 1.0118                 1.4866
 IR Inten    --      0.1313                15.0802                 9.1731

                     49                     50                     51
                      A                      A                      A
 Frequencies --   1037.8872              1077.2967              1090.5235
 Red. masses --      1.8170                 2.5827                 2.6356
 Frc consts  --      1.1532                 1.7660                 1.8467
 IR Inten    --      3.1547                10.6297                61.5751

                     52                     53                     54
                      A                      A                      A
 Frequencies --   1102.6062              1108.9143              1114.5455
 Red. masses --      3.4194                 3.6480                 2.5493
 Frc consts  --      2.4493                 2.6430                 1.8658
 IR Inten    --     20.0952                 2.7628                32.6870

                     55                     56                     57
                      A                      A                      A
 Frequencies --   1133.6123              1140.5287              1144.6403
 Red. masses --      2.3971                 1.9565                 3.1569
 Frc consts  --      1.8150                 1.4995                 2.4370
 IR Inten    --    106.2671                10.2108                15.0024

                     58                     59                     60
                      A                      A                      A
 Frequencies --   1191.4281              1194.4323              1224.2030
 Red. masses --      1.2604                 1.1718                 1.2924
 Frc consts  --      1.0542                 0.9850                 1.1412
 IR Inten    --      2.4168                 8.4077                16.7017

                     61                     62                     63
                      A                      A                      A
 Frequencies --   1237.5139              1265.5378              1279.7749
 Red. masses --      4.0371                 1.5566                 1.3154
 Frc consts  --      3.6427                 1.4688                 1.2693
 IR Inten    --     30.4295                 5.7277                 6.8468

                     64                     65                     66
                      A                      A                      A
 Frequencies --   1296.5231              1300.2839              1305.4135
 Red. masses --      1.7505                 1.9642                 2.0817
 Frc consts  --      1.7337                 1.9566                 2.0901
 IR Inten    --     37.5666               128.8609                63.8276

                     67                     68                     69
                      A                      A                      A
 Frequencies --   1329.5254              1337.2098              1355.6109
 Red. masses --      1.7860                 1.6799                 1.5179
 Frc consts  --      1.8601                 1.7698                 1.6434
 IR Inten    --    114.2796                77.2521                 2.7249

                     70                     71                     72
                      A                      A                      A
 Frequencies --   1372.2134              1376.1015              1380.5993
 Red. masses --      2.1915                 1.2503                 1.2785
 Frc consts  --      2.4313                 1.3950                 1.4358
 IR Inten    --     44.0044                 5.4375                23.1514

                     73                     74                     75
                      A                      A                      A
 Frequencies --   1407.7707              1416.0360              1433.8195
 Red. masses --      1.4033                 1.3887                 1.3890
 Frc consts  --      1.6386                 1.6406                 1.6824
 IR Inten    --      4.5801                 2.1115                25.0083

                     76                     77                     78
                      A                      A                      A
 Frequencies --   1438.8713              1478.1146              1483.3896
 Red. masses --      1.3219                 1.0596                 1.0595
 Frc consts  --      1.6125                 1.3639                 1.3736
 IR Inten    --      1.3470                 7.2703                 5.3196

                     79                     80                     81
                      A                      A                      A
 Frequencies --   1488.7969              1498.4092              1504.3090
 Red. masses --      1.0920                 1.0946                 1.3660
 Frc consts  --      1.4261                 1.4481                 1.8213
 IR Inten    --      9.4302                10.8293                39.5155

                     82                     83                     84
                      A                      A                      A
 Frequencies --   1515.0015              1518.2736              1521.3650
 Red. masses --      1.4970                 1.7799                 1.2487
 Frc consts  --      2.0244                 2.4174                 1.7029
 IR Inten    --     43.5993                12.0512                44.1848

                     85                     86                     87
                      A                      A                      A
 Frequencies --   1533.3475              1536.3587              1554.9816
 Red. masses --      1.4318                 1.2786                 1.0887
 Frc consts  --      1.9834                 1.7782                 1.5510
 IR Inten    --     33.3132                26.9304                14.5761

                     88                     89                     90
                      A                      A                      A
 Frequencies --   1650.1705              1654.0429              3046.9461
 Red. masses --      7.0919                 6.4269                 1.0693
 Frc consts  --     11.3781                10.3596                 5.8490
 IR Inten    --     24.8210                 1.8980                52.7087

                     91                     92                     93
                      A                      A                      A
 Frequencies --   3058.5693              3059.2935              3060.9965
 Red. masses --      1.0633                 1.0646                 1.0630
 Frc consts  --      5.8607                 5.8705                 5.8682
 IR Inten    --     20.5627                10.6812                22.9523

                     94                     95                     96
                      A                      A                      A
 Frequencies --   3066.9643              3077.5998              3093.6101
 Red. masses --      1.0640                 1.0621                 1.0323
 Frc consts  --      5.8969                 5.9273                 5.8206
 IR Inten    --     46.6191                 2.9286                 4.5881

                     97                     98                     99
                      A                      A                      A
 Frequencies --   3095.9621              3116.0135              3124.3303
 Red. masses --      1.0970                 1.0994                 1.1017
 Frc consts  --      6.1952                 6.2894                 6.3359
 IR Inten    --     33.6662                10.0535                11.6772

                    100                    101                    102
                      A                      A                      A
 Frequencies --   3132.5260              3137.3255              3144.8869
 Red. masses --      1.1001                 1.1033                 1.1018
 Frc consts  --      6.3602                 6.3980                 6.4206
 IR Inten    --     23.1742                 5.8974                27.7808

                    103                    104                    105
                      A                      A                      A
 Frequencies --   3178.5278              3189.3008              3202.8452
 Red. masses --      1.0879                 1.1063                 1.0899
 Frc consts  --      6.4756                 6.6301                 6.5875
 IR Inten    --      8.1819                 0.6387                13.2985

                    106                    107                    108
                      A                      A                      A
 Frequencies --   3212.2408              3218.9363              3468.5048
 Red. masses --      1.1057                 1.0953                 1.0730
 Frc consts  --      6.7221                 6.6867                 7.6053
 IR Inten    --      9.9569                 9.4975                 3.6286

 - Thermochemistry -
 -------------------
 Temperature   298.150 Kelvin.  Pressure   1.00000 Atm.
 Atom     1 has atomic number  6 and mass  12.00000

 Molecular mass:   285.10348 amu.
 Principal axes and moments of inertia in atomic units:
                           1         2         3
     Eigenvalues --  3918.895286391.603386965.19433
           X            0.99950   0.03155  -0.00104
           Y           -0.03153   0.99935   0.01746
           Z            0.00159  -0.01742   0.99985
 This molecule is an asymmetric top.
 Rotational symmetry number  1.
 Warning -- assumption of classical behavior for rotation
           may cause significant error
 Rotational temperatures (Kelvin)      0.02210     0.01355     0.01244
 Rotational constants (GHZ):           0.46052     0.28236     0.25911
 Zero-point vibrational energy     834415.5 (Joules/Mol)
                                  199.43009 (Kcal/Mol)
 Warning -- explicit consideration of  28 degrees of freedom as
           vibrations may cause significant error
 Vibrational temperatures:     47.88    68.55    84.21   103.98   123.74
          (Kelvin)            154.89   191.52   226.84   258.98   285.31
                              310.16   314.34   373.83   400.41   412.57
                              452.21   471.14   491.74   528.35   585.86
                              639.46   661.18   676.02   690.94   705.15
                              755.61   769.24   806.85   903.10   926.57
                              938.52   987.44  1030.86  1061.54  1115.39
                             1145.17  1155.57  1196.36  1270.82  1288.29
                             1306.07  1311.83  1364.37  1369.84  1395.72
                             1422.16  1430.22  1453.65  1493.29  1549.99
                             1569.02  1586.40  1595.48  1603.58  1631.02
                             1640.97  1646.88  1714.20  1718.52  1761.36
                             1780.51  1820.83  1841.31  1865.41  1870.82
                             1878.20  1912.89  1923.95  1950.42  1974.31
                             1979.90  1986.37  2025.47  2037.36  2062.95
                             2070.21  2126.68  2134.27  2142.05  2155.88
                             2164.37  2179.75  2184.46  2188.90  2206.15
                             2210.48  2237.27  2374.23  2379.80  4383.88
                             4400.60  4401.64  4404.09  4412.68  4427.98
                             4451.01  4454.40  4483.25  4495.21  4507.01
                             4513.91  4524.79  4573.19  4588.69  4608.18
                             4621.70  4631.33  4990.40

 Zero-point correction=                           0.317812 (Hartree/Particle)
 Thermal correction to Energy=                    0.335956
 Thermal correction to Enthalpy=                  0.336901
 Thermal correction to Gibbs Free Energy=         0.271500
 Sum of electronic and zero-point Energies=          -1260.340093
 Sum of electronic and thermal Energies=             -1260.321949
 Sum of electronic and thermal Enthalpies=           -1260.321005
 Sum of electronic and thermal Free Energies=        -1260.386405

                     E (Thermal)             CV                S
                      KCal/Mol        Cal/Mol-Kelvin    Cal/Mol-Kelvin
 Total                  210.816             70.329            137.646
 Electronic               0.000              0.000              0.000
 Translational            0.889              2.981             42.841
 Rotational               0.889              2.981             33.522
 Vibrational            209.038             64.367             61.283
 Vibration     1          0.594              1.983              5.624
 Vibration     2          0.595              1.978              4.913
 Vibration     3          0.596              1.974              4.506
 Vibration     4          0.598              1.967              4.090
 Vibration     5          0.601              1.959              3.749
 Vibration     6          0.606              1.943              3.311
 Vibration     7          0.613              1.920              2.901
 Vibration     8          0.621              1.894              2.578
 Vibration     9          0.629              1.867              2.328
 Vibration    10          0.637              1.842              2.149
 Vibration    11          0.645              1.817              1.996
 Vibration    12          0.646              1.813              1.972
 Vibration    13          0.668              1.746              1.663
 Vibration    14          0.679              1.714              1.544
 Vibration    15          0.684              1.698              1.493
 Vibration    16          0.702              1.646              1.340
 Vibration    17          0.711              1.621              1.273
 Vibration    18          0.721              1.592              1.204
 Vibration    19          0.740              1.540              1.091
 Vibration    20          0.772              1.455              0.937
 Vibration    21          0.804              1.373              0.813
 Vibration    22          0.817              1.340              0.767
 Vibration    23          0.827              1.317              0.738
 Vibration    24          0.837              1.294              0.709
 Vibration    25          0.846              1.272              0.683
 Vibration    26          0.880              1.194              0.598
 Vibration    27          0.890              1.173              0.577
 Vibration    28          0.916              1.116              0.522

                           ! Non-Optimized Parameters !
 Normal termination of Gaussian 16 at Sun Dec 13 16:55:02 2020.

 ----------------------------------------------------------------------
 # B3LYP/6-311++G(d,p) empiricaldispersion=gd3bj scf=xqc pop=npa geom=c
 heck
 ----------------------------------------------------------------------

 --------------------------------------
 CID_54904438_JID_9873_Energie_neutraal
 --------------------------------------
 Structure from the checkpoint file:  "JID_9873.chk"
 Charge =  0 Multiplicity = 1

 SCF Done:  E(RB3LYP) =  -1260.92912417     A.U. after   16 cycles
 Normal termination of Gaussian 16 at Sun Dec 13 17:06:35 2020.

 ----------------------------------------------------------------------
 # B3LYP/6-311++G(d,p) empiricaldispersion=gd3bj scf=xqc pop=npa geom=c
 heck
 ----------------------------------------------------------------------

 ------------------------------------
 CID_54904438_JID_9873_Energie_kation
 ------------------------------------
 Structure from the checkpoint file:  "JID_9873.chk"
 Charge =  1 Multiplicity = 2

 SCF Done:  E(UB3LYP) =  -1260.63741303     A.U. after   25 cycles
 Normal termination of Gaussian 16 at Sun Dec 13 17:33:24 2020.
 Gaussian 16:  ES64L-G16RevA.03 25-Dec-2016

 ----------------------------------------------------------------------
 # B3LYP/6-311++G(d,p) empiricaldispersion=gd3bj scf=xqc pop=npa geom=c
 heck
 ----------------------------------------------------------------------

 -----------------------------------
 CID_54904438_JID_9873_Energie_anion
 -----------------------------------
 Structure from the checkpoint file:  "JID_9873.chk"
 Charge = -1 Multiplicity = 2

                         Standard orientation:
 ---------------------------------------------------------------------
 Center     Atomic      Atomic             Coordinates (Angstroms)
 Number     Number       Type             X           Y           Z
 ---------------------------------------------------------------------
      1          6           0        1.159208   -0.795790    1.537790
      2         16           0        2.490179   -0.982773    0.336862
      3          8           0        3.583039   -1.718861    0.993407
      4          8           0        1.897017   -1.499415   -0.913574
      5          6           0        3.088873    0.731820    0.060913
      6          6           0        2.541829    1.410518   -1.197471
      7          6           0        1.027297    1.600461   -1.250138
      8          7           0        0.550302    2.610406   -0.299909
      9          6           0       -0.919601    2.682594   -0.210810
     10          6           0       -1.553707    1.484511    0.473991
     11          6           0       -1.872509    0.320070   -0.242985
     12          6           0       -2.258013   -0.848809    0.437261
     13          6           0       -2.423280   -0.830798    1.821722
     14          6           0       -2.173686    0.339858    2.534218
     15          6           0       -1.724384    1.478189    1.863316
     16          8           0       -2.455978   -2.030745   -0.229774
     17          6           0       -1.805408   -2.057892   -1.504816
     18          6           0       -2.203966   -0.822729   -2.290430
     19          8           0       -1.764935    0.355787   -1.611260
     20          1           0        0.726520   -1.788617    1.674230
     21          1           0        0.401999   -0.113488    1.153701
     22          1           0        1.579036   -0.435221    2.478591
     23          1           0        2.875198    1.282876    0.983405
     24          1           0        4.173615    0.606484   -0.000144
     25          1           0        3.037471    2.385037   -1.286688
     26          1           0        2.840143    0.808388   -2.061188
     27          1           0        0.754426    1.948211   -2.253432
     28          1           0        0.549121    0.622058   -1.131626
     29          1           0        0.904696    2.396992    0.632241
     30          1           0       -1.174416    3.588598    0.349971
     31          1           0       -1.307751    2.801276   -1.226097
     32          1           0       -2.734261   -1.746764    2.313736
     33          1           0       -2.310722    0.356731    3.611036
     34          1           0       -1.497210    2.384089    2.420254
     35          1           0       -2.139667   -2.971260   -2.001252
     36          1           0       -0.716271   -2.089022   -1.367548
     37          1           0       -1.731091   -0.800020   -3.275306
     38          1           0       -3.294885   -0.790974   -2.410066
 ---------------------------------------------------------------------

 SCF Done:  E(UB3LYP) =  -1260.91993872     A.U. after   33 cycles
 SCF Done:  E(UB3LYP) =  -1260.91993872     a.u. after    1 cycles

 The electronic state is 2-A.
 Alpha  occ. eigenvalues --  -88.95275 -19.07123 -19.07005 -19.02191 -19.02003
 Alpha  occ. eigenvalues --  -14.20991 -10.14792 -10.14769 -10.14741 -10.14414
 Alpha  occ. eigenvalues --  -10.12200 -10.11076 -10.10809 -10.09929 -10.09444
 Alpha  occ. eigenvalues --  -10.09327 -10.08701 -10.08452 -10.08313  -8.01763
 Alpha  occ. eigenvalues --   -5.98024  -5.97917  -5.97863  -1.01232  -1.00637
 Alpha  occ. eigenvalues --   -0.97008  -0.90935  -0.82068  -0.77216  -0.72388
 Alpha  occ. eigenvalues --   -0.69406  -0.68497  -0.67322  -0.62949  -0.62481
 Alpha  occ. eigenvalues --   -0.58892  -0.57279  -0.53441  -0.51089  -0.49007
 Alpha  occ. eigenvalues --   -0.48662  -0.45797  -0.43611  -0.43204  -0.42058
 Alpha  occ. eigenvalues --   -0.40938  -0.38732  -0.38281  -0.37826  -0.37555
 Alpha  occ. eigenvalues --   -0.36598  -0.36075  -0.35668  -0.35041  -0.34385
 Alpha  occ. eigenvalues --   -0.34325  -0.33531  -0.32328  -0.31835  -0.30621
 Alpha  occ. eigenvalues --   -0.29913  -0.29207  -0.28163  -0.27439  -0.26727
 Alpha  occ. eigenvalues --   -0.25831  -0.24948  -0.24146  -0.23563  -0.22642
 Alpha  occ. eigenvalues --   -0.22056  -0.21218  -0.19821  -0.16089  -0.13549
 Alpha  occ. eigenvalues --   -0.13278   0.03855
 Alpha virt. eigenvalues --    0.05367   0.06481   0.06823   0.07434   0.07690
 Alpha virt. eigenvalues --    0.08324   0.08458   0.08682   0.09059   0.09905
 Alpha virt. eigenvalues --    0.10257   0.10659   0.11289   0.11768   0.12060

  Beta  occ. eigenvalues --  -88.95274 -19.07122 -19.07005 -19.02180 -19.01999
  Beta  occ. eigenvalues --  -14.20964 -10.14784 -10.14744 -10.14725 -10.14398
  Beta  occ. eigenvalues --  -10.12164 -10.11046 -10.10801 -10.09924 -10.09433
  Beta  occ. eigenvalues --  -10.09321 -10.08684 -10.08423 -10.08297  -8.01761
  Beta  occ. eigenvalues --   -5.98022  -5.97915  -5.97862  -1.01211  -1.00626
  Beta  occ. eigenvalues --   -0.97000  -0.90914  -0.82028  -0.77181  -0.72350
  Beta  occ. eigenvalues --   -0.69367  -0.68461  -0.67284  -0.62909  -0.62439
  Beta  occ. eigenvalues --   -0.58844  -0.57238  -0.53405  -0.51050  -0.48953
  Beta  occ. eigenvalues --   -0.48613  -0.45774  -0.43582  -0.43170  -0.42020
  Beta  occ. eigenvalues --   -0.40908  -0.38708  -0.38247  -0.37790  -0.37518
  Beta  occ. eigenvalues --   -0.36557  -0.36048  -0.35639  -0.35003  -0.34346
  Beta  occ. eigenvalues --   -0.34299  -0.33505  -0.32290  -0.31818  -0.30582
  Beta  occ. eigenvalues --   -0.29882  -0.29183  -0.28122  -0.27411  -0.26698
  Beta  occ. eigenvalues --   -0.25804  -0.24922  -0.24113  -0.23525  -0.22632
  Beta  occ. eigenvalues --   -0.22029  -0.21203  -0.19800  -0.16031  -0.13519
  Beta  occ. eigenvalues --   -0.13210
  Beta virt. eigenvalues --    0.06016   0.06526   0.06904   0.07151   0.07712
  Beta virt. eigenvalues --    0.08198   0.08646   0.08815   0.09142   0.09283
  Beta virt. eigenvalues --    0.10116   0.10669   0.10871   0.11520   0.12024

 Mulliken charges and spin densities:
               1          2
     1  C   -0.743470   0.193333
     2  S    0.299549  -0.103090
     3  O   -0.197498   0.037517
     4  O   -0.184430   0.002527
     5  C   -0.367395  -0.201092
     6  C   -0.038502  -0.470036
     7  C   -0.375770   0.124061
     8  N    0.101110   0.008261
     9  C    0.328703  -1.389664
    10  C   -0.754595   1.323172
    11  C   -0.532993   0.996881
    12  C   -0.215583  -0.262812
    13  C    0.721309  -0.930103
    14  C    0.468274  -0.747977
    15  C    0.055804  -0.282301
    16  O   -0.080877   0.022713
    17  C   -0.666482   0.288091
    18  C    1.094389  -1.175470
    19  O   -0.043882   0.000787
    20  H    0.075700   0.150534
    21  H    1.413463  -1.241821
    22  H   -0.231993   0.497058
    23  H   -0.313341   0.554940
    24  H   -0.003603   0.253454
    25  H   -0.084311   0.272355
    26  H    0.103243   0.085817
    27  H    0.070366   0.126526
    28  H    0.631772  -0.565944
    29  H    0.050671   0.173645
    30  H   -0.008730   0.194699
    31  H    0.094548   0.082870
    32  H    0.060996   0.124171
    33  H   -0.474135   0.658363
    34  H   -0.676549   0.853497
    35  H   -0.483214   0.669983
    36  H    0.231280  -0.002942
    37  H   -0.224421   0.406655
    38  H   -0.099402   0.271342
 Sum of Mulliken charges =  -1.00000   1.00000

 Dipole moment (field-independent basis, Debye):
    X=             -1.1663    Y=             -0.2823    Z=             -2.8734  Tot=              3.1139
 Quadrupole moment (field-independent basis, Debye-Ang):
   XX=           -183.7073   YY=           -176.3464   ZZ=           -176.3431
   XY=              0.8825   XZ=             -5.8170   YZ=            -13.9739

 Summary of Natural Population Analysis:

                                       Natural Population
                Natural  -----------------------------------------------
    Atom  No    Charge         Core      Valence    Rydberg      Total
 -----------------------------------------------------------------------
      C    1   -0.39328      0.99960     2.38281    0.01088     3.39328
      S    2    1.01409      4.99932     1.89394    0.09266     6.98591
      O    3   -0.47088      0.99991     3.46541    0.00556     4.47088
      O    4   -0.47383      0.99991     3.46836    0.00556     4.47383
      C    5   -0.28735      0.99957     2.27641    0.01137     3.28735
      C    6   -0.20377      0.99961     2.19377    0.01039     3.20377
      C    7   -0.09388      0.99960     2.08351    0.01077     3.09388
      N    8   -0.33427      0.99975     2.82287    0.01164     3.83427
      C    9   -0.09410      0.99958     2.08181    0.01270     3.09410
      C   10   -0.04629      0.99947     2.03578    0.01104     3.04629
      C   11    0.13029      0.99929     1.85784    0.01258     2.86971
      C   12    0.12344      0.99934     1.86321    0.01401     2.87656
      C   13   -0.11639      0.99952     2.10651    0.01036     3.11639
      C   14   -0.10334      0.99957     2.09315    0.01063     3.10334
      C   15   -0.10839      0.99952     2.09740    0.01147     3.10839
      O   16   -0.27450      0.99987     3.26580    0.00884     4.27450
      C   17   -0.03193      0.99957     2.02092    0.01143     3.03193
      C   18   -0.02175      0.99957     2.01034    0.01184     3.02175
      O   19   -0.27719      0.99986     3.26823    0.00909     4.27719
      H   20    0.12068      0.00000     0.37836    0.00096     0.37932
      H   21    0.11871      0.00000     0.37822    0.00307     0.38129
      H   22    0.11779      0.00000     0.38086    0.00135     0.38221
      H   23    0.11460      0.00000     0.38319    0.00221     0.38540
      H   24    0.11967      0.00000     0.37923    0.00110     0.38033
      H   25    0.10686      0.00000     0.39182    0.00131     0.39314
      H   26    0.10810      0.00000     0.39086    0.00104     0.39190
      H   27    0.09410      0.00000     0.40473    0.00117     0.40590
      H   28    0.09246      0.00000     0.40470    0.00284     0.40754
      H   29    0.16991      0.00000     0.32514    0.00495     0.33009
      H   30    0.09884      0.00000     0.40008    0.00108     0.40116
      H   31    0.10134      0.00000     0.39723    0.00143     0.39866
      H   32    0.10704      0.00000     0.39188    0.00107     0.39296
      H   33    0.10395      0.00000     0.39478    0.00126     0.39605
      H   34    0.10529      0.00000     0.39264    0.00207     0.39471
      H   35    0.09810      0.00000     0.40045    0.00146     0.40190
      H   36    0.09987      0.00000     0.39827    0.00185     0.40013
      H   37    0.09841      0.00000     0.40031    0.00128     0.40159
      H   38    0.08758      0.00000     0.41098    0.00144     0.41242
 =======================================================================
   * Total *   -0.00000     22.99243    52.69181    0.31576    76.00000

 Normal termination of Gaussian 16 at Sun Dec 13 18:08:29 2020.
