 Gaussian 16, Revision A.03,

 -----------------------------------------------------------
 # opt freq B3LYP/6-31G(d) empiricaldispersion=gd3bj scf=xqc
 -----------------------------------------------------------

 -------------------------------
 CID_116679457_JID_4221_neutraal
 -------------------------------
 Symbolic Z-matrix:
 Charge =  0 Multiplicity = 1

 SCF Done:  E(RB3LYP) =  -617.123344496     A.U. after   13 cycles
 SCF Done:  E(RB3LYP) =  -617.133044634     A.U. after   11 cycles
 SCF Done:  E(RB3LYP) =  -617.133357020     A.U. after   11 cycles
 SCF Done:  E(RB3LYP) =  -617.133914099     A.U. after   10 cycles
 SCF Done:  E(RB3LYP) =  -617.134195415     A.U. after   10 cycles
 SCF Done:  E(RB3LYP) =  -617.134360741     A.U. after   10 cycles
 SCF Done:  E(RB3LYP) =  -617.134466085     A.U. after   10 cycles
 SCF Done:  E(RB3LYP) =  -617.134705592     A.U. after   11 cycles
 SCF Done:  E(RB3LYP) =  -617.135584431     A.U. after   13 cycles
 SCF Done:  E(RB3LYP) =  -617.135970056     A.U. after   11 cycles
 SCF Done:  E(RB3LYP) =  -617.137396105     A.U. after   10 cycles
 SCF Done:  E(RB3LYP) =  -617.137418653     A.U. after    9 cycles
 SCF Done:  E(RB3LYP) =  -617.137421207     A.U. after    7 cycles
 SCF Done:  E(RB3LYP) =  -617.137422861     A.U. after    8 cycles
 SCF Done:  E(RB3LYP) =  -617.137422949     A.U. after    6 cycles
 SCF Done:  E(RB3LYP) =  -617.137422967     A.U. after    6 cycles
 Optimization completed.
    -- Stationary point found.
 Normal termination of Gaussian 16 at Thu Dec 10 09:29:21 2020.

 --------------------------------------------------------------------
 #N Geom=AllCheck Guess=TCheck SCRF=Check GenChk RB3LYP/6-31G(d) Freq
 --------------------------------------------------------------------

 Structure from the checkpoint file:  "JID_4221.chk"
 -------------------------------
 CID_116679457_JID_4221_neutraal
 -------------------------------
 Charge =  0 Multiplicity = 1

 SCF Done:  E(RB3LYP) =  -617.137422967     A.U. after    1 cycles

  Exact polarizability: 142.776   1.975 129.358  -0.998  -2.584 111.814
 Approx polarizability: 178.969   1.173 175.490  -0.339  -4.004 174.604

                      1                      2                      3
                      A                      A                      A
 Frequencies --     33.2208                57.4752                62.4247
 Red. masses --      2.7864                 4.2398                 3.1098
 Frc consts  --      0.0018                 0.0083                 0.0071
 IR Inten    --      0.3467                 0.3351                 0.1095

                      4                      5                      6
                      A                      A                      A
 Frequencies --     90.2209               130.4879               151.2017
 Red. masses --      3.1333                 3.0743                 3.0565
 Frc consts  --      0.0150                 0.0308                 0.0412
 IR Inten    --      0.9301                 2.7659                 3.8747

                      7                      8                      9
                      A                      A                      A
 Frequencies --    163.7632               218.5250               241.4764
 Red. masses --      3.5375                 1.4287                 1.7235
 Frc consts  --      0.0559                 0.0402                 0.0592
 IR Inten    --      0.3481                 0.9781                 0.7060

                     10                     11                     12
                      A                      A                      A
 Frequencies --    249.7542               287.1290               318.4014
 Red. masses --      2.3360                 1.9695                 2.5368
 Frc consts  --      0.0858                 0.0957                 0.1515
 IR Inten    --      3.3517                 0.0237                 5.4217

                     13                     14                     15
                      A                      A                      A
 Frequencies --    360.0985               379.8496               404.8497
 Red. masses --      3.4927                 2.1102                 1.8612
 Frc consts  --      0.2668                 0.1794                 0.1797
 IR Inten    --      1.7813                 3.1861                 0.3485

                     16                     17                     18
                      A                      A                      A
 Frequencies --    420.4068               471.5468               482.2615
 Red. masses --      3.0461                 2.3604                 2.8841
 Frc consts  --      0.3172                 0.3092                 0.3952
 IR Inten    --      0.0530                 1.6154                 0.0609

                     19                     20                     21
                      A                      A                      A
 Frequencies --    500.7798               557.3400               605.1048
 Red. masses --      1.9031                 2.3042                 2.3087
 Frc consts  --      0.2812                 0.4217                 0.4980
 IR Inten    --      0.2001                 7.7514                 9.9348

                     22                     23                     24
                      A                      A                      A
 Frequencies --    669.5258               780.4774               802.3132
 Red. masses --      2.0449                 2.2339                 2.4674
 Frc consts  --      0.5401                 0.8017                 0.9358
 IR Inten    --     82.5374                 6.3593                 5.7739

                     25                     26                     27
                      A                      A                      A
 Frequencies --    830.2462               836.5991               871.7208
 Red. masses --      2.1113                 1.6907                 1.6162
 Frc consts  --      0.8574                 0.6972                 0.7236
 IR Inten    --      5.1429                 1.3153                 0.9397

                     28                     29                     30
                      A                      A                      A
 Frequencies --    885.3464               909.3273               935.2688
 Red. masses --      2.5757                 2.7221                 1.9730
 Frc consts  --      1.1895                 1.3261                 1.0168
 IR Inten    --      8.3947                48.7629                 2.4861

                     31                     32                     33
                      A                      A                      A
 Frequencies --    950.8987               961.8780               992.4741
 Red. masses --      1.9803                 1.7169                 2.1309
 Frc consts  --      1.0550                 0.9359                 1.2367
 IR Inten    --     15.1427                 3.4939                 6.3748

                     34                     35                     36
                      A                      A                      A
 Frequencies --    996.8118              1016.4325              1027.8491
 Red. masses --      2.1109                 1.5321                 2.0627
 Frc consts  --      1.2358                 0.9326                 1.2839
 IR Inten    --      0.5173                12.9943                19.4823

                     37                     38                     39
                      A                      A                      A
 Frequencies --   1038.3437              1046.5436              1081.4351
 Red. masses --      2.7577                 2.4647                 2.3001
 Frc consts  --      1.7518                 1.5905                 1.5849
 IR Inten    --     12.6640                 1.1526                 5.9212

                     40                     41                     42
                      A                      A                      A
 Frequencies --   1090.0949              1099.7464              1117.9198
 Red. masses --      2.0948                 2.1307                 2.7160
 Frc consts  --      1.4666                 1.5183                 1.9999
 IR Inten    --      7.1154                22.8830                33.5001

                     43                     44                     45
                      A                      A                      A
 Frequencies --   1133.9007              1146.0735              1155.3086
 Red. masses --      1.3633                 1.5978                 1.8687
 Frc consts  --      1.0327                 1.2365                 1.4695
 IR Inten    --      7.6856                10.3479                14.1942

                     46                     47                     48
                      A                      A                      A
 Frequencies --   1169.5258              1174.2506              1189.7493
 Red. masses --      2.4225                 1.8548                 1.8038
 Frc consts  --      1.9522                 1.5068                 1.5044
 IR Inten    --      8.7393                16.7730                21.1248

                     49                     50                     51
                      A                      A                      A
 Frequencies --   1209.1704              1211.0315              1245.7378
 Red. masses --      1.3194                 1.2771                 1.4709
 Frc consts  --      1.1366                 1.1036                 1.3449
 IR Inten    --      6.3186                 1.3779                14.8125

                     52                     53                     54
                      A                      A                      A
 Frequencies --   1272.7120              1287.9195              1291.4221
 Red. masses --      1.6856                 1.3981                 1.3308
 Frc consts  --      1.6087                 1.3664                 1.3077
 IR Inten    --     47.9202                 3.8530                10.3156

                     55                     56                     57
                      A                      A                      A
 Frequencies --   1295.1622              1300.3109              1327.4725
 Red. masses --      1.3159                 1.4798                 1.3252
 Frc consts  --      1.3006                 1.4741                 1.3759
 IR Inten    --      8.0021                 3.0381                 1.7618

                     58                     59                     60
                      A                      A                      A
 Frequencies --   1346.3950              1355.7939              1365.5234
 Red. masses --      1.4454                 1.3877                 1.1769
 Frc consts  --      1.5438                 1.5029                 1.2930
 IR Inten    --      8.1665                 2.4997                 6.4089

                     61                     62                     63
                      A                      A                      A
 Frequencies --   1372.4993              1390.6213              1394.0874
 Red. masses --      1.4801                 1.3151                 1.3372
 Frc consts  --      1.6428                 1.4984                 1.5312
 IR Inten    --      4.0453                 7.5074                12.7728

                     64                     65                     66
                      A                      A                      A
 Frequencies --   1396.1986              1410.9083              1412.7915
 Red. masses --      1.2998                 1.3541                 1.3753
 Frc consts  --      1.4929                 1.5882                 1.6174
 IR Inten    --      0.8532                32.6830                 5.6215

                     67                     68                     69
                      A                      A                      A
 Frequencies --   1421.7723              1425.4711              1449.6922
 Red. masses --      1.4977                 1.4399                 1.3287
 Frc consts  --      1.7837                 1.7238                 1.6453
 IR Inten    --     30.1314                12.3943                 8.0063

                     70                     71                     72
                      A                      A                      A
 Frequencies --   1488.5357              1505.4085              1508.7306
 Red. masses --      1.1670                 1.0933                 1.0810
 Frc consts  --      1.5235                 1.4599                 1.4498
 IR Inten    --      0.8566                 0.7354                 5.1538

                     73                     74                     75
                      A                      A                      A
 Frequencies --   1517.1162              1521.3202              1523.8994
 Red. masses --      1.0918                 1.0772                 1.0601
 Frc consts  --      1.4806                 1.4689                 1.4505
 IR Inten    --     10.0630                 1.2435                 4.0207

                     76                     77                     78
                      A                      A                      A
 Frequencies --   1527.6916              1535.6915              1537.0143
 Red. masses --      1.0923                 1.0859                 1.1058
 Frc consts  --      1.5019                 1.5089                 1.5391
 IR Inten    --      2.6038                 3.8530                 4.0444

                     79                     80                     81
                      A                      A                      A
 Frequencies --   1550.0004              1561.5590              2890.3774
 Red. masses --      1.0538                 1.1133                 1.0790
 Frc consts  --      1.4917                 1.5996                 5.3109
 IR Inten    --      7.4336                 2.9760                49.8376

                     82                     83                     84
                      A                      A                      A
 Frequencies --   2944.3450              2961.7947              2970.1215
 Red. masses --      1.0627                 1.0727                 1.0726
 Frc consts  --      5.4282                 5.5444                 5.5750
 IR Inten    --     69.7753                22.6587               111.7060

                     85                     86                     87
                      A                      A                      A
 Frequencies --   2996.2934              3004.9563              3031.7806
 Red. masses --      1.0635                 1.0664                 1.0631
 Frc consts  --      5.6256                 5.6735                 5.7572
 IR Inten    --     95.3366                68.4778                14.4487

                     88                     89                     90
                      A                      A                      A
 Frequencies --   3046.7593              3058.0749              3058.7962
 Red. masses --      1.0689                 1.0603                 1.0984
 Frc consts  --      5.8458                 5.8424                 6.0549
 IR Inten    --     34.1911                 9.3903                44.3144

                     91                     92                     93
                      A                      A                      A
 Frequencies --   3063.9154              3064.2739              3068.7003
 Red. masses --      1.0886                 1.0751                 1.1013
 Frc consts  --      6.0209                 5.9476                 6.1103
 IR Inten    --     22.7233                48.1795                20.9831

                     94                     95                     96
                      A                      A                      A
 Frequencies --   3088.5102              3105.9517              3107.7679
 Red. masses --      1.0715                 1.0984                 1.0930
 Frc consts  --      6.0220                 6.2429                 6.2199
 IR Inten    --     47.9805                28.2365                30.6456

                     97                     98                     99
                      A                      A                      A
 Frequencies --   3109.6433              3110.6058              3120.4753
 Red. masses --      1.0942                 1.0940                 1.0873
 Frc consts  --      6.2341                 6.2366                 6.2378
 IR Inten    --     37.7648                63.6555                51.4865

                    100                    101                    102
                      A                      A                      A
 Frequencies --   3127.5337              3131.0017              3502.8365
 Red. masses --      1.0954                 1.1019                 1.0761
 Frc consts  --      6.3128                 6.3642                 7.7795
 IR Inten    --     29.1498                37.0462                 5.0989

 - Thermochemistry -
 -------------------
 Temperature   298.150 Kelvin.  Pressure   1.00000 Atm.
 Atom     1 has atomic number  6 and mass  12.00000

 Molecular mass:   198.17321 amu.
 Principal axes and moments of inertia in atomic units:
                           1         2         3
     Eigenvalues --  1725.873994514.604105582.04682
           X            0.99995   0.00984  -0.00232
           Y           -0.00986   0.99992  -0.00799
           Z            0.00224   0.00801   0.99997
 This molecule is an asymmetric top.
 Rotational symmetry number  1.
 Warning -- assumption of classical behavior for rotation
           may cause significant error
 Rotational temperatures (Kelvin)      0.05019     0.01919     0.01552
 Rotational constants (GHZ):           1.04570     0.39976     0.32331
 Zero-point vibrational energy     871004.3 (Joules/Mol)
                                  208.17503 (Kcal/Mol)
 Warning -- explicit consideration of  21 degrees of freedom as
           vibrations may cause significant error
 Vibrational temperatures:     47.80    82.69    89.82   129.81   187.74
          (Kelvin)            217.55   235.62   314.41   347.43   359.34
                              413.11   458.11   518.10   546.52   582.49
                              604.87   678.45   693.87   720.51   801.89
                              870.61   963.30  1122.93  1154.35  1194.54
                             1203.68  1254.21  1273.82  1308.32  1345.64
                             1368.13  1383.93  1427.95  1434.19  1462.42
                             1478.85  1493.94  1505.74  1555.94  1568.40
                             1582.29  1608.44  1631.43  1648.94  1662.23
                             1682.69  1689.48  1711.78  1739.73  1742.40
                             1792.34  1831.15  1853.03  1858.07  1863.45
                             1870.86  1909.94  1937.16  1950.68  1964.68
                             1974.72  2000.79  2005.78  2008.82  2029.98
                             2032.69  2045.61  2050.93  2085.78  2141.67
                             2165.95  2170.73  2182.79  2188.84  2192.55
                             2198.01  2209.52  2211.42  2230.10  2246.74
                             4158.61  4236.26  4261.36  4273.34  4311.00
                             4323.46  4362.06  4383.61  4399.89  4400.93
                             4408.29  4408.81  4415.18  4443.68  4468.77
                             4471.38  4474.08  4475.47  4489.67  4499.82
                             4504.81  5039.80

 Zero-point correction=                           0.331748 (Hartree/Particle)
 Thermal correction to Energy=                    0.345856
 Thermal correction to Enthalpy=                  0.346800
 Thermal correction to Gibbs Free Energy=         0.290178
 Sum of electronic and zero-point Energies=           -616.805675
 Sum of electronic and thermal Energies=              -616.791567
 Sum of electronic and thermal Enthalpies=            -616.790623
 Sum of electronic and thermal Free Energies=         -616.847245

                     E (Thermal)             CV                S
                      KCal/Mol        Cal/Mol-Kelvin    Cal/Mol-Kelvin
 Total                  217.028             54.658            119.173
 Electronic               0.000              0.000              0.000
 Translational            0.889              2.981             41.757
 Rotational               0.889              2.981             32.142
 Vibrational            215.251             48.696             45.274
 Vibration     1          0.594              1.983              5.627
 Vibration     2          0.596              1.975              4.542
 Vibration     3          0.597              1.972              4.379
 Vibration     4          0.602              1.956              3.655
 Vibration     5          0.612              1.923              2.939
 Vibration     6          0.619              1.901              2.657
 Vibration     7          0.623              1.887              2.506
 Vibration     8          0.646              1.813              1.971
 Vibration     9          0.658              1.777              1.792
 Vibration    10          0.663              1.763              1.732
 Vibration    11          0.684              1.698              1.491
 Vibration    12          0.705              1.638              1.318
 Vibration    13          0.735              1.554              1.122
 Vibration    14          0.750              1.513              1.040
 Vibration    15          0.770              1.460              0.945
 Vibration    16          0.783              1.426              0.891
 Vibration    17          0.828              1.313              0.733
 Vibration    18          0.838              1.289              0.704
 Vibration    19          0.856              1.248              0.656
 Vibration    20          0.913              1.124              0.529
 Vibration    21          0.964              1.021              0.441

 Optimization completed.
    -- Stationary point found.
 Normal termination of Gaussian 16 at Thu Dec 10 09:40:11 2020.

 ----------------------------------------------------------------------
 # B3LYP/6-311++G(d,p) empiricaldispersion=gd3bj scf=xqc pop=npa geom=c
 heck
 ----------------------------------------------------------------------

 ---------------------------------------
 CID_116679457_JID_4221_Energie_neutraal
 ---------------------------------------
 Structure from the checkpoint file:  "JID_4221.chk"
 Charge =  0 Multiplicity = 1

 SCF Done:  E(RB3LYP) =  -617.312812917     A.U. after   13 cycles
 Normal termination of Gaussian 16 at Thu Dec 10 09:45:14 2020.

 ----------------------------------------------------------------------
 # B3LYP/6-311++G(d,p) empiricaldispersion=gd3bj scf=xqc pop=npa geom=c
 heck
 ----------------------------------------------------------------------

 -------------------------------------
 CID_116679457_JID_4221_Energie_kation
 -------------------------------------
 Structure from the checkpoint file:  "JID_4221.chk"
 Charge =  1 Multiplicity = 2

 SCF Done:  E(UB3LYP) =  -617.033066131     A.U. after   27 cycles
 Normal termination of Gaussian 16 at Thu Dec 10 09:59:51 2020.
 Gaussian 16:  ES64L-G16RevA.03 25-Dec-2016

 ----------------------------------------------------------------------
 # B3LYP/6-311++G(d,p) empiricaldispersion=gd3bj scf=xqc pop=npa geom=c
 heck
 ----------------------------------------------------------------------

 ------------------------------------
 CID_116679457_JID_4221_Energie_anion
 ------------------------------------
 Structure from the checkpoint file:  "JID_4221.chk"
 Charge = -1 Multiplicity = 2

                         Standard orientation:
 ---------------------------------------------------------------------
 Center     Atomic      Atomic             Coordinates (Angstroms)
 Number     Number       Type             X           Y           Z
 ---------------------------------------------------------------------
      1          6           0        0.574763    2.756023   -0.356223
      2          7           0        0.534491    1.583696    0.505532
      3          6           0       -0.791178    1.389252    1.102498
      4          6           0       -2.002965    1.171444    0.171456
      5          6           0       -2.117092   -0.203998   -0.483847
      6          6           0       -2.518102   -1.352367    0.483071
      7          7           0       -3.927500   -1.181868    0.061819
      8          6           0       -3.491510   -0.462197   -1.157853
      9          6           0        1.205908    0.417772   -0.079084
     10          6           0        1.121640   -0.820767    0.825733
     11          6           0        1.952709   -1.972922    0.260114
     12          8           0        3.312746   -1.618390    0.076136
     13          6           0        3.434907   -0.528618   -0.824031
     14          6           0        2.697171    0.715616   -0.329989
     15          1           0        0.001988    3.563639    0.110361
     16          1           0        0.155253    2.584653   -1.366044
     17          1           0        1.600528    3.113698   -0.479675
     18          1           0       -0.733340    0.572032    1.826828
     19          1           0       -0.988790    2.293120    1.692980
     20          1           0       -2.912064    1.336135    0.765958
     21          1           0       -2.007488    1.941770   -0.611250
     22          1           0       -1.253804   -0.414342   -1.118279
     23          1           0       -2.063895   -2.313783    0.196095
     24          1           0       -2.346984   -1.192750    1.555628
     25          1           0       -4.440977   -2.045210   -0.100925
     26          1           0       -4.098335    0.418643   -1.404039
     27          1           0       -3.402676   -1.092197   -2.056308
     28          1           0        0.762527    0.151509   -1.061413
     29          1           0        1.494985   -0.556314    1.822641
     30          1           0        0.090536   -1.167624    0.937294
     31          1           0        1.948036   -2.825348    0.945652
     32          1           0        1.519644   -2.307866   -0.699966
     33          1           0        3.051230   -0.821512   -1.818046
     34          1           0        4.506386   -0.331949   -0.922626
     35          1           0        2.824324    1.508152   -1.075027
     36          1           0        3.144508    1.064436    0.608548
 ---------------------------------------------------------------------

 SCF Done:  E(UB3LYP) =  -617.299731774     A.U. after   27 cycles

 The electronic state is 2-A.
 Alpha  occ. eigenvalues --  -19.02988 -14.20672 -14.19351 -10.12116 -10.12054
 Alpha  occ. eigenvalues --  -10.10564 -10.09580 -10.09093 -10.08892 -10.08789
 Alpha  occ. eigenvalues --  -10.07390 -10.07258 -10.07041 -10.06617  -0.94628
 Alpha  occ. eigenvalues --   -0.82960  -0.82478  -0.70011  -0.67547  -0.66789
 Alpha  occ. eigenvalues --   -0.60874  -0.58016  -0.57315  -0.54867  -0.53464
 Alpha  occ. eigenvalues --   -0.49489  -0.46130  -0.44224  -0.42063  -0.41322
 Alpha  occ. eigenvalues --   -0.38386  -0.38079  -0.37099  -0.36291  -0.35638
 Alpha  occ. eigenvalues --   -0.34920  -0.32602  -0.31694  -0.30911  -0.30197
 Alpha  occ. eigenvalues --   -0.30113  -0.29046  -0.27691  -0.27043  -0.26426
 Alpha  occ. eigenvalues --   -0.26204  -0.25264  -0.23951  -0.22418  -0.22164
 Alpha  occ. eigenvalues --   -0.21455  -0.21011  -0.16629  -0.12978  -0.11481
 Alpha  occ. eigenvalues --    0.04320
 Alpha virt. eigenvalues --    0.06183   0.07096   0.07279   0.08240   0.08804
 Alpha virt. eigenvalues --    0.09267   0.09441   0.09725   0.10769   0.11145
 Alpha virt. eigenvalues --    0.11701   0.11749   0.12369   0.13038   0.13214

  Beta  occ. eigenvalues --  -19.02983 -14.20666 -14.19330 -10.12100 -10.12035
  Beta  occ. eigenvalues --  -10.10554 -10.09576 -10.09069 -10.08866 -10.08760
  Beta  occ. eigenvalues --  -10.07383 -10.07255 -10.07029 -10.06606  -0.94616
  Beta  occ. eigenvalues --   -0.82936  -0.82453  -0.69991  -0.67524  -0.66763
  Beta  occ. eigenvalues --   -0.60836  -0.57976  -0.57255  -0.54835  -0.53422
  Beta  occ. eigenvalues --   -0.49440  -0.46096  -0.44179  -0.41977  -0.41292
  Beta  occ. eigenvalues --   -0.38359  -0.38052  -0.37075  -0.36262  -0.35609
  Beta  occ. eigenvalues --   -0.34895  -0.32584  -0.31667  -0.30886  -0.30157
  Beta  occ. eigenvalues --   -0.30075  -0.29020  -0.27670  -0.27014  -0.26401
  Beta  occ. eigenvalues --   -0.26179  -0.25236  -0.23922  -0.22397  -0.22134
  Beta  occ. eigenvalues --   -0.21431  -0.20981  -0.16598  -0.12935  -0.11458
  Beta virt. eigenvalues --    0.06478   0.07323   0.07482   0.07684   0.08753
  Beta virt. eigenvalues --    0.09196   0.09490   0.09867   0.10038   0.11228
  Beta virt. eigenvalues --    0.11463   0.11959   0.12047   0.12553   0.13270

 Mulliken charges and spin densities:
               1          2
     1  C    0.779086  -1.116970
     2  N    0.307962   0.076230
     3  C   -0.390872  -0.105003
     4  C   -0.036085  -0.426305
     5  C   -1.181951   1.545413
     6  C    0.798841  -1.438250
     7  N   -0.411846   0.290642
     8  C    1.312343  -1.683595
     9  C   -0.503160   0.010921
    10  C   -0.679542   0.736237
    11  C    0.162896  -0.834527
    12  O   -0.150050   0.046253
    13  C    0.214319  -0.794597
    14  C   -0.164754   0.015445
    15  H   -0.035117   0.171796
    16  H   -0.375194   0.521932
    17  H   -0.214460   0.356650
    18  H    0.107382   0.030925
    19  H    0.024085   0.152641
    20  H    0.055119   0.105109
    21  H    0.052566   0.101115
    22  H    0.281181  -0.065524
    23  H   -0.643214   0.808866
    24  H    0.033533   0.139771
    25  H   -0.043603   0.278499
    26  H    0.004219   0.161280
    27  H   -0.698140   0.852119
    28  H    0.190269  -0.017150
    29  H    0.081895   0.113466
    30  H    0.505091  -0.388310
    31  H   -0.080171   0.266255
    32  H   -0.098008   0.257274
    33  H   -0.144791   0.274129
    34  H   -0.039851   0.237001
    35  H   -0.225495   0.344951
    36  H    0.205514  -0.024688
 Sum of Mulliken charges =  -1.00000   1.00000

 Dipole moment (field-independent basis, Debye):
    X=              2.5073    Y=              2.2972    Z=              4.1754  Tot=              5.3849
 Quadrupole moment (field-independent basis, Debye-Ang):
   XX=           -162.2427   YY=           -144.0001   ZZ=           -126.0193
   XY=            -10.1369   XZ=             -2.3974   YZ=             -0.5219

 Summary of Natural Population Analysis:

                                       Natural Population
                Natural  -----------------------------------------------
    Atom  No    Charge         Core      Valence    Rydberg      Total
 -----------------------------------------------------------------------
      C    1   -0.17951      0.99964     2.17100    0.00888     3.17951
      N    2   -0.28216      0.99971     2.77031    0.01214     3.78216
      C    3   -0.08168      0.99960     2.07032    0.01175     3.08168
      C    4   -0.20126      0.99960     2.19328    0.00839     3.20126
      C    5   -0.12294      0.99958     2.11146    0.01190     3.12294
      C    6   -0.08504      0.99964     2.07437    0.01104     3.08504
      N    7   -0.34663      0.99976     2.83400    0.01286     3.84663
      C    8   -0.07680      0.99964     2.06616    0.01100     3.07680
      C    9   -0.00468      0.99956     1.99144    0.01367     3.00468
      C   10   -0.21134      0.99960     2.20385    0.00789     3.21134
      C   11   -0.00832      0.99958     1.99542    0.01332     3.00832
      O   12   -0.29994      0.99989     3.29123    0.00882     4.29994
      C   13   -0.00932      0.99958     1.99685    0.01290     3.00932
      C   14   -0.20745      0.99961     2.19827    0.00958     3.20745
      H   15    0.09522      0.00000     0.40386    0.00092     0.40478
      H   16    0.08425      0.00000     0.41425    0.00149     0.41575
      H   17    0.09549      0.00000     0.40325    0.00126     0.40451
      H   18    0.09516      0.00000     0.40347    0.00137     0.40484
      H   19    0.09293      0.00000     0.40619    0.00087     0.40707
      H   20    0.10119      0.00000     0.39740    0.00141     0.39881
      H   21    0.09930      0.00000     0.39948    0.00121     0.40070
      H   22    0.10062      0.00000     0.39657    0.00281     0.39938
      H   23    0.08924      0.00000     0.40813    0.00263     0.41076
      H   24    0.08511      0.00000     0.41344    0.00145     0.41489
      H   25    0.17453      0.00000     0.32245    0.00302     0.32547
      H   26    0.08556      0.00000     0.41303    0.00141     0.41444
      H   27    0.08861      0.00000     0.40881    0.00258     0.41139
      H   28    0.08093      0.00000     0.41585    0.00322     0.41907
      H   29    0.09951      0.00000     0.39913    0.00136     0.40049
      H   30    0.10592      0.00000     0.39250    0.00158     0.39408
      H   31    0.09129      0.00000     0.40759    0.00112     0.40871
      H   32    0.07964      0.00000     0.41865    0.00171     0.42036
      H   33    0.07848      0.00000     0.42000    0.00152     0.42152
      H   34    0.09051      0.00000     0.40841    0.00108     0.40949
      H   35    0.10415      0.00000     0.39450    0.00134     0.39585
      H   36    0.09941      0.00000     0.39913    0.00146     0.40059
 =======================================================================
   * Total *   -0.00000     13.99498    40.81406    0.19096    55.00000

 Normal termination of Gaussian 16 at Thu Dec 10 10:14:25 2020.
