 Gaussian 16, Revision A.03,

 -----------------------------------------------------------
 # opt freq B3LYP/6-31G(d) empiricaldispersion=gd3bj scf=xqc
 -----------------------------------------------------------

 ------------------------------
 CID_23513651_JID_2267_neutraal
 ------------------------------
 Symbolic Z-matrix:
 Charge =  0 Multiplicity = 1

 SCF Done:  E(RB3LYP) =  -484.173232772     A.U. after   14 cycles
 SCF Done:  E(RB3LYP) =  -484.172094355     A.U. after   13 cycles
 SCF Done:  E(RB3LYP) =  -484.175924996     A.U. after   11 cycles
 SCF Done:  E(RB3LYP) =  -484.176832698     A.U. after   11 cycles
 SCF Done:  E(RB3LYP) =  -484.177212408     A.U. after   11 cycles
 SCF Done:  E(RB3LYP) =  -484.177408488     A.U. after   12 cycles
 SCF Done:  E(RB3LYP) =  -484.177458876     A.U. after   11 cycles
 SCF Done:  E(RB3LYP) =  -484.177539107     A.U. after   11 cycles
 SCF Done:  E(RB3LYP) =  -484.177640970     A.U. after   12 cycles
 SCF Done:  E(RB3LYP) =  -484.177662895     A.U. after    9 cycles
 SCF Done:  E(RB3LYP) =  -484.177693575     A.U. after    7 cycles
 SCF Done:  E(RB3LYP) =  -484.177693684     A.U. after    7 cycles
 SCF Done:  E(RB3LYP) =  -484.177693759     A.U. after    7 cycles
 SCF Done:  E(RB3LYP) =  -484.177693866     A.U. after    7 cycles
 SCF Done:  E(RB3LYP) =  -484.177693943     A.U. after    7 cycles
 SCF Done:  E(RB3LYP) =  -484.177694008     A.U. after    7 cycles
 Optimization completed.
    -- Stationary point found.
 Normal termination of Gaussian 16 at Mon Dec 14 13:16:19 2020.

 --------------------------------------------------------------------
 #N Geom=AllCheck Guess=TCheck SCRF=Check GenChk RB3LYP/6-31G(d) Freq
 --------------------------------------------------------------------

 Structure from the checkpoint file:  "JID_2267.chk"
 ------------------------------
 CID_23513651_JID_2267_neutraal
 ------------------------------
 Charge =  0 Multiplicity = 1

 SCF Done:  E(RB3LYP) =  -484.177694008     A.U. after    1 cycles

  Exact polarizability: 151.380 -44.827 103.983  -3.903   3.820 115.945
 Approx polarizability: 214.846 -73.731 149.796 -12.491  11.563 202.125

 ******    1 imaginary frequencies (negative Signs) ******

                      1                      2                      3
                      A                      A                      A
 Frequencies --    -17.2239                15.1148                27.8796
 Red. masses --      1.3214                 2.5551                 2.4708
 Frc consts  --      0.0002                 0.0003                 0.0011
 IR Inten    --      0.3314                 0.3931                 0.0495

                      4                      5                      6
                      A                      A                      A
 Frequencies --     41.5067                55.6042                68.9350
 Red. masses --      2.7337                 2.6866                 2.3366
 Frc consts  --      0.0028                 0.0049                 0.0065
 IR Inten    --      0.1379                 0.3924                 0.3958

                      7                      8                      9
                      A                      A                      A
 Frequencies --     76.0774                81.4435               145.3182
 Red. masses --      1.8447                 4.5253                 2.5457
 Frc consts  --      0.0063                 0.0177                 0.0317
 IR Inten    --      2.0843                 0.0440                 1.9829

                     10                     11                     12
                      A                      A                      A
 Frequencies --    211.9406               254.3464               277.6098
 Red. masses --      3.1122                 1.0366                 1.1879
 Frc consts  --      0.0824                 0.0395                 0.0539
 IR Inten    --      0.3579                 0.5862                 3.7098

                     13                     14                     15
                      A                      A                      A
 Frequencies --    304.0588               347.8701               390.9475
 Red. masses --      2.7324                 2.6985                 2.1506
 Frc consts  --      0.1488                 0.1924                 0.1937
 IR Inten    --      0.0015                 0.3969                 7.4780

                     16                     17                     18
                      A                      A                      A
 Frequencies --    413.4742               422.8717               475.1529
 Red. masses --      2.9591                 4.5390                 2.3007
 Frc consts  --      0.2981                 0.4782                 0.3060
 IR Inten    --      0.2217                 0.1821                12.0475

                     19                     20                     21
                      A                      A                      A
 Frequencies --    536.1576               654.3486               659.9770
 Red. masses --      3.0255                 1.9881                 6.6532
 Frc consts  --      0.5124                 0.5015                 1.7074
 IR Inten    --      2.9436                 0.5044                 0.0894

                     22                     23                     24
                      A                      A                      A
 Frequencies --    725.2337               750.2311               806.2599
 Red. masses --      3.3478                 2.1632                 1.3422
 Frc consts  --      1.0375                 0.7174                 0.5141
 IR Inten    --      0.8007                 2.0349               129.6453

                     25                     26                     27
                      A                      A                      A
 Frequencies --    841.2203               844.6689               851.8687
 Red. masses --      2.9619                 1.9554                 1.3338
 Frc consts  --      1.2349                 0.8220                 0.5703
 IR Inten    --     10.4410                15.4193                 9.3670

                     28                     29                     30
                      A                      A                      A
 Frequencies --    918.4330               957.1624               958.1488
 Red. masses --      1.3789                 2.0991                 1.3457
 Frc consts  --      0.6853                 1.1330                 0.7279
 IR Inten    --     36.2032                 1.3567                 0.0026

                     31                     32                     33
                      A                      A                      A
 Frequencies --    961.0062              1017.8294              1035.7697
 Red. masses --      1.2804                 1.4411                 1.1206
 Frc consts  --      0.6967                 0.8796                 0.7083
 IR Inten    --      0.2698                 0.0404                13.6088

                     34                     35                     36
                      A                      A                      A
 Frequencies --   1040.7343              1046.3397              1063.4117
 Red. masses --      2.8116                 1.1931                 1.4676
 Frc consts  --      1.7943                 0.7696                 0.9778
 IR Inten    --      0.6795                 7.6011                 4.6731

                     37                     38                     39
                      A                      A                      A
 Frequencies --   1074.9367              1114.6306              1157.0337
 Red. masses --      1.5233                 1.3265                 1.3525
 Frc consts  --      1.0371                 0.9710                 1.0668
 IR Inten    --     14.2463                 0.1024                 4.0860

                     40                     41                     42
                      A                      A                      A
 Frequencies --   1181.7992              1205.3923              1220.9150
 Red. masses --      3.3666                 1.4797                 1.2097
 Frc consts  --      2.7703                 1.2667                 1.0624
 IR Inten    --     21.6975                 4.5124                 2.0456

                     43                     44                     45
                      A                      A                      A
 Frequencies --   1247.0414              1249.7776              1287.7421
 Red. masses --      2.3705                 2.8339                 1.6959
 Frc consts  --      2.1719                 2.6080                 1.6569
 IR Inten    --      1.3293                 1.2677                 0.0337

                     46                     47                     48
                      A                      A                      A
 Frequencies --   1335.4601              1356.1471              1371.0765
 Red. masses --      1.8457                 2.4684                 1.4244
 Frc consts  --      1.9394                 2.6747                 1.5776
 IR Inten    --      2.7039                 0.1321                 2.5892

                     49                     50                     51
                      A                      A                      A
 Frequencies --   1443.0380              1457.2823              1467.6204
 Red. masses --      1.2476                 2.3763                 1.1627
 Frc consts  --      1.5307                 2.9733                 1.4755
 IR Inten    --      0.4093                 4.5792                 2.5677

                     52                     53                     54
                      A                      A                      A
 Frequencies --   1481.7711              1497.1400              1498.7744
 Red. masses --      1.3121                 1.1886                 1.1781
 Frc consts  --      1.6974                 1.5697                 1.5592
 IR Inten    --      1.3500                 2.0332                 9.0987

                     55                     56                     57
                      A                      A                      A
 Frequencies --   1513.2529              1515.6871              1520.9565
 Red. masses --      1.0537                 1.0521                 1.1019
 Frc consts  --      1.4216                 1.4240                 1.5018
 IR Inten    --      3.5564                 7.5648                 6.3815

                     58                     59                     60
                      A                      A                      A
 Frequencies --   1526.2159              1543.2048              1546.1734
 Red. masses --      1.0664                 1.0576                 1.0424
 Frc consts  --      1.4636                 1.4839                 1.4683
 IR Inten    --     11.6471                13.2194                10.8006

                     61                     62                     63
                      A                      A                      A
 Frequencies --   1567.5259              1624.6834              1675.7630
 Red. masses --      2.4951                 5.1264                 5.7452
 Frc consts  --      3.6122                 7.9726                 9.5056
 IR Inten    --     18.1882                 2.2764                 4.1718

                     64                     65                     66
                      A                      A                      A
 Frequencies --   1716.5025              2937.8964              2958.5762
 Red. masses --      4.2489                 1.0621                 1.0610
 Frc consts  --      7.3758                 5.4011                 5.4718
 IR Inten    --     10.3140                69.7969                92.1529

                     67                     68                     69
                      A                      A                      A
 Frequencies --   3041.4330              3075.2369              3085.4050
 Red. masses --      1.0411                 1.0690                 1.0726
 Frc consts  --      5.6742                 5.9567                 6.0159
 IR Inten    --     33.3099                33.9985                29.8480

                     70                     71                     72
                      A                      A                      A
 Frequencies --   3099.3687              3119.5750              3127.2184
 Red. masses --      1.0950                 1.1037                 1.1026
 Frc consts  --      6.1972                 6.3286                 6.3530
 IR Inten    --     25.2800                44.2616                15.2476

                     73                     74                     75
                      A                      A                      A
 Frequencies --   3132.6132              3150.4280              3172.7302
 Red. masses --      1.1024                 1.0853                 1.0655
 Frc consts  --      6.3739                 6.3467                 6.3192
 IR Inten    --     24.4493                17.0903                 3.3631

                     76                     77                     78
                      A                      A                      A
 Frequencies --   3174.0259              3177.2086              3191.4928
 Red. masses --      1.0866                 1.0863                 1.0942
 Frc consts  --      6.4497                 6.4611                 6.5663
 IR Inten    --     16.0215                13.9661                26.0221

                     79                     80                     81
                      A                      A                      A
 Frequencies --   3204.8963              3250.3562              3490.8211
 Red. masses --      1.0921                 1.1157                 1.0741
 Frc consts  --      6.6091                 6.9445                 7.7114
 IR Inten    --     10.9206                16.4944                 3.1887

 - Thermochemistry -
 -------------------
 Temperature   298.150 Kelvin.  Pressure   1.00000 Atm.
 Atom     1 has atomic number  6 and mass  12.00000

 Molecular mass:   163.13610 amu.
 Principal axes and moments of inertia in atomic units:
                           1         2         3
     Eigenvalues --  1755.901662982.783083940.67663
           X            0.99946  -0.03274  -0.00235
           Y            0.03271   0.99941  -0.01070
           Z            0.00270   0.01062   0.99994
 This molecule is an asymmetric top.
 Rotational symmetry number  1.
 Warning -- assumption of classical behavior for rotation
           may cause significant error
 Rotational temperatures (Kelvin)      0.04933     0.02904     0.02198
 Rotational constants (GHZ):           1.02781     0.60505     0.45798
    1 imaginary frequencies ignored.
 Zero-point vibrational energy     670302.2 (Joules/Mol)
                                  160.20607 (Kcal/Mol)
 Warning -- explicit consideration of  18 degrees of freedom as
           vibrations may cause significant error
 Vibrational temperatures:     21.75    40.11    59.72    80.00    99.18
          (Kelvin)            109.46   117.18   209.08   304.94   365.95
                              399.42   437.47   500.51   562.49   594.90
                              608.42   683.64   771.41   941.46   949.56
                             1043.45  1079.42  1160.03  1210.33  1215.29
                             1225.65  1321.42  1377.14  1378.56  1382.67
                             1464.43  1490.24  1497.38  1505.45  1530.01
                             1546.59  1603.70  1664.71  1700.35  1734.29
                             1756.62  1794.21  1798.15  1852.77  1921.43
                             1951.19  1972.67  2076.21  2096.70  2111.58
                             2131.94  2154.05  2156.40  2177.23  2180.74
                             2188.32  2195.88  2220.33  2224.60  2255.32
                             2337.56  2411.05  2469.66  4226.98  4256.73
                             4375.94  4424.58  4439.21  4459.30  4488.37
                             4499.37  4507.13  4532.76  4564.85  4566.72
                             4571.29  4591.85  4611.13  4676.54  5022.51

 Zero-point correction=                           0.255305 (Hartree/Particle)
 Thermal correction to Energy=                    0.269529
 Thermal correction to Enthalpy=                  0.270473
 Thermal correction to Gibbs Free Energy=         0.210751
 Sum of electronic and zero-point Energies=           -483.922389
 Sum of electronic and thermal Energies=              -483.908165
 Sum of electronic and thermal Enthalpies=            -483.907221
 Sum of electronic and thermal Free Energies=         -483.966943

                     E (Thermal)             CV                S
                      KCal/Mol        Cal/Mol-Kelvin    Cal/Mol-Kelvin
 Total                  169.132             49.575            125.696
 Electronic               0.000              0.000              0.000
 Translational            0.889              2.981             41.177
 Rotational               0.889              2.981             31.401
 Vibrational            167.354             43.613             53.117
 Vibration     1          0.593              1.986              7.190
 Vibration     2          0.593              1.984              5.975
 Vibration     3          0.594              1.981              5.186
 Vibration     4          0.596              1.975              4.607
 Vibration     5          0.598              1.969              4.184
 Vibration     6          0.599              1.965              3.990
 Vibration     7          0.600              1.962              3.856
 Vibration     8          0.617              1.908              2.733
 Vibration     9          0.643              1.823              2.027
 Vibration    10          0.665              1.755              1.700
 Vibration    11          0.679              1.715              1.548
 Vibration    12          0.695              1.666              1.394
 Vibration    13          0.725              1.580              1.176
 Vibration    14          0.759              1.490              0.997
 Vibration    15          0.777              1.441              0.914
 Vibration    16          0.785              1.421              0.882
 Vibration    17          0.832              1.305              0.723
 Vibration    18          0.891              1.170              0.574

                           ! Non-Optimized Parameters !
 Normal termination of Gaussian 16 at Mon Dec 14 13:22:36 2020.

 ----------------------------------------------------------------------
 # B3LYP/6-311++G(d,p) empiricaldispersion=gd3bj scf=xqc pop=npa geom=c
 heck
 ----------------------------------------------------------------------

 --------------------------------------
 CID_23513651_JID_2267_Energie_neutraal
 --------------------------------------
 Structure from the checkpoint file:  "JID_2267.chk"
 Charge =  0 Multiplicity = 1

 SCF Done:  E(RB3LYP) =  -484.315083825     A.U. after   14 cycles
 Normal termination of Gaussian 16 at Mon Dec 14 13:24:57 2020.

 ----------------------------------------------------------------------
 # B3LYP/6-311++G(d,p) empiricaldispersion=gd3bj scf=xqc pop=npa geom=c
 heck
 ----------------------------------------------------------------------

 ------------------------------------
 CID_23513651_JID_2267_Energie_kation
 ------------------------------------
 Structure from the checkpoint file:  "JID_2267.chk"
 Charge =  1 Multiplicity = 2

 SCF Done:  E(UB3LYP) =  -484.031458966     A.U. after   23 cycles
 Normal termination of Gaussian 16 at Mon Dec 14 13:30:05 2020.
 Gaussian 16:  ES64L-G16RevA.03 25-Dec-2016

 ----------------------------------------------------------------------
 # B3LYP/6-311++G(d,p) empiricaldispersion=gd3bj scf=xqc pop=npa geom=c
 heck
 ----------------------------------------------------------------------

 -----------------------------------
 CID_23513651_JID_2267_Energie_anion
 -----------------------------------
 Structure from the checkpoint file:  "JID_2267.chk"
 Charge = -1 Multiplicity = 2

                         Standard orientation:
 ---------------------------------------------------------------------
 Center     Atomic      Atomic             Coordinates (Angstroms)
 Number     Number       Type             X           Y           Z
 ---------------------------------------------------------------------
      1          6           0       -1.871101    2.505478   -0.119695
      2          6           0       -0.609840    1.686036   -0.012073
      3          6           0        0.060489    1.239479   -1.161031
      4          6           0        1.235585    0.503912   -1.072527
      5          6           0        1.791961    0.177576    0.177047
      6          6           0        1.120751    0.628162    1.323897
      7          6           0       -0.057570    1.364593    1.231255
      8          6           0        3.022388   -0.610390    0.330549
      9          6           0        3.757382   -1.167018   -0.639665
     10          6           0       -3.074864   -1.000329   -0.413059
     11          7           0       -2.462968   -2.295036   -0.149699
     12          6           0       -1.170051   -2.170790    0.513818
     13          1           0       -1.642393    3.571049   -0.254378
     14          1           0       -2.479095    2.193455   -0.975372
     15          1           0       -2.484554    2.413548    0.782221
     16          1           0       -0.350320    1.473063   -2.140565
     17          1           0        1.724591    0.175115   -1.984383
     18          1           0        1.526880    0.386771    2.303305
     19          1           0       -0.558532    1.691643    2.139179
     20          1           0        3.346756   -0.744140    1.362476
     21          1           0        4.654076   -1.732192   -0.406160
     22          1           0        3.499439   -1.087627   -1.692063
     23          1           0       -2.453356   -0.450365   -1.128343
     24          1           0       -3.186102   -0.357118    0.481713
     25          1           0       -4.064319   -1.143063   -0.860943
     26          1           0       -3.087611   -2.842964    0.438470
     27          1           0       -1.197139   -1.592869    1.456314
     28          1           0       -0.770470   -3.167616    0.728987
     29          1           0       -0.467848   -1.661698   -0.153646
 ---------------------------------------------------------------------

 SCF Done:  E(UB3LYP) =  -484.307148494     A.U. after   32 cycles

 The electronic state is 2-A.
 Alpha  occ. eigenvalues --  -14.17976 -10.06569 -10.05716 -10.04984 -10.04015
 Alpha  occ. eigenvalues --  -10.03764 -10.03748 -10.03538 -10.03448 -10.03198
 Alpha  occ. eigenvalues --  -10.03147 -10.01750  -0.78090  -0.72631  -0.66241
 Alpha  occ. eigenvalues --   -0.61514  -0.61166  -0.57894  -0.55427  -0.50682
 Alpha  occ. eigenvalues --   -0.48092  -0.46534  -0.42393  -0.37098  -0.36763
 Alpha  occ. eigenvalues --   -0.34207  -0.32382  -0.32205  -0.31722  -0.30389
 Alpha  occ. eigenvalues --   -0.30180  -0.28839  -0.28141  -0.26430  -0.25828
 Alpha  occ. eigenvalues --   -0.25001  -0.24413  -0.23328  -0.22895  -0.20944
 Alpha  occ. eigenvalues --   -0.20279  -0.16473  -0.12747  -0.10744  -0.09254
 Alpha  occ. eigenvalues --    0.05206
 Alpha virt. eigenvalues --    0.07123   0.08441   0.08825   0.09313   0.10098
 Alpha virt. eigenvalues --    0.10608   0.10874   0.11210   0.11842   0.12317
 Alpha virt. eigenvalues --    0.13070   0.13480   0.13780   0.14939   0.15308

  Beta  occ. eigenvalues --  -14.17959 -10.06552 -10.05702 -10.05000 -10.04082
  Beta  occ. eigenvalues --  -10.03738 -10.03538 -10.03464 -10.03310 -10.03062
  Beta  occ. eigenvalues --  -10.03057 -10.01511  -0.78065  -0.72360  -0.65837
  Beta  occ. eigenvalues --   -0.61258  -0.60951  -0.57860  -0.55198  -0.50629
  Beta  occ. eigenvalues --   -0.47858  -0.46182  -0.42100  -0.37047  -0.36620
  Beta  occ. eigenvalues --   -0.34057  -0.32220  -0.32152  -0.31677  -0.30235
  Beta  occ. eigenvalues --   -0.29929  -0.28784  -0.28013  -0.26402  -0.25740
  Beta  occ. eigenvalues --   -0.24843  -0.24381  -0.23191  -0.22357  -0.20794
  Beta  occ. eigenvalues --   -0.20175  -0.15353  -0.12303  -0.10660  -0.07929
  Beta virt. eigenvalues --    0.07580   0.08621   0.08873   0.09399   0.09658
  Beta virt. eigenvalues --    0.10200   0.10557   0.10974   0.11322   0.12122
  Beta virt. eigenvalues --    0.12476   0.13025   0.13482   0.13951   0.15140

 Mulliken charges and spin densities:
               1          2
     1  C   -0.064090  -0.543812
     2  C    0.496541   0.506390
     3  C   -0.455714  -0.028010
     4  C   -1.065966   0.115300
     5  C    1.151332   0.007337
     6  C   -0.147420   0.062200
     7  C   -0.531274  -0.061827
     8  C   -0.218785  -0.034620
     9  C   -0.678864   0.314023
    10  C    0.252823  -0.706753
    11  N   -0.286458   0.130846
    12  C    0.045883  -0.455793
    13  H    0.168803  -0.033827
    14  H    0.024071   0.110600
    15  H   -0.029818   0.167191
    16  H    0.111359   0.040632
    17  H    0.092429  -0.013454
    18  H    0.105863   0.022878
    19  H    0.039969   0.094643
    20  H    0.108504  -0.009557
    21  H    0.108498  -0.011222
    22  H    0.088875  -0.007986
    23  H    0.052573   0.100550
    24  H   -0.153822   0.267611
    25  H   -0.254324   0.379777
    26  H   -0.075071   0.283590
    27  H   -0.102019   0.198577
    28  H    0.079369   0.053082
    29  H    0.136733   0.051631
 Sum of Mulliken charges =  -1.00000   1.00000

 Dipole moment (field-independent basis, Debye):
    X=              0.6449    Y=              2.4113    Z=              0.5392  Tot=              2.5536
 Quadrupole moment (field-independent basis, Debye-Ang):
   XX=           -131.3434   YY=           -105.1431   ZZ=            -90.8155
   XY=             -5.0335   XZ=              3.1497   YZ=             -3.2841

 Summary of Natural Population Analysis:

                                       Natural Population
                Natural  -----------------------------------------------
    Atom  No    Charge         Core      Valence    Rydberg      Total
 -----------------------------------------------------------------------
      C    1   -0.29389      0.99964     2.28831    0.00594     3.29389
      C    2    0.01691      0.99951     1.97454    0.00904     2.98309
      C    3   -0.12252      0.99953     2.11179    0.01120     3.12252
      C    4   -0.06068      0.99948     2.05256    0.00865     3.06068
      C    5   -0.02825      0.99950     2.01795    0.01081     3.02825
      C    6   -0.08408      0.99954     2.07554    0.00901     3.08408
      C    7   -0.10800      0.99952     2.09838    0.01011     3.10800
      C    8   -0.08466      0.99956     2.07538    0.00972     3.08466
      C    9   -0.15327      0.99959     2.14556    0.00812     3.15327
      C   10   -0.17946      0.99966     2.17096    0.00883     3.17946
      N   11   -0.33689      0.99976     2.82477    0.01236     3.83689
      C   12   -0.18182      0.99966     2.17340    0.00876     3.18182
      H   13    0.09824      0.00000     0.40090    0.00086     0.40176
      H   14    0.10000      0.00000     0.39916    0.00083     0.40000
      H   15    0.10052      0.00000     0.39848    0.00100     0.39948
      H   16    0.09219      0.00000     0.40681    0.00100     0.40781
      H   17    0.09463      0.00000     0.40464    0.00073     0.40537
      H   18    0.09067      0.00000     0.40792    0.00141     0.40933
      H   19    0.09257      0.00000     0.40637    0.00105     0.40743
      H   20    0.08372      0.00000     0.41487    0.00141     0.41628
      H   21    0.08335      0.00000     0.41582    0.00082     0.41665
      H   22    0.08323      0.00000     0.41586    0.00092     0.41677
      H   23    0.09450      0.00000     0.40374    0.00176     0.40550
      H   24    0.07908      0.00000     0.41910    0.00182     0.42092
      H   25    0.08823      0.00000     0.41070    0.00107     0.41177
      H   26    0.16476      0.00000     0.33184    0.00340     0.33524
      H   27    0.08065      0.00000     0.41792    0.00143     0.41935
      H   28    0.08792      0.00000     0.41123    0.00085     0.41208
      H   29    0.10239      0.00000     0.39591    0.00170     0.39761
 =======================================================================
   * Total *    0.00001     11.99495    32.87044    0.13460    44.99999

 Normal termination of Gaussian 16 at Mon Dec 14 13:37:07 2020.
