 Gaussian 16, Revision A.03,

 -----------------------------------------------------------
 # opt freq B3LYP/6-31G(d) empiricaldispersion=gd3bj scf=xqc
 -----------------------------------------------------------

 -------------------------------
 CID_149847252_JID_1242_neutraal
 -------------------------------
 Symbolic Z-matrix:
 Charge =  0 Multiplicity = 1

 SCF Done:  E(RB3LYP) =  -563.551222333     A.U. after   17 cycles
 SCF Done:  E(RB3LYP) =  -563.564441281     A.U. after   16 cycles
 SCF Done:  E(RB3LYP) =  -563.565984677     A.U. after   15 cycles
 SCF Done:  E(RB3LYP) =  -563.567197897     A.U. after   15 cycles
 SCF Done:  E(RB3LYP) =  -563.567882156     A.U. after   13 cycles
 SCF Done:  E(RB3LYP) =  -563.567864066     A.U. after   14 cycles
 SCF Done:  E(RB3LYP) =  -563.568343070     A.U. after   14 cycles
 SCF Done:  E(RB3LYP) =  -563.568535128     A.U. after   12 cycles
 SCF Done:  E(RB3LYP) =  -563.568575610     A.U. after   12 cycles
 SCF Done:  E(RB3LYP) =  -563.568597145     A.U. after   12 cycles
 SCF Done:  E(RB3LYP) =  -563.569143413     A.U. after   13 cycles
 SCF Done:  E(RB3LYP) =  -563.569133761     A.U. after   13 cycles
 SCF Done:  E(RB3LYP) =  -563.569155668     A.U. after   12 cycles
 SCF Done:  E(RB3LYP) =  -563.569160805     A.U. after   10 cycles
 SCF Done:  E(RB3LYP) =  -563.569160899     A.U. after    8 cycles
 SCF Done:  E(RB3LYP) =  -563.569160911     A.U. after    8 cycles
 Optimization completed.
    -- Stationary point found.
 Normal termination of Gaussian 16 at Tue Dec  8 19:36:46 2020.

 --------------------------------------------------------------------
 #N Geom=AllCheck Guess=TCheck SCRF=Check GenChk RB3LYP/6-31G(d) Freq
 --------------------------------------------------------------------

 Structure from the checkpoint file:  "JID_1242.chk"
 -------------------------------
 CID_149847252_JID_1242_neutraal
 -------------------------------
 Charge =  0 Multiplicity = 1

 SCF Done:  E(RB3LYP) =  -563.569160911     A.U. after    1 cycles

  Exact polarizability:  89.058  16.436  88.387   5.636  -7.606  61.534
 Approx polarizability: 143.276  36.707 153.871  16.788 -25.139 101.219

                      1                      2                      3
                      A                      A                      A
 Frequencies --     14.2256                31.4513                79.1259
 Red. masses --     12.2958                11.2087                10.9229
 Frc consts  --      0.0015                 0.0065                 0.0403
 IR Inten    --      0.1355                 2.8621                 1.3122

                      4                      5                      6
                      A                      A                      A
 Frequencies --     96.3252               126.2518               144.9017
 Red. masses --      5.8259                 5.1852                 7.4155
 Frc consts  --      0.0318                 0.0487                 0.0917
 IR Inten    --      1.1807                 3.7103                 0.4878

                      7                      8                      9
                      A                      A                      A
 Frequencies --    222.6880               239.1533               253.0037
 Red. masses --      1.4522                 2.0521                 4.8625
 Frc consts  --      0.0424                 0.0692                 0.1834
 IR Inten    --      1.3467                 3.3906                 1.0200

                     10                     11                     12
                      A                      A                      A
 Frequencies --    311.6229               433.4390               498.7413
 Red. masses --      2.6565                 5.1551                 8.9232
 Frc consts  --      0.1520                 0.5706                 1.3077
 IR Inten    --      6.3787                 8.1729                 2.2131

                     13                     14                     15
                      A                      A                      A
 Frequencies --    559.5911               563.3999               588.7520
 Red. masses --     10.2308                 5.5526                 8.5505
 Frc consts  --      1.8876                 1.0384                 1.7463
 IR Inten    --     22.5735                 8.9973                 8.4919

                     16                     17                     18
                      A                      A                      A
 Frequencies --    606.1735               633.3048               769.4762
 Red. masses --      5.5107                 8.0982                 4.2426
 Frc consts  --      1.1930                 1.9137                 1.4800
 IR Inten    --     29.3553                29.5366                 1.7007

                     19                     20                     21
                      A                      A                      A
 Frequencies --    833.5753               878.1799               915.8542
 Red. masses --      4.3603                 6.1683                 2.9582
 Frc consts  --      1.7851                 2.8027                 1.4619
 IR Inten    --     14.4768                16.4700                27.5777

                     22                     23                     24
                      A                      A                      A
 Frequencies --    960.1844              1014.1500              1087.4522
 Red. masses --      1.6687                 1.8567                 1.7528
 Frc consts  --      0.9064                 1.1251                 1.2213
 IR Inten    --      4.2586               101.4056                44.1171

                     25                     26                     27
                      A                      A                      A
 Frequencies --   1155.2393              1208.2338              1273.2837
 Red. masses --      2.4621                 2.8464                 2.0337
 Frc consts  --      1.9359                 2.4482                 1.9426
 IR Inten    --      8.3911                28.3293               198.8792

                     28                     29                     30
                      A                      A                      A
 Frequencies --   1297.6209              1315.8036              1375.5772
 Red. masses --      2.2730                 1.3179                 1.5333
 Frc consts  --      2.2549                 1.3443                 1.7094
 IR Inten    --    280.8856                 9.9321                12.1368

                     31                     32                     33
                      A                      A                      A
 Frequencies --   1404.8594              1453.1805              1497.5913
 Red. masses --      1.2748                 1.2464                 3.2879
 Frc consts  --      1.4823                 1.5507                 4.3446
 IR Inten    --     40.2655                13.8416                11.8400

                     34                     35                     36
                      A                      A                      A
 Frequencies --   1521.2731              1532.9390              1541.7921
 Red. masses --      1.0590                 1.1157                 1.2403
 Frc consts  --      1.4440                 1.5448                 1.7371
 IR Inten    --      5.8897                11.6107                 6.4915

                     37                     38                     39
                      A                      A                      A
 Frequencies --   1798.7796              2302.4606              2389.9959
 Red. masses --     12.3952                13.9892                12.4076
 Frc consts  --     23.6298                43.6946                41.7573
 IR Inten    --    183.1264               432.9473               834.1389

                     40                     41                     42
                      A                      A                      A
 Frequencies --   3058.1543              3066.3583              3073.5971
 Red. masses --      1.0673                 1.0404                 1.0809
 Frc consts  --      5.8810                 5.7637                 6.0163
 IR Inten    --     23.8038                15.4901                17.4455

                     43                     44                     45
                      A                      A                      A
 Frequencies --   3121.8129              3133.0243              3150.9034
 Red. masses --      1.0989                 1.1019                 1.1012
 Frc consts  --      6.3097                 6.3728                 6.4414
 IR Inten    --     11.8194                22.2247                16.2730

 - Thermochemistry -
 -------------------
 Temperature   298.150 Kelvin.  Pressure   1.00000 Atm.
 Atom     1 has atomic number  6 and mass  12.00000

 Molecular mass:   154.04908 amu.
 Principal axes and moments of inertia in atomic units:
                           1         2         3
     Eigenvalues --  1280.017291999.679542588.07224
           X            0.99860   0.05201   0.00967
           Y           -0.05221   0.99840   0.02193
           Z           -0.00852  -0.02241   0.99971
 This molecule is an asymmetric top.
 Rotational symmetry number  1.
 Warning -- assumption of classical behavior for rotation
           may cause significant error
 Rotational temperatures (Kelvin)      0.06767     0.04331     0.03347
 Rotational constants (GHZ):           1.40994     0.90252     0.69733
 Zero-point vibrational energy     320201.5 (Joules/Mol)
                                   76.52999 (Kcal/Mol)
 Warning -- explicit consideration of  16 degrees of freedom as
           vibrations may cause significant error
 Vibrational temperatures:     20.47    45.25   113.84   138.59   181.65
          (Kelvin)            208.48   320.40   344.09   364.02   448.36
                              623.62   717.58   805.13   810.61   847.08
                              872.15   911.18  1107.10  1199.33  1263.50
                             1317.71  1381.49  1459.14  1564.60  1662.13
                             1738.38  1831.97  1866.99  1893.15  1979.15
                             2021.28  2090.80  2154.70  2188.77  2205.56
                             2218.29  2588.04  3312.73  3438.67  4400.00
                             4411.81  4422.22  4491.59  4507.72  4533.45

 Zero-point correction=                           0.121958 (Hartree/Particle)
 Thermal correction to Energy=                    0.133164
 Thermal correction to Enthalpy=                  0.134108
 Thermal correction to Gibbs Free Energy=         0.082127
 Sum of electronic and zero-point Energies=           -563.447203
 Sum of electronic and thermal Energies=              -563.435997
 Sum of electronic and thermal Enthalpies=            -563.435053
 Sum of electronic and thermal Free Energies=         -563.487034

                     E (Thermal)             CV                S
                      KCal/Mol        Cal/Mol-Kelvin    Cal/Mol-Kelvin
 Total                   83.561             37.481            109.404
 Electronic               0.000              0.000              0.000
 Translational            0.889              2.981             41.006
 Rotational               0.889              2.981             30.272
 Vibrational             81.784             31.520             38.125
 Vibration     1          0.593              1.986              7.311
 Vibration     2          0.594              1.983              5.736
 Vibration     3          0.600              1.963              3.912
 Vibration     4          0.603              1.952              3.527
 Vibration     5          0.611              1.927              3.002
 Vibration     6          0.616              1.908              2.738
 Vibration     7          0.648              1.807              1.937
 Vibration     8          0.657              1.781              1.809
 Vibration     9          0.664              1.758              1.710
 Vibration    10          0.700              1.652              1.354
 Vibration    11          0.794              1.397              0.847
 Vibration    12          0.854              1.253              0.661
 Vibration    13          0.915              1.119              0.525
 Vibration    14          0.919              1.110              0.517
 Vibration    15          0.946              1.056              0.469
 Vibration    16          0.965              1.019              0.439

 Optimization completed.
    -- Stationary point found.
 Normal termination of Gaussian 16 at Tue Dec  8 19:39:52 2020.

 ----------------------------------------------------------------------
 # B3LYP/6-311++G(d,p) empiricaldispersion=gd3bj scf=xqc pop=npa geom=c
 heck
 ----------------------------------------------------------------------

 ---------------------------------------
 CID_149847252_JID_1242_Energie_neutraal
 ---------------------------------------
 Structure from the checkpoint file:  "JID_1242.chk"
 Charge =  0 Multiplicity = 1

 SCF Done:  E(RB3LYP) =  -563.735465645     A.U. after   17 cycles
 Normal termination of Gaussian 16 at Tue Dec  8 19:41:05 2020.

 ----------------------------------------------------------------------
 # B3LYP/6-311++G(d,p) empiricaldispersion=gd3bj scf=xqc pop=npa geom=c
 heck
 ----------------------------------------------------------------------

 -------------------------------------
 CID_149847252_JID_1242_Energie_kation
 -------------------------------------
 Structure from the checkpoint file:  "JID_1242.chk"
 Charge =  1 Multiplicity = 2

 SCF Done:  E(UB3LYP) =  -563.370509878     A.U. after   31 cycles
 Normal termination of Gaussian 16 at Tue Dec  8 19:44:42 2020.
 Gaussian 16:  ES64L-G16RevA.03 25-Dec-2016

 ----------------------------------------------------------------------
 # B3LYP/6-311++G(d,p) empiricaldispersion=gd3bj scf=xqc pop=npa geom=c
 heck
 ----------------------------------------------------------------------

 ------------------------------------
 CID_149847252_JID_1242_Energie_anion
 ------------------------------------
 Structure from the checkpoint file:  "JID_1242.chk"
 Charge = -1 Multiplicity = 2

                         Standard orientation:
 ---------------------------------------------------------------------
 Center     Atomic      Atomic             Coordinates (Angstroms)
 Number     Number       Type             X           Y           Z
 ---------------------------------------------------------------------
      1          6           0        1.021423    1.011594    1.711566
      2          6           0        0.593571    1.435125    0.305037
      3          6           0        1.615638    1.036561   -0.785647
      4          7           0        1.763807   -0.385318   -0.965867
      5          6           0        1.693060   -1.410613   -0.334565
      6          8           0        1.657275   -2.482372    0.158544
      7          6           0       -0.775977    0.935937   -0.132229
      8          8           0       -1.427387    1.450080   -1.014893
      9          7           0       -1.183571   -0.235849    0.575548
     10          7           0       -2.271554   -0.717917    0.193440
     11          7           0       -3.242468   -1.230405   -0.079141
     12          1           0        1.101156   -0.073866    1.809737
     13          1           0        0.298759    1.353096    2.458391
     14          1           0        1.994513    1.453512    1.951317
     15          1           0        0.525166    2.528298    0.253865
     16          1           0        1.300109    1.462386   -1.741680
     17          1           0        2.591401    1.469705   -0.533668
 ---------------------------------------------------------------------

 SCF Done:  E(UB3LYP) =  -563.745414028     A.U. after   29 cycles

 The electronic state is 2-A.
 Alpha  occ. eigenvalues --  -19.04483 -18.94478 -14.31680 -14.23114 -14.21784
 Alpha  occ. eigenvalues --  -14.21478 -10.18294 -10.11327 -10.10574 -10.06497
 Alpha  occ. eigenvalues --  -10.04896  -0.99511  -0.98130  -0.89979  -0.83590
 Alpha  occ. eigenvalues --   -0.82107  -0.68754  -0.60596  -0.55152  -0.49823
 Alpha  occ. eigenvalues --   -0.41028  -0.38665  -0.37594  -0.37066  -0.36263
 Alpha  occ. eigenvalues --   -0.35399  -0.33544  -0.31885  -0.31430  -0.30950
 Alpha  occ. eigenvalues --   -0.29346  -0.26432  -0.25935  -0.24268  -0.23271
 Alpha  occ. eigenvalues --   -0.18821  -0.17640  -0.16433  -0.13433  -0.11591
 Alpha  occ. eigenvalues --    0.04724
 Alpha virt. eigenvalues --    0.07513   0.09935   0.10235   0.11125   0.11398
 Alpha virt. eigenvalues --    0.12899   0.13418   0.13567   0.15123   0.15289
 Alpha virt. eigenvalues --    0.16391   0.17028   0.17563   0.18359   0.18854

  Beta  occ. eigenvalues --  -19.04460 -18.94111 -14.31280 -14.22635 -14.21787
  Beta  occ. eigenvalues --  -14.21681 -10.18269 -10.10939 -10.10494 -10.06527
  Beta  occ. eigenvalues --  -10.04881  -0.98821  -0.98082  -0.89321  -0.83537
  Beta  occ. eigenvalues --   -0.81819  -0.68580  -0.60468  -0.54547  -0.49659
  Beta  occ. eigenvalues --   -0.40885  -0.38542  -0.37085  -0.36304  -0.35987
  Beta  occ. eigenvalues --   -0.34547  -0.33226  -0.31624  -0.30654  -0.30544
  Beta  occ. eigenvalues --   -0.29071  -0.26110  -0.25646  -0.23945  -0.21882
  Beta  occ. eigenvalues --   -0.18719  -0.17529  -0.16386  -0.12269  -0.11353
  Beta virt. eigenvalues --    0.07997   0.10020   0.10565   0.11320   0.11764
  Beta virt. eigenvalues --    0.11866   0.12977   0.13485   0.13961   0.15149
  Beta virt. eigenvalues --    0.15336   0.16543   0.17099   0.18243   0.18377

 Mulliken charges and spin densities:
               1          2
     1  C   -0.192820  -0.504026
     2  C   -0.674238   1.011917
     3  C    0.957407  -1.435440
     4  N   -0.225704   0.086890
     5  C    0.235921   0.132532
     6  O   -0.290682  -0.014948
     7  C   -0.073814  -0.027309
     8  O   -0.384354   0.131988
     9  N    0.113690  -0.093290
    10  N    0.390287   0.092007
    11  N   -0.532236   0.267351
    12  H    0.162611  -0.005133
    13  H    0.143839   0.004727
    14  H   -0.048400   0.173641
    15  H   -0.216166   0.433556
    16  H    0.241006  -0.041786
    17  H   -0.606346   0.787321
 Sum of Mulliken charges =  -1.00000   1.00000

 Dipole moment (field-independent basis, Debye):
    X=              1.6890    Y=             -0.7996    Z=              1.8989  Tot=              2.6642
 Quadrupole moment (field-independent basis, Debye-Ang):
   XX=           -104.4448   YY=            -92.8794   ZZ=            -74.9960
   XY=             -4.9483   XZ=             -3.1563   YZ=              3.5657

 Summary of Natural Population Analysis:

                                       Natural Population
                Natural  -----------------------------------------------
    Atom  No    Charge         Core      Valence    Rydberg      Total
 -----------------------------------------------------------------------
      C    1   -0.28788      0.99965     2.28148    0.00675     3.28788
      C    2   -0.15316      0.99956     2.14232    0.01128     3.15316
      C    3   -0.07812      0.99956     2.06639    0.01218     3.07812
      N    4   -0.27646      0.99951     2.76797    0.00899     3.77646
      C    5    0.42151      0.99956     1.56032    0.01861     2.57849
      O    6   -0.27408      0.99987     3.26717    0.00704     4.27408
      C    7    0.37908      0.99965     1.59344    0.02783     2.62092
      O    8   -0.28227      0.99987     3.27601    0.00639     4.28227
      N    9   -0.26352      0.99967     2.75095    0.01289     3.76352
      N   10    0.16890      0.99971     2.31482    0.01657     3.33110
      N   11    0.03056      0.99981     2.45739    0.01224     3.46944
      H   12    0.10478      0.00000     0.39406    0.00116     0.39522
      H   13    0.10224      0.00000     0.39693    0.00084     0.39776
      H   14    0.09428      0.00000     0.40475    0.00097     0.40572
      H   15    0.11154      0.00000     0.38681    0.00165     0.38846
      H   16    0.10467      0.00000     0.39410    0.00124     0.39533
      H   17    0.09794      0.00000     0.39851    0.00356     0.40206
 =======================================================================
   * Total *    0.00000     10.99643    28.85340    0.15018    40.00000

 Normal termination of Gaussian 16 at Tue Dec  8 19:48:19 2020.
