 Gaussian 16, Revision A.03,

 -----------------------------------------------------------
 # opt freq B3LYP/6-31G(d) empiricaldispersion=gd3bj scf=xqc
 -----------------------------------------------------------

 ------------------------------
 CID_79824883_JID_3115_neutraal
 ------------------------------
 Symbolic Z-matrix:
 Charge =  0 Multiplicity = 1

 SCF Done:  E(RB3LYP) =  -934.333393156     A.U. after   15 cycles
 SCF Done:  E(RB3LYP) =  -934.336074582     A.U. after   12 cycles
 SCF Done:  E(RB3LYP) =  -934.336465518     A.U. after   12 cycles
 SCF Done:  E(RB3LYP) =  -934.336570603     A.U. after   12 cycles
 SCF Done:  E(RB3LYP) =  -934.336654180     A.U. after   11 cycles
 SCF Done:  E(RB3LYP) =  -934.336688941     A.U. after   11 cycles
 SCF Done:  E(RB3LYP) =  -934.336701793     A.U. after   11 cycles
 SCF Done:  E(RB3LYP) =  -934.336709239     A.U. after   10 cycles
 SCF Done:  E(RB3LYP) =  -934.336712491     A.U. after    9 cycles
 SCF Done:  E(RB3LYP) =  -934.336713065     A.U. after    9 cycles
 SCF Done:  E(RB3LYP) =  -934.336713092     A.U. after    7 cycles
 Optimization completed.
    -- Stationary point found.
 Normal termination of Gaussian 16 at Wed Dec  9 22:25:31 2020.

 --------------------------------------------------------------------
 #N Geom=AllCheck Guess=TCheck SCRF=Check GenChk RB3LYP/6-31G(d) Freq
 --------------------------------------------------------------------

 Structure from the checkpoint file:  "JID_3115.chk"
 ------------------------------
 CID_79824883_JID_3115_neutraal
 ------------------------------
 Charge =  0 Multiplicity = 1

 SCF Done:  E(RB3LYP) =  -934.336713092     A.U. after    1 cycles

  Exact polarizability: 148.305  -4.597 122.881 -10.860   3.066  88.905
 Approx polarizability: 206.792   1.430 212.949 -20.287   0.134 141.979

                      1                      2                      3
                      A                      A                      A
 Frequencies --     25.9157                62.1733               102.4141
 Red. masses --      6.6390                 5.2664                 4.3111
 Frc consts  --      0.0026                 0.0120                 0.0266
 IR Inten    --      0.2032                 0.3918                 0.3267

                      4                      5                      6
                      A                      A                      A
 Frequencies --    148.6760               198.9668               252.0446
 Red. masses --      5.2500                 2.9151                 3.7649
 Frc consts  --      0.0684                 0.0680                 0.1409
 IR Inten    --      1.6913                 1.4006                 1.0909

                      7                      8                      9
                      A                      A                      A
 Frequencies --    272.2832               290.1016               338.0715
 Red. masses --      2.0318                 2.2276                 1.7026
 Frc consts  --      0.0888                 0.1105                 0.1147
 IR Inten    --      9.5239                 7.7346                11.2629

                     10                     11                     12
                      A                      A                      A
 Frequencies --    363.7613               386.3105               409.7701
 Red. masses --      2.2856                 2.0620                 2.6069
 Frc consts  --      0.1782                 0.1813                 0.2579
 IR Inten    --     10.5952                 4.5266                 6.3254

                     13                     14                     15
                      A                      A                      A
 Frequencies --    458.0756               481.6878               500.9172
 Red. masses --      2.8731                 2.8528                 3.2466
 Frc consts  --      0.3552                 0.3900                 0.4800
 IR Inten    --      1.0359                 7.6489                 1.1356

                     16                     17                     18
                      A                      A                      A
 Frequencies --    534.1197               604.5231               616.6573
 Red. masses --      3.5427                 6.6292                 3.2039
 Frc consts  --      0.5955                 1.4274                 0.7178
 IR Inten    --      7.4154                 4.7635                 2.7987

                     19                     20                     21
                      A                      A                      A
 Frequencies --    630.1499               697.2713               726.5255
 Red. masses --      2.8102                 3.8884                 1.5637
 Frc consts  --      0.6575                 1.1138                 0.4863
 IR Inten    --     24.9438                12.2827                23.5289

                     22                     23                     24
                      A                      A                      A
 Frequencies --    749.7619               778.5866               831.4282
 Red. masses --      2.7119                 6.1365                 1.5504
 Frc consts  --      0.8982                 2.1917                 0.6315
 IR Inten    --      6.3356                11.9209                 2.5938

                     25                     26                     27
                      A                      A                      A
 Frequencies --    860.4844               886.9012               889.3918
 Red. masses --      3.0040                 1.9411                 2.7260
 Frc consts  --      1.3105                 0.8996                 1.2705
 IR Inten    --     17.0450               127.1753                55.8204

                     28                     29                     30
                      A                      A                      A
 Frequencies --    896.4816               903.5829               932.1587
 Red. masses --      1.3250                 2.2063                 2.1133
 Frc consts  --      0.6274                 1.0613                 1.0819
 IR Inten    --      0.8383                 4.9987                16.1730

                     31                     32                     33
                      A                      A                      A
 Frequencies --    963.4618              1020.4912              1033.6932
 Red. masses --      2.3273                 1.9821                 2.4179
 Frc consts  --      1.2728                 1.2162                 1.5222
 IR Inten    --     34.9829                 4.4029                23.6114

                     34                     35                     36
                      A                      A                      A
 Frequencies --   1054.2664              1075.8392              1098.0970
 Red. masses --      1.5587                 2.2545                 1.5101
 Frc consts  --      1.0207                 1.5374                 1.0728
 IR Inten    --      4.6894                31.4568                 2.1504

                     37                     38                     39
                      A                      A                      A
 Frequencies --   1099.1931              1145.4670              1170.9448
 Red. masses --      1.5988                 4.9623                 2.3013
 Frc consts  --      1.1382                 3.8362                 1.8591
 IR Inten    --      4.9049                79.6790                68.0043

                     40                     41                     42
                      A                      A                      A
 Frequencies --   1200.7758              1220.6937              1223.0755
 Red. masses --      2.6959                 1.1496                 2.2730
 Frc consts  --      2.2902                 1.0093                 2.0033
 IR Inten    --     25.1764                 3.3541                10.7679

                     43                     44                     45
                      A                      A                      A
 Frequencies --   1264.6497              1283.4898              1311.0165
 Red. masses --      1.4731                 1.2984                 1.3869
 Frc consts  --      1.3881                 1.2602                 1.4044
 IR Inten    --     26.2096                14.7807                 4.6129

                     46                     47                     48
                      A                      A                      A
 Frequencies --   1327.0339              1339.9781              1357.6888
 Red. masses --      1.4362                 1.2514                 1.9449
 Frc consts  --      1.4902                 1.3238                 2.1123
 IR Inten    --      5.3378                21.5113                 0.8168

                     49                     50                     51
                      A                      A                      A
 Frequencies --   1363.1594              1388.6852              1407.3829
 Red. masses --      1.3756                 1.4427                 1.5645
 Frc consts  --      1.5060                 1.6392                 1.8258
 IR Inten    --      0.6556                 6.0676                 6.7925

                     52                     53                     54
                      A                      A                      A
 Frequencies --   1414.5313              1444.0203              1496.3010
 Red. masses --      1.6227                 1.3295                 2.2814
 Frc consts  --      1.9130                 1.6333                 3.0095
 IR Inten    --      5.7338                 9.5491                 6.7081

                     55                     56                     57
                      A                      A                      A
 Frequencies --   1503.1053              1504.5498              1519.6160
 Red. masses --      1.0973                 1.5285                 1.1036
 Frc consts  --      1.4607                 2.0386                 1.5015
 IR Inten    --      3.3786                 4.6031                 5.6043

                     58                     59                     60
                      A                      A                      A
 Frequencies --   1531.1661              1542.9972              1572.3994
 Red. masses --      1.0849                 1.0971                 6.1845
 Frc consts  --      1.4986                 1.5389                 9.0091
 IR Inten    --      0.2186                 5.2222                31.8010

                     61                     62                     63
                      A                      A                      A
 Frequencies --   1692.7482              2979.2805              3007.4433
 Red. masses --      1.0955                 1.0724                 1.0710
 Frc consts  --      1.8495                 5.6085                 5.7073
 IR Inten    --     20.3396                52.1321                45.9406

                     64                     65                     66
                      A                      A                      A
 Frequencies --   3035.3189              3057.5432              3065.5789
 Red. masses --      1.0670                 1.0660                 1.0601
 Frc consts  --      5.7918                 5.8715                 5.8699
 IR Inten    --     29.3003                30.5855                10.1043

                     67                     68                     69
                      A                      A                      A
 Frequencies --   3100.1565              3108.8269              3109.1575
 Red. masses --      1.0935                 1.0975                 1.0961
 Frc consts  --      6.1919                 6.2493                 6.2428
 IR Inten    --     31.6693                10.2368                45.9632

                     70                     71                     72
                      A                      A                      A
 Frequencies --   3114.9756              3123.9675              3235.1033
 Red. masses --      1.0983                 1.0962                 1.0914
 Frc consts  --      6.2790                 6.3032                 6.7300
 IR Inten    --     54.2664                10.8186                 9.1575

                     73                     74                     75
                      A                      A                      A
 Frequencies --   3283.3181              3452.6098              3543.6289
 Red. masses --      1.0980                 1.0491                 1.0922
 Frc consts  --      6.9736                 7.3680                 8.0810
 IR Inten    --      1.3531                 2.5294                 0.3105

 - Thermochemistry -
 -------------------
 Temperature   298.150 Kelvin.  Pressure   1.00000 Atm.
 Atom     1 has atomic number  6 and mass  12.00000

 Molecular mass:   198.08268 amu.
 Principal axes and moments of inertia in atomic units:
                           1         2         3
     Eigenvalues --  1204.999144035.709074618.64720
           X            0.99988  -0.01269  -0.00941
           Y            0.01287   0.99972   0.02009
           Z            0.00916  -0.02021   0.99975
 This molecule is an asymmetric top.
 Rotational symmetry number  1.
 Warning -- assumption of classical behavior for rotation
           may cause significant error
 Rotational temperatures (Kelvin)      0.07188     0.02146     0.01875
 Rotational constants (GHZ):           1.49771     0.44719     0.39075
 Zero-point vibrational energy     601821.0 (Joules/Mol)
                                  143.83868 (Kcal/Mol)
 Warning -- explicit consideration of  18 degrees of freedom as
           vibrations may cause significant error
 Vibrational temperatures:     37.29    89.45   147.35   213.91   286.27
          (Kelvin)            362.64   391.75   417.39   486.41   523.37
                              555.81   589.57   659.07   693.04   720.71
                              768.48   869.77   887.23   906.65  1003.22
                             1045.31  1078.74  1120.21  1196.24  1238.05
                             1276.05  1279.64  1289.84  1300.05  1341.17
                             1386.21  1468.26  1487.25  1516.85  1547.89
                             1579.92  1581.49  1648.07  1684.73  1727.65
                             1756.31  1759.73  1819.55  1846.66  1886.26
                             1909.31  1927.93  1953.41  1961.28  1998.01
                             2024.91  2035.20  2077.62  2152.84  2162.63
                             2164.71  2186.39  2203.01  2220.03  2262.33
                             2435.49  4286.52  4327.04  4367.15  4399.12
                             4410.68  4460.43  4472.91  4473.38  4481.76
                             4494.69  4654.59  4723.96  4967.54  5098.49

 Zero-point correction=                           0.229222 (Hartree/Particle)
 Thermal correction to Energy=                    0.241009
 Thermal correction to Enthalpy=                  0.241953
 Thermal correction to Gibbs Free Energy=         0.190547
 Sum of electronic and zero-point Energies=           -934.107492
 Sum of electronic and thermal Energies=              -934.095704
 Sum of electronic and thermal Enthalpies=            -934.094760
 Sum of electronic and thermal Free Energies=         -934.146166

                     E (Thermal)             CV                S
                      KCal/Mol        Cal/Mol-Kelvin    Cal/Mol-Kelvin
 Total                  151.236             46.865            108.193
 Electronic               0.000              0.000              0.000
 Translational            0.889              2.981             41.755
 Rotational               0.889              2.981             31.485
 Vibrational            149.458             40.904             34.952
 Vibration     1          0.593              1.985              6.120
 Vibration     2          0.597              1.972              4.387
 Vibration     3          0.604              1.947              3.408
 Vibration     4          0.618              1.904              2.689
 Vibration     5          0.637              1.841              2.143
 Vibration     6          0.664              1.759              1.716
 Vibration     7          0.675              1.724              1.582
 Vibration     8          0.686              1.692              1.473
 Vibration     9          0.718              1.599              1.221
 Vibration    10          0.737              1.547              1.106
 Vibration    11          0.755              1.499              1.014
 Vibration    12          0.774              1.449              0.927
 Vibration    13          0.816              1.343              0.772
 Vibration    14          0.838              1.291              0.706
 Vibration    15          0.856              1.248              0.656
 Vibration    16          0.889              1.175              0.578
 Vibration    17          0.963              1.022              0.442
 Vibration    18          0.976              0.997              0.422

 Optimization completed.
    -- Stationary point found.
 Normal termination of Gaussian 16 at Wed Dec  9 22:33:11 2020.

 ----------------------------------------------------------------------
 # B3LYP/6-311++G(d,p) empiricaldispersion=gd3bj scf=xqc pop=npa geom=c
 heck
 ----------------------------------------------------------------------

 --------------------------------------
 CID_79824883_JID_3115_Energie_neutraal
 --------------------------------------
 Structure from the checkpoint file:  "JID_3115.chk"
 Charge =  0 Multiplicity = 1

 SCF Done:  E(RB3LYP) =  -934.518288357     A.U. after   16 cycles
 Normal termination of Gaussian 16 at Wed Dec  9 22:36:57 2020.

 ----------------------------------------------------------------------
 # B3LYP/6-311++G(d,p) empiricaldispersion=gd3bj scf=xqc pop=npa geom=c
 heck
 ----------------------------------------------------------------------

 ------------------------------------
 CID_79824883_JID_3115_Energie_kation
 ------------------------------------
 Structure from the checkpoint file:  "JID_3115.chk"
 Charge =  1 Multiplicity = 2

 SCF Done:  E(UB3LYP) =  -934.204962068     A.U. after   30 cycles
 Normal termination of Gaussian 16 at Wed Dec  9 22:47:23 2020.
 Gaussian 16:  ES64L-G16RevA.03 25-Dec-2016

 ----------------------------------------------------------------------
 # B3LYP/6-311++G(d,p) empiricaldispersion=gd3bj scf=xqc pop=npa geom=c
 heck
 ----------------------------------------------------------------------

 -----------------------------------
 CID_79824883_JID_3115_Energie_anion
 -----------------------------------
 Structure from the checkpoint file:  "JID_3115.chk"
 Charge = -1 Multiplicity = 2

                         Standard orientation:
 ---------------------------------------------------------------------
 Center     Atomic      Atomic             Coordinates (Angstroms)
 Number     Number       Type             X           Y           Z
 ---------------------------------------------------------------------
      1          6           0        1.187474    0.393874    1.185835
      2          6           0        1.995285    1.536324    0.572068
      3          8           0        3.269561    1.091187    0.120288
      4          6           0        3.154030    0.089334   -0.876479
      5          6           0        2.394674   -1.138635   -0.366527
      6          6           0        1.007935   -0.781491    0.207341
      7          6           0        0.054849   -0.407618   -0.979657
      8          6           0       -1.281040    0.116351   -0.563960
      9          7           0       -1.569678    1.383911   -0.452696
     10          6           0       -2.854569    1.572232    0.005433
     11          6           0       -3.574375    0.440396    0.254932
     12         16           0       -2.604401   -0.955010   -0.096306
     13          7           0        0.527617   -1.934893    0.974691
     14          1           0        0.213814    0.769926    1.520750
     15          1           0        1.718440    0.009743    2.063272
     16          1           0        2.194820    2.309437    1.319277
     17          1           0        1.438424    2.005300   -0.254846
     18          1           0        4.176476   -0.183947   -1.153666
     19          1           0        2.668740    0.507360   -1.775223
     20          1           0        2.969933   -1.606240    0.439315
     21          1           0        2.296972   -1.877470   -1.174813
     22          1           0        0.506566    0.365418   -1.606750
     23          1           0       -0.063430   -1.301813   -1.603771
     24          1           0       -3.223273    2.582901    0.136996
     25          1           0       -4.591842    0.349899    0.607875
     26          1           0       -0.364668   -1.719837    1.417999
     27          1           0        0.361802   -2.727733    0.354279
 ---------------------------------------------------------------------

 SCF Done:  E(UB3LYP) =  -934.507220984     A.U. after   33 cycles
 SCF Done:  E(UB3LYP) =  -934.507220984     a.u. after    1 cycles

 The electronic state is 2-A.
 Alpha  occ. eigenvalues --  -88.74414 -19.01412 -14.17987 -14.17602 -10.10508
 Alpha  occ. eigenvalues --  -10.10401 -10.09701 -10.08919 -10.07317 -10.06469
 Alpha  occ. eigenvalues --  -10.05357 -10.05237 -10.05069  -7.83069  -5.79335
 Alpha  occ. eigenvalues --   -5.78995  -5.78701  -0.92899  -0.82961  -0.78479
 Alpha  occ. eigenvalues --   -0.67147  -0.66329  -0.65451  -0.63596  -0.56958
 Alpha  occ. eigenvalues --   -0.53268  -0.51233  -0.46184  -0.43882  -0.40514
 Alpha  occ. eigenvalues --   -0.38877  -0.37958  -0.37298  -0.35995  -0.34755
 Alpha  occ. eigenvalues --   -0.33914  -0.32285  -0.30879  -0.28656  -0.28432
 Alpha  occ. eigenvalues --   -0.27243  -0.26608  -0.25025  -0.24326  -0.23679
 Alpha  occ. eigenvalues --   -0.23143  -0.20596  -0.19776  -0.16204  -0.15162
 Alpha  occ. eigenvalues --   -0.14551  -0.13286  -0.11905   0.05422
 Alpha virt. eigenvalues --    0.07705   0.08077   0.08902   0.09498   0.09979
 Alpha virt. eigenvalues --    0.10415   0.11520   0.12098   0.12428   0.12596
 Alpha virt. eigenvalues --    0.13022   0.14181   0.14686   0.15104   0.15318

  Beta  occ. eigenvalues --  -88.74378 -19.01406 -14.17974 -14.17554 -10.10506
  Beta  occ. eigenvalues --  -10.10382 -10.09675 -10.08570 -10.07314 -10.06247
  Beta  occ. eigenvalues --  -10.05360 -10.05232 -10.05039  -7.83036  -5.79323
  Beta  occ. eigenvalues --   -5.78984  -5.78575  -0.92887  -0.82686  -0.78442
  Beta  occ. eigenvalues --   -0.67020  -0.66093  -0.65419  -0.63296  -0.56825
  Beta  occ. eigenvalues --   -0.53227  -0.51177  -0.45848  -0.43735  -0.40280
  Beta  occ. eigenvalues --   -0.38841  -0.37860  -0.37222  -0.35914  -0.34666
  Beta  occ. eigenvalues --   -0.33775  -0.32174  -0.30809  -0.28507  -0.28196
  Beta  occ. eigenvalues --   -0.26894  -0.26399  -0.24933  -0.24275  -0.23436
  Beta  occ. eigenvalues --   -0.23004  -0.20516  -0.19752  -0.15558  -0.15077
  Beta  occ. eigenvalues --   -0.14376  -0.13129  -0.10808
  Beta virt. eigenvalues --    0.07911   0.08353   0.09311   0.09500   0.09936
  Beta virt. eigenvalues --    0.10385   0.10803   0.12165   0.12190   0.12467
  Beta virt. eigenvalues --    0.13049   0.13155   0.14263   0.14988   0.15341

 Mulliken charges and spin densities:
               1          2
     1  C    0.008633  -0.158024
     2  C   -0.497196  -0.152570
     3  O   -0.155606   0.036082
     4  C    0.572144  -1.057544
     5  C   -0.425037   0.382921
     6  C   -0.246360   0.406994
     7  C    0.135267  -1.269523
     8  C    0.402071   0.105295
     9  N    0.027418   0.025010
    10  C   -0.159720  -0.034909
    11  C   -0.184561   0.211608
    12  S   -0.096397  -0.022615
    13  N   -0.287308  -0.050903
    14  H    0.179090  -0.022341
    15  H    0.147013   0.038339
    16  H    0.199487  -0.036802
    17  H    0.142139   0.043933
    18  H   -0.353812   0.550248
    19  H   -0.015822   0.145513
    20  H    0.177267  -0.003484
    21  H   -0.625773   0.772617
    22  H    0.181614  -0.026764
    23  H   -0.685235   0.920137
    24  H    0.099433   0.022907
    25  H    0.172318   0.009765
    26  H    0.199925   0.007327
    27  H    0.089010   0.156782
 Sum of Mulliken charges =  -1.00000   1.00000

 Dipole moment (field-independent basis, Debye):
    X=             -2.4534    Y=              3.1350    Z=              4.6991  Tot=              6.1586
 Quadrupole moment (field-independent basis, Debye-Ang):
   XX=           -133.5667   YY=           -118.2215   ZZ=           -114.4398
   XY=              3.1743   XZ=              2.5558   YZ=             -6.2812

 Summary of Natural Population Analysis:

                                       Natural Population
                Natural  -----------------------------------------------
    Atom  No    Charge         Core      Valence    Rydberg      Total
 -----------------------------------------------------------------------
      C    1   -0.20930      0.99957     2.20144    0.00828     3.20930
      C    2   -0.01038      0.99958     1.99939    0.01141     3.01038
      O    3   -0.30298      0.99989     3.29463    0.00846     4.30298
      C    4   -0.00976      0.99958     1.99607    0.01410     3.00976
      C    5   -0.20684      0.99957     2.19560    0.01167     3.20684
      C    6    0.06493      0.99955     1.92149    0.01403     2.93507
      C    7   -0.23076      0.99953     2.21682    0.01441     3.23076
      C    8    0.09484      0.99960     1.88581    0.01975     2.90516
      N    9   -0.25474      0.99964     2.74382    0.01127     3.75474
      C   10   -0.02834      0.99953     2.01487    0.01394     3.02834
      C   11   -0.18529      0.99954     2.17589    0.00986     3.18529
      S   12    0.17644      4.99943     2.80345    0.02068     7.82356
      N   13   -0.42943      0.99974     2.91956    0.01013     3.92943
      H   14    0.10894      0.00000     0.39013    0.00094     0.39106
      H   15    0.10125      0.00000     0.39766    0.00109     0.39875
      H   16    0.08597      0.00000     0.41304    0.00098     0.41403
      H   17    0.08507      0.00000     0.41355    0.00138     0.41493
      H   18    0.09032      0.00000     0.40831    0.00137     0.40968
      H   19    0.07777      0.00000     0.42075    0.00147     0.42223
      H   20    0.10224      0.00000     0.39637    0.00139     0.39776
      H   21    0.10638      0.00000     0.39052    0.00310     0.39362
      H   22    0.11222      0.00000     0.38562    0.00216     0.38778
      H   23    0.11376      0.00000     0.38124    0.00500     0.38624
      H   24    0.09105      0.00000     0.40800    0.00095     0.40895
      H   25    0.10212      0.00000     0.39704    0.00084     0.39788
      H   26    0.17755      0.00000     0.32029    0.00216     0.32245
      H   27    0.17698      0.00000     0.32118    0.00184     0.32302
 =======================================================================
   * Total *   -0.00000     16.99476    35.81256    0.19268    53.00000

 Normal termination of Gaussian 16 at Wed Dec  9 22:58:39 2020.
