 Gaussian 16, Revision A.03,

 -----------------------------------------------------------
 # opt freq B3LYP/6-31G(d) empiricaldispersion=gd3bj scf=xqc
 -----------------------------------------------------------

 -----------------------------
 CID_73414351_JID_968_neutraal
 -----------------------------
 Symbolic Z-matrix:
 Charge =  0 Multiplicity = 1

 SCF Done:  E(RB3LYP) =  -479.796908700     A.U. after   15 cycles
 SCF Done:  E(RB3LYP) =  -479.800492978     A.U. after   12 cycles
 SCF Done:  E(RB3LYP) =  -479.800908505     A.U. after   12 cycles
 SCF Done:  E(RB3LYP) =  -479.801041470     A.U. after   11 cycles
 SCF Done:  E(RB3LYP) =  -479.801135650     A.U. after   12 cycles
 SCF Done:  E(RB3LYP) =  -479.801203567     A.U. after   11 cycles
 SCF Done:  E(RB3LYP) =  -479.801279427     A.U. after   11 cycles
 SCF Done:  E(RB3LYP) =  -479.801406151     A.U. after   11 cycles
 SCF Done:  E(RB3LYP) =  -479.801467871     A.U. after   11 cycles
 SCF Done:  E(RB3LYP) =  -479.801475938     A.U. after   11 cycles
 SCF Done:  E(RB3LYP) =  -479.801481666     A.U. after   11 cycles
 Optimization completed.
    -- Stationary point found.
 Normal termination of Gaussian 16 at Tue Dec  8 13:42:00 2020.

 --------------------------------------------------------------------
 #N Geom=AllCheck Guess=TCheck SCRF=Check GenChk RB3LYP/6-31G(d) Freq
 --------------------------------------------------------------------

 Structure from the checkpoint file:  "JID_968.chk"
 -----------------------------
 CID_73414351_JID_968_neutraal
 -----------------------------
 Charge =  0 Multiplicity = 1

 SCF Done:  E(RB3LYP) =  -479.801481666     A.U. after    1 cycles

  Exact polarizability: 107.109   2.951  90.350 -11.138  -7.767  67.568
 Approx polarizability: 149.455  12.766 127.154 -30.540 -22.901 107.906

                      1                      2                      3
                      A                      A                      A
 Frequencies --     46.5191                71.4655                84.5017
 Red. masses --      4.3609                 3.9150                 3.7225
 Frc consts  --      0.0056                 0.0118                 0.0157
 IR Inten    --      0.7929                 0.1106                 0.3268

                      4                      5                      6
                      A                      A                      A
 Frequencies --    120.8917               131.7657               186.7881
 Red. masses --      2.1522                 2.5421                 1.4960
 Frc consts  --      0.0185                 0.0260                 0.0308
 IR Inten    --      0.7951                 2.0036                 0.9264

                      7                      8                      9
                      A                      A                      A
 Frequencies --    232.0357               248.2753               266.4008
 Red. masses --      2.6990                 1.3925                 1.9482
 Frc consts  --      0.0856                 0.0506                 0.0815
 IR Inten    --      3.0859                 1.3662                 0.1268

                     10                     11                     12
                      A                      A                      A
 Frequencies --    304.7916               364.4907               408.3036
 Red. masses --      2.7378                 2.5322                 2.3735
 Frc consts  --      0.1498                 0.1982                 0.2331
 IR Inten    --      0.1938                 4.9152                 2.7160

                     13                     14                     15
                      A                      A                      A
 Frequencies --    454.2342               504.0514               549.5683
 Red. masses --      4.5911                 5.2156                 1.8348
 Frc consts  --      0.5581                 0.7807                 0.3265
 IR Inten    --     15.0495                 1.0664                23.2172

                     16                     17                     18
                      A                      A                      A
 Frequencies --    631.9732               661.4030               702.9917
 Red. masses --      1.7486                 2.1958                 2.1569
 Frc consts  --      0.4115                 0.5660                 0.6280
 IR Inten    --    121.2427                20.8929                73.9279

                     19                     20                     21
                      A                      A                      A
 Frequencies --    750.2055               783.3549               837.5147
 Red. masses --      2.0171                 1.6489                 1.9118
 Frc consts  --      0.6689                 0.5961                 0.7901
 IR Inten    --     45.2990                24.9139                 1.3690

                     22                     23                     24
                      A                      A                      A
 Frequencies --    844.7289               878.4158               930.9457
 Red. masses --      1.6715                 2.1757                 1.4708
 Frc consts  --      0.7028                 0.9891                 0.7510
 IR Inten    --     11.4715                 9.6971                 3.1243

                     25                     26                     27
                      A                      A                      A
 Frequencies --   1002.9020              1035.6722              1080.5155
 Red. masses --      2.6767                 2.5326                 2.5270
 Frc consts  --      1.5862                 1.6005                 1.7383
 IR Inten    --      1.9326                20.6722                 1.3202

                     28                     29                     30
                      A                      A                      A
 Frequencies --   1114.6191              1146.0468              1159.3004
 Red. masses --      1.6837                 1.8063                 1.3575
 Frc consts  --      1.2324                 1.3978                 1.0749
 IR Inten    --      2.2107                10.4045                 0.6500

                     31                     32                     33
                      A                      A                      A
 Frequencies --   1204.6294              1206.7262              1233.2558
 Red. masses --      2.4519                 1.6061                 1.9888
 Frc consts  --      2.0963                 1.3780                 1.7822
 IR Inten    --    332.9804                12.7007                19.1081

                     34                     35                     36
                      A                      A                      A
 Frequencies --   1272.4229              1305.4405              1378.1392
 Red. masses --      1.2920                 1.2657                 1.3324
 Frc consts  --      1.2325                 1.2709                 1.4910
 IR Inten    --      2.3377                 1.5965                17.1967

                     37                     38                     39
                      A                      A                      A
 Frequencies --   1392.4704              1408.4371              1422.7924
 Red. masses --      1.3430                 2.2633                 1.4934
 Frc consts  --      1.5343                 2.6452                 1.7812
 IR Inten    --      4.4688                94.1368                12.0427

                     40                     41                     42
                      A                      A                      A
 Frequencies --   1441.1511              1489.1213              1514.8329
 Red. masses --      1.2871                 1.1714                 1.0623
 Frc consts  --      1.5750                 1.5305                 1.4362
 IR Inten    --      6.5789                 9.0094                 6.6731

                     43                     44                     45
                      A                      A                      A
 Frequencies --   1518.2858              1523.3603              1531.1434
 Red. masses --      1.0718                 1.0808                 1.0646
 Frc consts  --      1.4557                 1.4778                 1.4705
 IR Inten    --      1.9798                 0.7604                 3.6440

                     46                     47                     48
                      A                      A                      A
 Frequencies --   1538.3350              1552.0849              1570.6514
 Red. masses --      1.0599                 1.0857                 1.4574
 Frc consts  --      1.4778                 1.5409                 2.1183
 IR Inten    --      4.3404                 3.2624               116.0288

                     49                     50                     51
                      A                      A                      A
 Frequencies --   1717.2172              1799.4122              3008.0137
 Red. masses --      5.9075                 9.0719                 1.0526
 Frc consts  --     10.2638                17.3065                 5.6114
 IR Inten    --     31.9396               335.6501                56.5027

                     52                     53                     54
                      A                      A                      A
 Frequencies --   3039.1885              3044.3693              3050.3683
 Red. masses --      1.0627                 1.0375                 1.0604
 Frc consts  --      5.7833                 5.6656                 5.8131
 IR Inten    --     25.6230                31.3080                43.1657

                     55                     56                     57
                      A                      A                      A
 Frequencies --   3077.0156              3087.2820              3094.5576
 Red. masses --      1.1002                 1.1011                 1.0843
 Frc consts  --      6.1374                 6.1832                 6.1176
 IR Inten    --     15.1662                30.6362                36.0425

                     58                     59                     60
                      A                      A                      A
 Frequencies --   3111.0710              3122.0467              3136.5106
 Red. masses --      1.1012                 1.1025                 1.1017
 Frc consts  --      6.2796                 6.3318                 6.3855
 IR Inten    --     52.1449                45.9376                22.6193

                     61                     62                     63
                      A                      A                      A
 Frequencies --   3229.4808              3558.9999              3703.3589
 Red. masses --      1.0887                 1.0748                 1.0642
 Frc consts  --      6.6899                 8.0213                 8.5996
 IR Inten    --      1.6072                54.3829                73.7218

 - Thermochemistry -
 -------------------
 Temperature   298.150 Kelvin.  Pressure   1.00000 Atm.
 Atom     1 has atomic number  6 and mass  12.00000

 Molecular mass:   143.09463 amu.
 Principal axes and moments of inertia in atomic units:
                           1         2         3
     Eigenvalues --  1040.926092070.395102676.06869
           X            0.99976   0.02010   0.00870
           Y           -0.02025   0.99964   0.01777
           Z           -0.00834  -0.01794   0.99980
 This molecule is an asymmetric top.
 Rotational symmetry number  1.
 Warning -- assumption of classical behavior for rotation
           may cause significant error
 Rotational temperatures (Kelvin)      0.08321     0.04183     0.03237
 Rotational constants (GHZ):           1.73378     0.87169     0.67440
 Zero-point vibrational energy     525261.4 (Joules/Mol)
                                  125.54048 (Kcal/Mol)
 Warning -- explicit consideration of  15 degrees of freedom as
           vibrations may cause significant error
 Vibrational temperatures:     66.93   102.82   121.58   173.94   189.58
          (Kelvin)            268.75   333.85   357.21   383.29   438.53
                              524.42   587.46   653.54   725.22   790.71
                              909.27   951.61  1011.45  1079.38  1127.07
                             1205.00  1215.38  1263.84  1339.42  1442.95
                             1490.10  1554.62  1603.69  1648.91  1667.97
                             1733.19  1736.21  1774.38  1830.73  1878.24
                             1982.83  2003.45  2026.43  2047.08  2073.50
                             2142.51  2179.51  2184.47  2191.78  2202.97
                             2213.32  2233.10  2259.82  2470.69  2588.95
                             4327.86  4372.71  4380.17  4388.80  4427.14
                             4441.91  4452.38  4476.14  4491.93  4512.74
                             4646.50  5120.61  5328.31

 Zero-point correction=                           0.200061 (Hartree/Particle)
 Thermal correction to Energy=                    0.211549
 Thermal correction to Enthalpy=                  0.212493
 Thermal correction to Gibbs Free Energy=         0.162329
 Sum of electronic and zero-point Energies=           -479.601420
 Sum of electronic and thermal Energies=              -479.589933
 Sum of electronic and thermal Enthalpies=            -479.588989
 Sum of electronic and thermal Free Energies=         -479.639153

                     E (Thermal)             CV                S
                      KCal/Mol        Cal/Mol-Kelvin    Cal/Mol-Kelvin
 Total                  132.749             41.302            105.580
 Electronic               0.000              0.000              0.000
 Translational            0.889              2.981             40.786
 Rotational               0.889              2.981             30.135
 Vibrational            130.972             35.340             34.659
 Vibration     1          0.595              1.979              4.960
 Vibration     2          0.598              1.968              4.113
 Vibration     3          0.601              1.960              3.783
 Vibration     4          0.609              1.932              3.086
 Vibration     5          0.612              1.922              2.920
 Vibration     6          0.632              1.858              2.259
 Vibration     7          0.653              1.792              1.863
 Vibration     8          0.662              1.766              1.743
 Vibration     9          0.672              1.735              1.619
 Vibration    10          0.696              1.665              1.390
 Vibration    11          0.738              1.545              1.103
 Vibration    12          0.773              1.452              0.933
 Vibration    13          0.813              1.352              0.783
 Vibration    14          0.859              1.241              0.648
 Vibration    15          0.905              1.141              0.545

                           ! Non-Optimized Parameters !
 Normal termination of Gaussian 16 at Tue Dec  8 13:46:42 2020.

 ----------------------------------------------------------------------
 # B3LYP/6-311++G(d,p) empiricaldispersion=gd3bj scf=xqc pop=npa geom=c
 heck
 ----------------------------------------------------------------------

 -------------------------------------
 CID_73414351_JID_968_Energie_neutraal
 -------------------------------------
 Structure from the checkpoint file:  "JID_968.chk"
 Charge =  0 Multiplicity = 1

 SCF Done:  E(RB3LYP) =  -479.954236085     A.U. after   15 cycles
 Normal termination of Gaussian 16 at Tue Dec  8 13:50:35 2020.

 ----------------------------------------------------------------------
 # B3LYP/6-311++G(d,p) empiricaldispersion=gd3bj scf=xqc pop=npa geom=c
 heck
 ----------------------------------------------------------------------

 -----------------------------------
 CID_73414351_JID_968_Energie_kation
 -----------------------------------
 Structure from the checkpoint file:  "JID_968.chk"
 Charge =  1 Multiplicity = 2

 SCF Done:  E(UB3LYP) =  -479.662795184     A.U. after   19 cycles
 Normal termination of Gaussian 16 at Tue Dec  8 13:56:45 2020.
 Gaussian 16:  ES64L-G16RevA.03 25-Dec-2016

 ----------------------------------------------------------------------
 # B3LYP/6-311++G(d,p) empiricaldispersion=gd3bj scf=xqc pop=npa geom=c
 heck
 ----------------------------------------------------------------------

 ----------------------------------
 CID_73414351_JID_968_Energie_anion
 ----------------------------------
 Structure from the checkpoint file:  "JID_968.chk"
 Charge = -1 Multiplicity = 2

                         Standard orientation:
 ---------------------------------------------------------------------
 Center     Atomic      Atomic             Coordinates (Angstroms)
 Number     Number       Type             X           Y           Z
 ---------------------------------------------------------------------
      1          6           0       -2.706561   -1.391831   -0.913624
      2          6           0       -2.560556    0.003727   -0.303672
      3          6           0       -1.765581    0.004002    1.020772
      4          6           0       -0.344739   -0.464214    0.847453
      5          6           0        0.630662    0.147068    0.136810
      6          6           0        1.941070   -0.530962   -0.076245
      7          8           0        2.876964   -0.009608   -0.659109
      8          8           0        2.020290   -1.788100    0.417048
      9          7           0        0.588982    1.389231   -0.495988
     10          6           0       -0.042724    2.536141    0.138312
     11          1           0       -1.725687   -1.823837   -1.139388
     12          1           0       -3.282459   -1.359272   -1.845052
     13          1           0       -3.221925   -2.072390   -0.224239
     14          1           0       -2.057924    0.662820   -1.021760
     15          1           0       -3.553409    0.433478   -0.115501
     16          1           0       -1.804637    1.009447    1.456690
     17          1           0       -2.269805   -0.655971    1.736965
     18          1           0       -0.090276   -1.432936    1.259888
     19          1           0        2.923629   -2.089926    0.210693
     20          1           0        1.500137    1.600797   -0.887777
     21          1           0        0.209889    2.625437    1.206158
     22          1           0        0.295005    3.439776   -0.375806
     23          1           0       -1.132881    2.496029    0.048689
 ---------------------------------------------------------------------

 SCF Done:  E(UB3LYP) =  -479.946127374     A.U. after   30 cycles

 The electronic state is 2-A.
 Alpha  occ. eigenvalues --  -19.03641 -18.96638 -14.18074 -10.14799 -10.06874
 Alpha  occ. eigenvalues --  -10.06209 -10.03824 -10.03765 -10.03621 -10.01562
 Alpha  occ. eigenvalues --   -0.97413  -0.88038  -0.79059  -0.67136  -0.62809
 Alpha  occ. eigenvalues --   -0.57948  -0.53987  -0.50141  -0.45976  -0.41643
 Alpha  occ. eigenvalues --   -0.39895  -0.35155  -0.33483  -0.32342  -0.31986
 Alpha  occ. eigenvalues --   -0.31332  -0.30979  -0.29698  -0.27601  -0.27054
 Alpha  occ. eigenvalues --   -0.25207  -0.23888  -0.22322  -0.20700  -0.19986
 Alpha  occ. eigenvalues --   -0.19826  -0.17041  -0.14742  -0.07675   0.05250
 Alpha virt. eigenvalues --    0.08236   0.08421   0.08609   0.09835   0.10426
 Alpha virt. eigenvalues --    0.11366   0.12354   0.12818   0.13562   0.13870
 Alpha virt. eigenvalues --    0.14510   0.15320   0.16495   0.17619   0.18046

  Beta  occ. eigenvalues --  -19.03602 -18.96405 -14.18065 -10.14538 -10.06826
  Beta  occ. eigenvalues --  -10.06173 -10.03843 -10.03711 -10.03599 -10.01284
  Beta  occ. eigenvalues --   -0.97171  -0.87705  -0.78971  -0.66940  -0.62538
  Beta  occ. eigenvalues --   -0.57758  -0.53849  -0.49774  -0.45882  -0.41386
  Beta  occ. eigenvalues --   -0.39764  -0.34879  -0.33298  -0.32167  -0.31467
  Beta  occ. eigenvalues --   -0.31170  -0.30708  -0.29436  -0.27509  -0.26950
  Beta  occ. eigenvalues --   -0.25070  -0.23775  -0.22112  -0.20605  -0.19880
  Beta  occ. eigenvalues --   -0.19129  -0.16437  -0.14527  -0.06748
  Beta virt. eigenvalues --    0.07992   0.08707   0.08966   0.10077   0.10609
  Beta virt. eigenvalues --    0.11202   0.11726   0.12479   0.13026   0.13637
  Beta virt. eigenvalues --    0.14028   0.14709   0.15484   0.16608   0.17585

 Mulliken charges and spin densities:
               1          2
     1  C    0.323771  -1.016948
     2  C    0.139267  -0.214534
     3  C   -0.331352   0.009146
     4  C   -0.265992   0.389565
     5  C    0.205604  -0.116489
     6  C    0.064181  -0.116934
     7  O   -0.413393   0.078333
     8  O   -0.232924   0.015013
     9  N   -0.394482   0.212727
    10  C    0.638016  -1.061294
    11  H    0.033776   0.132294
    12  H   -0.103401   0.224513
    13  H    0.024138   0.079161
    14  H    0.030404   0.077944
    15  H   -0.690942   0.834476
    16  H    0.049197   0.104660
    17  H   -0.077233   0.222456
    18  H    0.190937   0.001789
    19  H    0.228556   0.030597
    20  H    0.269089   0.003978
    21  H   -0.180064   0.311665
    22  H   -0.220453   0.350291
    23  H   -0.286702   0.447589
 Sum of Mulliken charges =  -1.00000   1.00000

 Dipole moment (field-independent basis, Debye):
    X=              3.3034    Y=             -3.1151    Z=              0.5562  Tot=              4.5745
 Quadrupole moment (field-independent basis, Debye-Ang):
   XX=           -111.3765   YY=            -90.3787   ZZ=            -81.6226
   XY=              0.9996   XZ=              1.9755   YZ=             -1.6067

 Summary of Natural Population Analysis:

                                       Natural Population
                Natural  -----------------------------------------------
    Atom  No    Charge         Core      Valence    Rydberg      Total
 -----------------------------------------------------------------------
      C    1   -0.28692      0.99967     2.28092    0.00634     3.28692
      C    2   -0.18620      0.99964     2.17785    0.00871     3.18620
      C    3   -0.21329      0.99963     2.20284    0.01083     3.21329
      C    4   -0.05525      0.99952     2.04635    0.00938     3.05525
      C    5    0.02720      0.99942     1.96124    0.01214     2.97280
      C    6    0.42168      0.99966     1.55463    0.02403     2.57832
      O    7   -0.31875      0.99987     3.31254    0.00634     4.31875
      O    8   -0.34938      0.99987     3.34314    0.00636     4.34938
      N    9   -0.32828      0.99969     2.81631    0.01229     3.82828
      C   10   -0.17613      0.99965     2.16773    0.00874     3.17613
      H   11    0.10152      0.00000     0.39756    0.00092     0.39848
      H   12    0.09392      0.00000     0.40531    0.00077     0.40608
      H   13    0.09065      0.00000     0.40840    0.00095     0.40935
      H   14    0.09728      0.00000     0.40121    0.00152     0.40272
      H   15    0.09216      0.00000     0.40465    0.00319     0.40784
      H   16    0.10509      0.00000     0.39329    0.00162     0.39491
      H   17    0.09366      0.00000     0.40536    0.00098     0.40634
      H   18    0.09946      0.00000     0.39906    0.00149     0.40054
      H   19    0.23219      0.00000     0.26395    0.00386     0.26781
      H   20    0.19264      0.00000     0.30426    0.00310     0.30736
      H   21    0.08370      0.00000     0.41480    0.00150     0.41630
      H   22    0.09212      0.00000     0.40687    0.00100     0.40788
      H   23    0.09095      0.00000     0.40744    0.00161     0.40905
 =======================================================================
   * Total *    0.00000      9.99661    28.87571    0.12767    39.00000

 Normal termination of Gaussian 16 at Tue Dec  8 14:05:34 2020.
