 Gaussian 16, Revision A.03,

 -----------------------------------------------------------
 # opt freq B3LYP/6-31G(d) empiricaldispersion=gd3bj scf=xqc
 -----------------------------------------------------------

 -------------------------------
 CID_116885608_JID_5680_neutraal
 -------------------------------
 Symbolic Z-matrix:
 Charge =  0 Multiplicity = 1

 SCF Done:  E(RB3LYP) =  -978.288647517     A.U. after   15 cycles
 SCF Done:  E(RB3LYP) =  -978.293703478     A.U. after   12 cycles
 SCF Done:  E(RB3LYP) =  -978.294056288     A.U. after   12 cycles
 SCF Done:  E(RB3LYP) =  -978.294659258     A.U. after   12 cycles
 SCF Done:  E(RB3LYP) =  -978.294809220     A.U. after   11 cycles
 SCF Done:  E(RB3LYP) =  -978.294906368     A.U. after   11 cycles
 SCF Done:  E(RB3LYP) =  -978.294961112     A.U. after   11 cycles
 SCF Done:  E(RB3LYP) =  -978.295000890     A.U. after   11 cycles
 SCF Done:  E(RB3LYP) =  -978.295105015     A.U. after   11 cycles
 SCF Done:  E(RB3LYP) =  -978.295215290     A.U. after   12 cycles
 SCF Done:  E(RB3LYP) =  -978.296231669     A.U. after   10 cycles
 SCF Done:  E(RB3LYP) =  -978.296236488     A.U. after    9 cycles
 SCF Done:  E(RB3LYP) =  -978.296237732     A.U. after    8 cycles
 SCF Done:  E(RB3LYP) =  -978.296237968     A.U. after    7 cycles
 SCF Done:  E(RB3LYP) =  -978.296238022     A.U. after    6 cycles
 Optimization completed.
    -- Stationary point found.
 Normal termination of Gaussian 16 at Thu Dec 10 17:31:15 2020.

 --------------------------------------------------------------------
 #N Geom=AllCheck Guess=TCheck SCRF=Check GenChk RB3LYP/6-31G(d) Freq
 --------------------------------------------------------------------

 Structure from the checkpoint file:  "JID_5680.chk"
 -------------------------------
 CID_116885608_JID_5680_neutraal
 -------------------------------
 Charge =  0 Multiplicity = 1

 SCF Done:  E(RB3LYP) =  -978.296238022     A.U. after    1 cycles

  Exact polarizability: 193.569   0.435 149.218   3.517   0.402 124.798
 Approx polarizability: 252.719  -3.321 255.408   9.877  -1.886 180.189

                      1                      2                      3
                      A                      A                      A
 Frequencies --     23.7967                34.8192                54.9025
 Red. masses --      2.9134                 3.2697                 3.3996
 Frc consts  --      0.0010                 0.0023                 0.0060
 IR Inten    --      0.0980                 0.1703                 0.1214

                      4                      5                      6
                      A                      A                      A
 Frequencies --     64.3654                96.8426               129.6297
 Red. masses --      3.2022                 2.6320                 2.6533
 Frc consts  --      0.0078                 0.0145                 0.0263
 IR Inten    --      0.2547                 0.7061                 0.8947

                      7                      8                      9
                      A                      A                      A
 Frequencies --    144.8112               181.2662               198.5332
 Red. masses --      1.1647                 2.2500                 1.8590
 Frc consts  --      0.0144                 0.0436                 0.0432
 IR Inten    --      0.1988                 0.4426                 0.1883

                     10                     11                     12
                      A                      A                      A
 Frequencies --    216.3825               228.6137               246.7607
 Red. masses --      2.1407                 1.2671                 1.5685
 Frc consts  --      0.0591                 0.0390                 0.0563
 IR Inten    --      1.5588                 0.6787                 0.6100

                     13                     14                     15
                      A                      A                      A
 Frequencies --    250.6691               255.8105               260.3004
 Red. masses --      1.2682                 1.2135                 2.2373
 Frc consts  --      0.0470                 0.0468                 0.0893
 IR Inten    --      0.9299                 0.4765                 1.1299

                     16                     17                     18
                      A                      A                      A
 Frequencies --    279.5931               292.3635               312.7577
 Red. masses --      2.4520                 2.1007                 1.2696
 Frc consts  --      0.1129                 0.1058                 0.0732
 IR Inten    --      2.8871                 0.7681                 1.4314

                     19                     20                     21
                      A                      A                      A
 Frequencies --    336.2276               363.0587               379.5529
 Red. masses --      2.7300                 2.6412                 3.1007
 Frc consts  --      0.1818                 0.2051                 0.2632
 IR Inten    --      0.4666                 7.8936                 0.9554

                     22                     23                     24
                      A                      A                      A
 Frequencies --    390.2707               424.9613               442.1523
 Red. masses --      2.3792                 2.0513                 3.3431
 Frc consts  --      0.2135                 0.2183                 0.3851
 IR Inten    --      0.5590                 0.8826                 0.7443

                     25                     26                     27
                      A                      A                      A
 Frequencies --    458.3795               522.3488               540.5705
 Red. masses --      3.4097                 3.4932                 4.2138
 Frc consts  --      0.4221                 0.5616                 0.7255
 IR Inten    --      3.3092                 3.0397                 5.1473

                     28                     29                     30
                      A                      A                      A
 Frequencies --    586.6103               622.0351               671.5378
 Red. masses --      4.7458                 4.3298                 5.8473
 Frc consts  --      0.9622                 0.9871                 1.5536
 IR Inten    --      1.0871                 9.7151                 8.5265

                     31                     32                     33
                      A                      A                      A
 Frequencies --    674.6620               704.2269               744.2538
 Red. masses --      4.6035                 5.4385                 1.8137
 Frc consts  --      1.2345                 1.5891                 0.5919
 IR Inten    --      6.8214                 7.3413                72.6787

                     34                     35                     36
                      A                      A                      A
 Frequencies --    825.8216               887.2997               904.5137
 Red. masses --      2.7696                 1.5863                 1.5837
 Frc consts  --      1.1129                 0.7358                 0.7634
 IR Inten    --      0.8226                17.4597                 0.8185

                     37                     38                     39
                      A                      A                      A
 Frequencies --    932.5389               941.1416               944.7835
 Red. masses --      2.3155                 1.5565                 1.2188
 Frc consts  --      1.1864                 0.8123                 0.6410
 IR Inten    --      4.0823                 0.9797                 3.1269

                     40                     41                     42
                      A                      A                      A
 Frequencies --    957.6424               967.7185               981.9426
 Red. masses --      2.0343                 2.8762                 1.5389
 Frc consts  --      1.0992                 1.5870                 0.8742
 IR Inten    --      2.0308                 2.5706                 0.2354

                     43                     44                     45
                      A                      A                      A
 Frequencies --   1023.6127              1044.2625              1082.6917
 Red. masses --      1.6369                 1.4804                 1.4915
 Frc consts  --      1.0105                 0.9511                 1.0301
 IR Inten    --      4.0329                 8.5045                 2.1840

                     46                     47                     48
                      A                      A                      A
 Frequencies --   1098.2100              1110.7799              1114.5530
 Red. masses --      1.8501                 1.9579                 2.6578
 Frc consts  --      1.3147                 1.4233                 1.9452
 IR Inten    --      5.4409                23.7369                14.4165

                     49                     50                     51
                      A                      A                      A
 Frequencies --   1147.0855              1154.8103              1172.2244
 Red. masses --      2.2396                 2.0119                 1.6279
 Frc consts  --      1.7362                 1.5808                 1.3180
 IR Inten    --      1.3207                 4.3462                16.6095

                     52                     53                     54
                      A                      A                      A
 Frequencies --   1201.1531              1209.1950              1220.0700
 Red. masses --      2.2951                 2.0322                 2.7571
 Frc consts  --      1.9510                 1.7507                 2.4181
 IR Inten    --     20.5698                24.5002                 6.1660

                     55                     56                     57
                      A                      A                      A
 Frequencies --   1223.2337              1277.0472              1297.5210
 Red. masses --      2.7785                 1.4110                 2.8416
 Frc consts  --      2.4495                 1.3558                 2.8187
 IR Inten    --     36.8301                13.9102                 3.8447

                     58                     59                     60
                      A                      A                      A
 Frequencies --   1328.4980              1345.8241              1387.2262
 Red. masses --      1.3278                 4.6949                 1.4351
 Frc consts  --      1.3807                 5.0101                 1.6271
 IR Inten    --      0.6715                28.7242                 1.1068

                     61                     62                     63
                      A                      A                      A
 Frequencies --   1388.9147              1422.5723              1430.2405
 Red. masses --      1.4097                 1.2332                 1.2718
 Frc consts  --      1.6022                 1.4704                 1.5328
 IR Inten    --      3.8831                 6.2060                 7.7881

                     64                     65                     66
                      A                      A                      A
 Frequencies --   1431.6906              1442.6824              1450.7756
 Red. masses --      1.2723                 1.2291                 1.2354
 Frc consts  --      1.5366                 1.5072                 1.5320
 IR Inten    --      2.8558                10.7736                 4.9909

                     67                     68                     69
                      A                      A                      A
 Frequencies --   1474.9696              1490.1805              1499.9755
 Red. masses --      1.1776                 1.2208                 1.0988
 Frc consts  --      1.5094                 1.5972                 1.4565
 IR Inten    --      1.1679                 6.7457                 2.0803

                     70                     71                     72
                      A                      A                      A
 Frequencies --   1504.6731              1512.4794              1514.4922
 Red. masses --      1.1645                 1.0498                 1.0529
 Frc consts  --      1.5534                 1.4149                 1.4229
 IR Inten    --      7.7615                 3.6568                 3.5573

                     73                     74                     75
                      A                      A                      A
 Frequencies --   1516.8046              1523.4456              1525.3898
 Red. masses --      1.0467                 1.0554                 1.0593
 Frc consts  --      1.4189                 1.4432                 1.4522
 IR Inten    --      0.8327                 1.7798                 0.3273

                     76                     77                     78
                      A                      A                      A
 Frequencies --   1531.0437              1534.1276              1536.3253
 Red. masses --      1.0640                 1.0542                 1.0528
 Frc consts  --      1.4695                 1.4618                 1.4641
 IR Inten    --      0.2199                 3.5702                 8.5770

                     79                     80                     81
                      A                      A                      A
 Frequencies --   1537.7159              1546.0510              1551.3388
 Red. masses --      1.0672                 1.1685                 1.1139
 Frc consts  --      1.4868                 1.6456                 1.5795
 IR Inten    --      6.9550                 7.9375                 2.1354

                     82                     83                     84
                      A                      A                      A
 Frequencies --   1558.5904              1598.5836              2986.9791
 Red. masses --      3.2137                 5.6917                 1.0574
 Frc consts  --      4.5996                 8.5697                 5.5582
 IR Inten    --      9.3273                44.3350                73.0768

                     85                     86                     87
                      A                      A                      A
 Frequencies --   3021.3794              3039.0524              3044.4159
 Red. masses --      1.0834                 1.0371                 1.0522
 Frc consts  --      5.8272                 5.6435                 5.7456
 IR Inten    --     11.8293                20.7932                39.2359

                     88                     89                     90
                      A                      A                      A
 Frequencies --   3044.5374              3044.8870              3048.5077
 Red. masses --      1.0432                 1.0437                 1.0446
 Frc consts  --      5.6974                 5.7013                 5.7194
 IR Inten    --     18.9835                42.4355                25.4298

                     91                     92                     93
                      A                      A                      A
 Frequencies --   3053.7467              3091.0876              3098.4799
 Red. masses --      1.0376                 1.0763                 1.1011
 Frc consts  --      5.7010                 6.0590                 6.2283
 IR Inten    --     26.2993                31.5841                 1.2934

                     94                     95                     96
                      A                      A                      A
 Frequencies --   3104.1101              3104.4432              3110.5287
 Red. masses --      1.0946                 1.1017                 1.1020
 Frc consts  --      6.2140                 6.2561                 6.2819
 IR Inten    --     15.4049                20.3920                34.0811

                     97                     98                     99
                      A                      A                      A
 Frequencies --   3114.2982              3114.3377              3122.1209
 Red. masses --      1.1006                 1.1004                 1.0954
 Frc consts  --      6.2895                 6.2882                 6.2911
 IR Inten    --     35.6873                28.1529                51.9125

                    100                    101                    102
                      A                      A                      A
 Frequencies --   3127.6547              3134.4356              3135.6724
 Red. masses --      1.1012                 1.1027                 1.1015
 Frc consts  --      6.3465                 6.3830                 6.3809
 IR Inten    --     36.6810                27.8416                21.5600

                    103                    104                    105
                      A                      A                      A
 Frequencies --   3155.9143              3169.9834              3487.1720
 Red. masses --      1.1022                 1.1001                 1.0737
 Frc consts  --      6.4681                 6.5134                 7.6930
 IR Inten    --     14.6681                 1.3412                 2.8065

 - Thermochemistry -
 -------------------
 Temperature   298.150 Kelvin.  Pressure   1.00000 Atm.
 Atom     1 has atomic number  6 and mass  12.00000

 Molecular mass:   226.15037 amu.
 Principal axes and moments of inertia in atomic units:
                           1         2         3
     Eigenvalues --  1804.977246180.434936421.47250
           X            0.99999  -0.00074  -0.00472
           Y            0.00075   1.00000   0.00122
           Z            0.00472  -0.00122   0.99999
 This molecule is an asymmetric top.
 Rotational symmetry number  1.
 Warning -- assumption of classical behavior for rotation
           may cause significant error
 Rotational temperatures (Kelvin)      0.04799     0.01401     0.01349
 Rotational constants (GHZ):           0.99987     0.29201     0.28105
 Zero-point vibrational energy     860062.8 (Joules/Mol)
                                  205.55994 (Kcal/Mol)
 Warning -- explicit consideration of  28 degrees of freedom as
           vibrations may cause significant error
 Vibrational temperatures:     34.24    50.10    78.99    92.61   139.33
          (Kelvin)            186.51   208.35   260.80   285.65   311.33
                              328.92   355.03   360.66   368.05   374.51
                              402.27   420.65   449.99   483.76   522.36
                              546.09   561.51   611.42   636.16   659.51
                              751.54   777.76   844.00   894.97   966.19
                              970.69  1013.23  1070.82  1188.17  1276.63
                             1301.39  1341.72  1354.09  1359.33  1377.83
                             1392.33  1412.80  1472.75  1502.46  1557.75
                             1580.08  1598.16  1603.59  1650.40  1661.51
                             1686.57  1728.19  1739.76  1755.41  1759.96
                             1837.39  1866.84  1911.41  1936.34  1995.91
                             1998.34  2046.76  2057.80  2059.88  2075.70
                             2087.34  2122.15  2144.04  2158.13  2164.89
                             2176.12  2179.02  2182.34  2191.90  2194.70
                             2202.83  2207.27  2210.43  2212.43  2224.42
                             2232.03  2242.46  2300.01  4297.60  4347.09
                             4372.52  4380.24  4380.41  4380.91  4386.12
                             4393.66  4447.39  4458.02  4466.12  4466.60
                             4475.36  4480.78  4480.84  4492.04  4500.00
                             4509.75  4511.53  4540.66  4560.90  5017.26

 Zero-point correction=                           0.327581 (Hartree/Particle)
 Thermal correction to Energy=                    0.345546
 Thermal correction to Enthalpy=                  0.346490
 Thermal correction to Gibbs Free Energy=         0.281546
 Sum of electronic and zero-point Energies=           -977.968657
 Sum of electronic and thermal Energies=              -977.950692
 Sum of electronic and thermal Enthalpies=            -977.949748
 Sum of electronic and thermal Free Energies=         -978.014692

                     E (Thermal)             CV                S
                      KCal/Mol        Cal/Mol-Kelvin    Cal/Mol-Kelvin
 Total                  216.833             67.003            136.685
 Electronic               0.000              0.000              0.000
 Translational            0.889              2.981             42.150
 Rotational               0.889              2.981             32.638
 Vibrational            215.056             61.042             61.897
 Vibration     1          0.593              1.985              6.289
 Vibration     2          0.594              1.983              5.534
 Vibration     3          0.596              1.976              4.633
 Vibration     4          0.597              1.971              4.319
 Vibration     5          0.603              1.951              3.517
 Vibration     6          0.612              1.924              2.952
 Vibration     7          0.616              1.908              2.739
 Vibration     8          0.630              1.865              2.315
 Vibration     9          0.637              1.842              2.147
 Vibration    10          0.645              1.816              1.989
 Vibration    11          0.651              1.797              1.890
 Vibration    12          0.661              1.768              1.754
 Vibration    13          0.663              1.762              1.726
 Vibration    14          0.666              1.753              1.690
 Vibration    15          0.668              1.745              1.660
 Vibration    16          0.680              1.711              1.536
 Vibration    17          0.688              1.688              1.460
 Vibration    18          0.701              1.649              1.348
 Vibration    19          0.717              1.603              1.230
 Vibration    20          0.737              1.548              1.109
 Vibration    21          0.750              1.514              1.041
 Vibration    22          0.758              1.491              0.999
 Vibration    23          0.787              1.416              0.875
 Vibration    24          0.802              1.378              0.820
 Vibration    25          0.816              1.342              0.771
 Vibration    26          0.877              1.201              0.605
 Vibration    27          0.896              1.160              0.564
 Vibration    28          0.944              1.060              0.473

 Optimization completed.
    -- Stationary point found.
 Normal termination of Gaussian 16 at Thu Dec 10 17:45:39 2020.

 ----------------------------------------------------------------------
 # B3LYP/6-311++G(d,p) empiricaldispersion=gd3bj scf=xqc pop=npa geom=c
 heck
 ----------------------------------------------------------------------

 ---------------------------------------
 CID_116885608_JID_5680_Energie_neutraal
 ---------------------------------------
 Structure from the checkpoint file:  "JID_5680.chk"
 Charge =  0 Multiplicity = 1

 SCF Done:  E(RB3LYP) =  -978.482897027     A.U. after   16 cycles
 Normal termination of Gaussian 16 at Thu Dec 10 17:53:43 2020.

 ----------------------------------------------------------------------
 # B3LYP/6-311++G(d,p) empiricaldispersion=gd3bj scf=xqc pop=npa geom=c
 heck
 ----------------------------------------------------------------------

 -------------------------------------
 CID_116885608_JID_5680_Energie_kation
 -------------------------------------
 Structure from the checkpoint file:  "JID_5680.chk"
 Charge =  1 Multiplicity = 2

 SCF Done:  E(UB3LYP) =  -978.196052665     A.U. after   24 cycles
 Normal termination of Gaussian 16 at Thu Dec 10 18:11:14 2020.
 Gaussian 16:  ES64L-G16RevA.03 25-Dec-2016

 ----------------------------------------------------------------------
 # B3LYP/6-311++G(d,p) empiricaldispersion=gd3bj scf=xqc pop=npa geom=c
 heck
 ----------------------------------------------------------------------

 ------------------------------------
 CID_116885608_JID_5680_Energie_anion
 ------------------------------------
 Structure from the checkpoint file:  "JID_5680.chk"
 Charge = -1 Multiplicity = 2

                         Standard orientation:
 ---------------------------------------------------------------------
 Center     Atomic      Atomic             Coordinates (Angstroms)
 Number     Number       Type             X           Y           Z
 ---------------------------------------------------------------------
      1          6           0        1.439000    2.541515   -0.362098
      2          6           0        0.627527    1.281240   -0.445722
      3          6           0        1.087597   -0.010060   -0.337806
      4         16           0       -0.261199   -1.114064   -0.529339
      5          6           0       -1.335775    0.259593   -0.739471
      6          7           0       -0.734756    1.410715   -0.665174
      7          6           0       -2.812536    0.079520   -0.911997
      8          6           0       -3.530703   -0.417387    0.364408
      9          6           0       -3.319908    0.547905    1.535088
     10          6           0       -5.020908   -0.629788    0.078274
     11          6           0        2.511345   -0.517309   -0.144391
     12          6           0        2.543631   -2.041622    0.103912
     13          6           0        3.329442   -0.213298   -1.414841
     14          7           0        3.138182    0.240351    0.960325
     15          6           0        2.530334    0.084896    2.278186
     16          1           0        1.581684    2.975738   -1.360282
     17          1           0        0.901777    3.284966    0.236094
     18          1           0        2.412713    2.345927    0.088239
     19          1           0       -3.218577    1.053872   -1.206616
     20          1           0       -3.012406   -0.622535   -1.731793
     21          1           0       -3.090763   -1.388152    0.635591
     22          1           0       -3.734153    1.536379    1.300408
     23          1           0       -3.817853    0.178630    2.438764
     24          1           0       -2.257058    0.681210    1.759477
     25          1           0       -5.174989   -1.340708   -0.742073
     26          1           0       -5.539663   -1.016572    0.962636
     27          1           0       -5.501181    0.316024   -0.202838
     28          1           0        2.160859   -2.598271   -0.758006
     29          1           0        3.579398   -2.359000    0.271778
     30          1           0        1.953649   -2.327134    0.979472
     31          1           0        3.354868    0.861145   -1.609805
     32          1           0        4.361378   -0.569862   -1.299222
     33          1           0        2.890691   -0.717008   -2.281177
     34          1           0        4.120497   -0.026073    1.002601
     35          1           0        2.523245   -0.944780    2.673206
     36          1           0        3.071693    0.716829    2.989360
     37          1           0        1.495115    0.435707    2.236298
 ---------------------------------------------------------------------

 SCF Done:  E(UB3LYP) =  -978.469405526     A.U. after   33 cycles
 SCF Done:  E(UB3LYP) =  -978.469405527     a.u. after    1 cycles

 The electronic state is 2-A.
 Alpha  occ. eigenvalues --  -88.77620 -14.20856 -14.20114 -10.13455 -10.12813
 Alpha  occ. eigenvalues --  -10.10533 -10.10113 -10.08943 -10.08655 -10.08632
 Alpha  occ. eigenvalues --  -10.06990 -10.06702 -10.06562 -10.06494 -10.06405
 Alpha  occ. eigenvalues --   -7.86282  -5.82545  -5.82195  -5.81895  -0.86303
 Alpha  occ. eigenvalues --   -0.81668  -0.72788  -0.70885  -0.67891  -0.66187
 Alpha  occ. eigenvalues --   -0.61992  -0.59797  -0.59557  -0.56735  -0.56381
 Alpha  occ. eigenvalues --   -0.51184  -0.47843  -0.45067  -0.43262  -0.38832
 Alpha  occ. eigenvalues --   -0.38650  -0.37028  -0.35809  -0.35578  -0.34983
 Alpha  occ. eigenvalues --   -0.34117  -0.32639  -0.32467  -0.30518  -0.30026
 Alpha  occ. eigenvalues --   -0.29817  -0.29535  -0.28986  -0.28346  -0.28227
 Alpha  occ. eigenvalues --   -0.27720  -0.26965  -0.25930  -0.25540  -0.24856
 Alpha  occ. eigenvalues --   -0.24583  -0.24086  -0.23780  -0.17976  -0.17271
 Alpha  occ. eigenvalues --   -0.13423  -0.12994   0.04210
 Alpha virt. eigenvalues --    0.05576   0.06496   0.07411   0.07654   0.07975
 Alpha virt. eigenvalues --    0.08233   0.08625   0.09466   0.09900   0.10110
 Alpha virt. eigenvalues --    0.10489   0.10699   0.11320   0.11582   0.11968

  Beta  occ. eigenvalues --  -88.77614 -14.20843 -14.20090 -10.13418 -10.12814
  Beta  occ. eigenvalues --  -10.10532 -10.10090 -10.08936 -10.08646 -10.08604
  Beta  occ. eigenvalues --  -10.06957 -10.06679 -10.06545 -10.06488 -10.06368
  Beta  occ. eigenvalues --   -7.86274  -5.82539  -5.82190  -5.81883  -0.86266
  Beta  occ. eigenvalues --   -0.81631  -0.72759  -0.70849  -0.67859  -0.66157
  Beta  occ. eigenvalues --   -0.61960  -0.59738  -0.59507  -0.56691  -0.56309
  Beta  occ. eigenvalues --   -0.51130  -0.47791  -0.45021  -0.43226  -0.38789
  Beta  occ. eigenvalues --   -0.38600  -0.36983  -0.35754  -0.35541  -0.34940
  Beta  occ. eigenvalues --   -0.34088  -0.32610  -0.32438  -0.30485  -0.29999
  Beta  occ. eigenvalues --   -0.29777  -0.29503  -0.28955  -0.28296  -0.28184
  Beta  occ. eigenvalues --   -0.27690  -0.26935  -0.25887  -0.25501  -0.24820
  Beta  occ. eigenvalues --   -0.24544  -0.24045  -0.23756  -0.17897  -0.17249
  Beta  occ. eigenvalues --   -0.13361  -0.12912
  Beta virt. eigenvalues --    0.06151   0.06656   0.06870   0.07788   0.07847
  Beta virt. eigenvalues --    0.08461   0.08691   0.08973   0.09677   0.10144
  Beta virt. eigenvalues --    0.10313   0.10780   0.10957   0.11454   0.11829

 Mulliken charges and spin densities:
               1          2
     1  C    0.530051  -1.330539
     2  C    0.186500  -1.538262
     3  C    2.363805  -0.510419
     4  S   -0.091797  -0.452876
     5  C    1.326051  -1.125414
     6  N    0.150148   0.078156
     7  C   -1.355613   0.871327
     8  C   -0.454475   1.063516
     9  C    0.051315  -0.721557
    10  C    0.152292  -0.787996
    11  C   -3.946444   3.628460
    12  C    0.700283  -1.221038
    13  C    0.236293  -0.881972
    14  N    0.072586  -0.054668
    15  C    0.299657  -0.739083
    16  H    0.086144   0.076137
    17  H    0.123875   0.023547
    18  H    0.233799  -0.042323
    19  H    0.108002   0.074299
    20  H    0.000937   0.180971
    21  H    0.031440   0.105546
    22  H    0.074667   0.055169
    23  H   -0.112502   0.247107
    24  H    0.163846   0.006095
    25  H   -0.255037   0.388796
    26  H   -0.304105   0.447549
    27  H   -0.028814   0.159310
    28  H   -0.085048   0.228607
    29  H   -0.747347   0.921951
    30  H    0.043084   0.109820
    31  H    0.122156   0.040898
    32  H   -0.290649   0.438497
    33  H   -0.008184   0.163010
    34  H   -0.132985   0.381940
    35  H   -0.105411   0.241663
    36  H   -0.249491   0.392305
    37  H    0.110971   0.081472
 Sum of Mulliken charges =  -1.00000   1.00000

 Dipole moment (field-independent basis, Debye):
    X=             -1.8968    Y=              2.8523    Z=             -1.5515  Tot=              3.7604
 Quadrupole moment (field-independent basis, Debye-Ang):
   XX=           -208.0787   YY=           -141.9297   ZZ=           -138.5230
   XY=              5.3954   XZ=             -6.0841   YZ=             -0.1080

 Summary of Natural Population Analysis:

                                       Natural Population
                Natural  -----------------------------------------------
    Atom  No    Charge         Core      Valence    Rydberg      Total
 -----------------------------------------------------------------------
      C    1   -0.30136      0.99962     2.29677    0.00497     3.30136
      C    2    0.06597      0.99941     1.92188    0.01274     2.93403
      C    3   -0.10398      0.99937     2.09024    0.01437     3.10398
      S    4    0.19138      4.99938     2.79172    0.01752     7.80862
      C    5    0.04973      0.99961     1.93218    0.01849     2.95027
      N    6   -0.24878      0.99963     2.73829    0.01086     3.74878
      C    7   -0.21353      0.99955     2.20328    0.01069     3.21353
      C    8   -0.11030      0.99962     2.10125    0.00944     3.11030
      C    9   -0.28539      0.99965     2.28063    0.00511     3.28539
      C   10   -0.28380      0.99965     2.27814    0.00601     3.28380
      C   11    0.04337      0.99952     1.94061    0.01650     2.95663
      C   12   -0.29857      0.99963     2.29126    0.00768     3.29857
      C   13   -0.27812      0.99962     2.27132    0.00718     3.27812
      N   14   -0.34507      0.99973     2.83129    0.01405     3.84507
      C   15   -0.18178      0.99964     2.17310    0.00904     3.18178
      H   16    0.10096      0.00000     0.39787    0.00117     0.39904
      H   17    0.10461      0.00000     0.39430    0.00109     0.39539
      H   18    0.11914      0.00000     0.37968    0.00118     0.38086
      H   19    0.10982      0.00000     0.38870    0.00148     0.39018
      H   20    0.10795      0.00000     0.39092    0.00113     0.39205
      H   21    0.09456      0.00000     0.40367    0.00177     0.40544
      H   22    0.09639      0.00000     0.40267    0.00094     0.40361
      H   23    0.09826      0.00000     0.40090    0.00085     0.40174
      H   24    0.10486      0.00000     0.39409    0.00105     0.39514
      H   25    0.10019      0.00000     0.39866    0.00115     0.39981
      H   26    0.10032      0.00000     0.39871    0.00097     0.39968
      H   27    0.09558      0.00000     0.40340    0.00102     0.40442
      H   28    0.10392      0.00000     0.39495    0.00113     0.39608
      H   29    0.10557      0.00000     0.39251    0.00192     0.39443
      H   30    0.10389      0.00000     0.39493    0.00118     0.39611
      H   31    0.10344      0.00000     0.39541    0.00115     0.39656
      H   32    0.09955      0.00000     0.39943    0.00103     0.40045
      H   33    0.10200      0.00000     0.39709    0.00091     0.39800
      H   34    0.17622      0.00000     0.31953    0.00425     0.32378
      H   35    0.08187      0.00000     0.41665    0.00148     0.41813
      H   36    0.09532      0.00000     0.40381    0.00087     0.40468
      H   37    0.09579      0.00000     0.40281    0.00140     0.40421
 =======================================================================
   * Total *    0.00000     18.99362    42.81263    0.19374    62.00000

 Normal termination of Gaussian 16 at Thu Dec 10 18:34:52 2020.
