 Gaussian 16, Revision A.03,

 -----------------------------------------------------------
 # opt freq B3LYP/6-31G(d) empiricaldispersion=gd3bj scf=xqc
 -----------------------------------------------------------

 ------------------------------
 CID_43803170_JID_2524_neutraal
 ------------------------------
 Symbolic Z-matrix:
 Charge =  0 Multiplicity = 1

 SCF Done:  E(RB3LYP) =  -914.871711960     A.U. after   14 cycles
 SCF Done:  E(RB3LYP) =  -914.875339127     A.U. after   12 cycles
 SCF Done:  E(RB3LYP) =  -914.874184267     A.U. after   14 cycles
 SCF Done:  E(RB3LYP) =  -914.876641130     A.U. after   13 cycles
 SCF Done:  E(RB3LYP) =  -914.878004545     A.U. after   12 cycles
 SCF Done:  E(RB3LYP) =  -914.879966430     A.U. after   15 cycles
 SCF Done:  E(RB3LYP) =  -914.881858966     A.U. after   13 cycles
 SCF Done:  E(RB3LYP) =  -914.882540112     A.U. after   13 cycles
 SCF Done:  E(RB3LYP) =  -914.882853133     A.U. after   12 cycles
 SCF Done:  E(RB3LYP) =  -914.883003887     A.U. after   12 cycles
 SCF Done:  E(RB3LYP) =  -914.883072551     A.U. after   10 cycles
 SCF Done:  E(RB3LYP) =  -914.883077268     A.U. after   10 cycles
 SCF Done:  E(RB3LYP) =  -914.883078500     A.U. after   10 cycles
 SCF Done:  E(RB3LYP) =  -914.883078866     A.U. after    8 cycles
 SCF Done:  E(RB3LYP) =  -914.883078947     A.U. after    8 cycles
 Optimization completed.
    -- Stationary point found.
 Normal termination of Gaussian 16 at Wed Dec  9 17:31:48 2020.

 --------------------------------------------------------------------
 #N Geom=AllCheck Guess=TCheck SCRF=Check GenChk RB3LYP/6-31G(d) Freq
 --------------------------------------------------------------------

 Structure from the checkpoint file:  "JID_2524.chk"
 ------------------------------
 CID_43803170_JID_2524_neutraal
 ------------------------------
 Charge =  0 Multiplicity = 1

 SCF Done:  E(RB3LYP) =  -914.883078947     A.U. after    1 cycles

  Exact polarizability: 128.145   1.107  91.728  -0.782 -10.801  99.157
 Approx polarizability: 195.050   7.719 132.371  -1.258 -23.708 171.478

                      1                      2                      3
                      A                      A                      A
 Frequencies --     35.9646                47.6949                81.2291
 Red. masses --      7.3613                 5.6871                 3.3547
 Frc consts  --      0.0056                 0.0076                 0.0130
 IR Inten    --      0.7983                 0.2009                 0.1722

                      4                      5                      6
                      A                      A                      A
 Frequencies --    103.1939               150.4525               190.2045
 Red. masses --      3.7801                 4.7829                 4.7343
 Frc consts  --      0.0237                 0.0638                 0.1009
 IR Inten    --      0.2261                 0.1407                 0.5811

                      7                      8                      9
                      A                      A                      A
 Frequencies --    257.1890               265.7945               282.7823
 Red. masses --      1.2273                 1.0556                 3.3264
 Frc consts  --      0.0478                 0.0439                 0.1567
 IR Inten    --      0.2378                 0.2220                 2.0945

                     10                     11                     12
                      A                      A                      A
 Frequencies --    298.1755               350.2665               367.6905
 Red. masses --      5.3972                 3.3323                 4.7923
 Frc consts  --      0.2827                 0.2409                 0.3817
 IR Inten    --      1.5657                 2.0513                 3.0078

                     13                     14                     15
                      A                      A                      A
 Frequencies --    412.6927               466.8956               475.2938
 Red. masses --      4.1156                 3.9465                 2.9997
 Frc consts  --      0.4130                 0.5069                 0.3993
 IR Inten    --      9.5681                 0.1178                 1.8446

                     16                     17                     18
                      A                      A                      A
 Frequencies --    587.2273               628.4830               648.5040
 Red. masses --      2.2673                 2.3331                 4.3379
 Frc consts  --      0.4607                 0.5430                 1.0749
 IR Inten    --     16.2754                75.3869                18.4360

                     19                     20                     21
                      A                      A                      A
 Frequencies --    674.3117               689.9203               735.2865
 Red. masses --      2.4719                 1.3225                 3.0430
 Frc consts  --      0.6622                 0.3709                 0.9693
 IR Inten    --     69.9850                 2.5895                49.8500

                     22                     23                     24
                      A                      A                      A
 Frequencies --    792.4405               803.3942               839.8227
 Red. masses --      1.4794                 5.8786                 5.3055
 Frc consts  --      0.5474                 2.2355                 2.2047
 IR Inten    --     61.5547                 5.8242                 3.6622

                     25                     26                     27
                      A                      A                      A
 Frequencies --    855.5134               887.0373               907.5540
 Red. masses --      5.0335                 3.7321                 1.4047
 Frc consts  --      2.1706                 1.7302                 0.6817
 IR Inten    --     30.1728                 2.7373                 0.7718

                     28                     29                     30
                      A                      A                      A
 Frequencies --    922.6506               972.0339              1053.1927
 Red. masses --      3.7320                 3.1846                 2.6535
 Frc consts  --      1.8718                 1.7728                 1.7342
 IR Inten    --      8.1125                 4.9999                66.5484

                     31                     32                     33
                      A                      A                      A
 Frequencies --   1078.9563              1126.6060              1134.1207
 Red. masses --      1.6579                 1.1169                 1.2394
 Frc consts  --      1.1371                 0.8352                 0.9393
 IR Inten    --      5.8019                 3.3002                 1.0579

                     34                     35                     36
                      A                      A                      A
 Frequencies --   1178.2031              1196.9538              1203.4907
 Red. masses --      1.6751                 1.7755                 1.6460
 Frc consts  --      1.3700                 1.4987                 1.4047
 IR Inten    --    112.4542                62.0731                35.8592

                     37                     38                     39
                      A                      A                      A
 Frequencies --   1224.9691              1265.3261              1304.1004
 Red. masses --      2.2677                 1.6955                 2.2016
 Frc consts  --      2.0049                 1.5994                 2.2060
 IR Inten    --     22.5281                 9.6923                 5.1868

                     40                     41                     42
                      A                      A                      A
 Frequencies --   1329.9671              1377.8586              1402.7123
 Red. masses --      1.4412                 2.5119                 1.4739
 Frc consts  --      1.5019                 2.8097                 1.7087
 IR Inten    --      6.9890                28.8333                 4.1116

                     43                     44                     45
                      A                      A                      A
 Frequencies --   1434.4498              1467.4933              1472.3299
 Red. masses --      2.2287                 1.2397                 4.1406
 Frc consts  --      2.7019                 1.5730                 5.2883
 IR Inten    --      0.9254                 2.6089                24.8035

                     46                     47                     48
                      A                      A                      A
 Frequencies --   1499.6539              1513.4772              1531.0587
 Red. masses --      1.1857                 1.0470                 1.0521
 Frc consts  --      1.5711                 1.4130                 1.4531
 IR Inten    --      1.0170                11.3208                 5.2399

                     49                     50                     51
                      A                      A                      A
 Frequencies --   1534.8828              1547.7610              1588.2972
 Red. masses --      1.0465                 1.0508                 5.5964
 Frc consts  --      1.4526                 1.4832                 8.3181
 IR Inten    --      7.1342                11.8564                 0.5523

                     52                     53                     54
                      A                      A                      A
 Frequencies --   1852.2931              2964.4369              2984.6087
 Red. masses --      9.4371                 1.0576                 1.0584
 Frc consts  --     19.0768                 5.4757                 5.5549
 IR Inten    --    297.5902                45.6504                67.9700

                     55                     56                     57
                      A                      A                      A
 Frequencies --   3081.5926              3093.6371              3115.0479
 Red. masses --      1.0746                 1.0818                 1.0870
 Frc consts  --      6.0124                 6.1002                 6.2144
 IR Inten    --     34.8560                46.6496                 6.5432

                     58                     59                     60
                      A                      A                      A
 Frequencies --   3125.5637              3174.2083              3248.2696
 Red. masses --      1.1020                 1.0962                 1.0890
 Frc consts  --      6.3429                 6.5075                 6.7697
 IR Inten    --     32.1597                 7.6513                 0.4139

                     61                     62                     63
                      A                      A                      A
 Frequencies --   3264.7564              3274.1791              3671.3717
 Red. masses --      1.0935                 1.0988                 1.0639
 Frc consts  --      6.8672                 6.9402                 8.4489
 IR Inten    --      0.6472                 0.7296                50.9449

 - Thermochemistry -
 -------------------
 Temperature   298.150 Kelvin.  Pressure   1.00000 Atm.
 Atom     1 has atomic number  6 and mass  12.00000

 Molecular mass:   185.05105 amu.
 Principal axes and moments of inertia in atomic units:
                           1         2         3
     Eigenvalues --  1529.232023096.561043575.12734
           X            0.99956  -0.02931  -0.00410
           Y            0.02911   0.99872  -0.04140
           Z            0.00531   0.04127   0.99913
 This molecule is an asymmetric top.
 Rotational symmetry number  1.
 Warning -- assumption of classical behavior for rotation
           may cause significant error
 Rotational temperatures (Kelvin)      0.05664     0.02797     0.02423
 Rotational constants (GHZ):           1.18016     0.58282     0.50480
 Zero-point vibrational energy     484759.9 (Joules/Mol)
                                  115.86039 (Kcal/Mol)
 Warning -- explicit consideration of  16 degrees of freedom as
           vibrations may cause significant error
 Vibrational temperatures:     51.74    68.62   116.87   148.47   216.47
          (Kelvin)            273.66   370.04   382.42   406.86   429.01
                              503.96   529.02   593.77   671.76   683.84
                              844.89   904.25   933.05   970.18   992.64
                             1057.91  1140.15  1155.91  1208.32  1230.89
                             1276.25  1305.77  1327.49  1398.54  1515.31
                             1552.38  1620.93  1631.75  1695.17  1722.15
                             1731.55  1762.46  1820.52  1876.31  1913.53
                             1982.43  2018.19  2063.85  2111.40  2118.35
                             2157.67  2177.56  2202.85  2208.35  2226.88
                             2285.21  2665.04  4265.16  4294.19  4433.72
                             4451.05  4481.86  4496.99  4566.98  4673.54
                             4697.26  4710.81  5282.29

 Zero-point correction=                           0.184635 (Hartree/Particle)
 Thermal correction to Energy=                    0.196727
 Thermal correction to Enthalpy=                  0.197671
 Thermal correction to Gibbs Free Energy=         0.145281
 Sum of electronic and zero-point Energies=           -914.698444
 Sum of electronic and thermal Energies=              -914.686352
 Sum of electronic and thermal Enthalpies=            -914.685407
 Sum of electronic and thermal Free Energies=         -914.737798

                     E (Thermal)             CV                S
                      KCal/Mol        Cal/Mol-Kelvin    Cal/Mol-Kelvin
 Total                  123.448             44.734            110.266
 Electronic               0.000              0.000              0.000
 Translational            0.889              2.981             41.553
 Rotational               0.889              2.981             31.205
 Vibrational            121.671             38.772             37.509
 Vibration     1          0.594              1.982              5.470
 Vibration     2          0.595              1.978              4.911
 Vibration     3          0.600              1.962              3.861
 Vibration     4          0.605              1.947              3.393
 Vibration     5          0.618              1.902              2.666
 Vibration     6          0.634              1.853              2.226
 Vibration     7          0.667              1.751              1.681
 Vibration     8          0.672              1.736              1.623
 Vibration     9          0.682              1.706              1.517
 Vibration    10          0.691              1.677              1.427
 Vibration    11          0.727              1.575              1.165
 Vibration    12          0.740              1.539              1.089
 Vibration    13          0.776              1.443              0.917
 Vibration    14          0.824              1.323              0.746
 Vibration    15          0.832              1.305              0.723
 Vibration    16          0.944              1.059              0.472

 Optimization completed.
    -- Stationary point found.
 Normal termination of Gaussian 16 at Wed Dec  9 17:38:07 2020.

 ----------------------------------------------------------------------
 # B3LYP/6-311++G(d,p) empiricaldispersion=gd3bj scf=xqc pop=npa geom=c
 heck
 ----------------------------------------------------------------------

 --------------------------------------
 CID_43803170_JID_2524_Energie_neutraal
 --------------------------------------
 Structure from the checkpoint file:  "JID_2524.chk"
 Charge =  0 Multiplicity = 1

 SCF Done:  E(RB3LYP) =  -915.065541581     A.U. after   16 cycles
 Normal termination of Gaussian 16 at Wed Dec  9 17:41:07 2020.

 ----------------------------------------------------------------------
 # B3LYP/6-311++G(d,p) empiricaldispersion=gd3bj scf=xqc pop=npa geom=c
 heck
 ----------------------------------------------------------------------

 ------------------------------------
 CID_43803170_JID_2524_Energie_kation
 ------------------------------------
 Structure from the checkpoint file:  "JID_2524.chk"
 Charge =  1 Multiplicity = 2

 SCF Done:  E(UB3LYP) =  -914.765578767     A.U. after   24 cycles
 Normal termination of Gaussian 16 at Wed Dec  9 17:48:07 2020.
 Gaussian 16:  ES64L-G16RevA.03 25-Dec-2016

 ----------------------------------------------------------------------
 # B3LYP/6-311++G(d,p) empiricaldispersion=gd3bj scf=xqc pop=npa geom=c
 heck
 ----------------------------------------------------------------------

 -----------------------------------
 CID_43803170_JID_2524_Energie_anion
 -----------------------------------
 Structure from the checkpoint file:  "JID_2524.chk"
 Charge = -1 Multiplicity = 2

                         Standard orientation:
 ---------------------------------------------------------------------
 Center     Atomic      Atomic             Coordinates (Angstroms)
 Number     Number       Type             X           Y           Z
 ---------------------------------------------------------------------
      1          6           0       -1.386384    1.308702    1.562456
      2          7           0       -1.582521    1.247882    0.115841
      3          6           0       -1.211212    2.514283   -0.504791
      4          6           0       -0.934089    0.112855   -0.570355
      5          6           0        0.527305   -0.123543   -0.226250
      6          6           0        1.545588    0.362315   -1.006555
      7         16           0        3.108399    0.021063   -0.339071
      8          6           0        2.390153   -0.794659    1.015208
      9          6           0        1.026391   -0.793244    0.942431
     10          6           0       -1.778726   -1.153860   -0.447157
     11          8           0       -2.247636   -1.750679   -1.388207
     12          8           0       -1.958984   -1.575492    0.831678
     13          1           0       -2.020774    2.107831    1.960051
     14          1           0       -0.343135    1.522149    1.852335
     15          1           0       -1.692251    0.369268    2.023047
     16          1           0       -0.138185    2.757214   -0.396974
     17          1           0       -1.456551    2.492937   -1.571854
     18          1           0       -1.788839    3.319668   -0.039840
     19          1           0       -0.987961    0.338885   -1.637025
     20          1           0        1.460359    0.895747   -1.943703
     21          1           0        3.018092   -1.229242    1.780876
     22          1           0        0.386856   -1.259029    1.681049
     23          1           0       -2.515545   -2.375336    0.768595
 ---------------------------------------------------------------------

 SCF Done:  E(UB3LYP) =  -915.052104464     A.U. after   33 cycles
 SCF Done:  E(UB3LYP) =  -915.052104464     a.u. after    1 cycles

 The electronic state is 2-A.
 Alpha  occ. eigenvalues --  -88.77468 -19.06573 -19.01176 -14.21049 -10.20067
 Alpha  occ. eigenvalues --  -10.11911 -10.09445 -10.09434 -10.08372 -10.08272
 Alpha  occ. eigenvalues --  -10.07659 -10.07223  -7.86091  -5.82370  -5.82010
 Alpha  occ. eigenvalues --   -5.81711  -1.00717  -0.91765  -0.82791  -0.77852
 Alpha  occ. eigenvalues --   -0.67379  -0.62875  -0.60673  -0.60213  -0.52913
 Alpha  occ. eigenvalues --   -0.49308  -0.46889  -0.44493  -0.41660  -0.39620
 Alpha  occ. eigenvalues --   -0.38626  -0.36518  -0.34714  -0.33329  -0.33218
 Alpha  occ. eigenvalues --   -0.31151  -0.30606  -0.28885  -0.28380  -0.27939
 Alpha  occ. eigenvalues --   -0.27042  -0.26263  -0.25557  -0.24783  -0.22288
 Alpha  occ. eigenvalues --   -0.18670  -0.15186  -0.14053  -0.11965   0.04626
 Alpha virt. eigenvalues --    0.06773   0.06940   0.07272   0.08071   0.09537
 Alpha virt. eigenvalues --    0.09844   0.10381   0.10833   0.11438   0.12013
 Alpha virt. eigenvalues --    0.12503   0.12902   0.13921   0.14171   0.14599

  Beta  occ. eigenvalues --  -88.77455 -19.06518 -19.01132 -14.21032 -10.20024
  Beta  occ. eigenvalues --  -10.11904 -10.09380 -10.09360 -10.08332 -10.08263
  Beta  occ. eigenvalues --  -10.07640 -10.07215  -7.86078  -5.82364  -5.82003
  Beta  occ. eigenvalues --   -5.81669  -1.00617  -0.91671  -0.82748  -0.77776
  Beta  occ. eigenvalues --   -0.67314  -0.62780  -0.60569  -0.60160  -0.52791
  Beta  occ. eigenvalues --   -0.49234  -0.46743  -0.44419  -0.41577  -0.39555
  Beta  occ. eigenvalues --   -0.38578  -0.36461  -0.34647  -0.33246  -0.33113
  Beta  occ. eigenvalues --   -0.31100  -0.30544  -0.28822  -0.28328  -0.27815
  Beta  occ. eigenvalues --   -0.26950  -0.26220  -0.25512  -0.24713  -0.22126
  Beta  occ. eigenvalues --   -0.18590  -0.15024  -0.13736  -0.11908
  Beta virt. eigenvalues --    0.07056   0.07522   0.07775   0.08413   0.08726
  Beta virt. eigenvalues --    0.09859   0.10307   0.10751   0.11148   0.11702
  Beta virt. eigenvalues --    0.12259   0.12934   0.13129   0.14018   0.14416

 Mulliken charges and spin densities:
               1          2
     1  C    0.111814  -0.509022
     2  N    0.114763   0.127886
     3  C    0.779647  -1.120121
     4  C    1.587947  -2.477277
     5  C    0.329776  -0.734909
     6  C   -1.124610   2.210081
     7  S    0.426439  -0.939645
     8  C    0.508485  -0.702378
     9  C   -0.817621   0.718574
    10  C   -0.378604   0.150293
    11  O   -0.265560   0.022154
    12  O   -0.254434   0.081985
    13  H   -0.177093   0.312602
    14  H    0.030839   0.098931
    15  H   -0.100217   0.286218
    16  H   -0.108707   0.256681
    17  H   -0.316971   0.432201
    18  H   -0.204537   0.344166
    19  H    0.289041  -0.058160
    20  H   -0.375205   0.663385
    21  H   -0.615149   0.877642
    22  H   -0.136283   0.353919
    23  H   -0.303761   0.604792
 Sum of Mulliken charges =  -1.00000   1.00000

 Dipole moment (field-independent basis, Debye):
    X=              2.6987    Y=              0.3462    Z=             -1.3910  Tot=              3.0558
 Quadrupole moment (field-independent basis, Debye-Ang):
   XX=           -128.0133   YY=           -125.1520   ZZ=           -115.3111
   XY=             -1.9789   XZ=             -2.2415   YZ=              3.9550

 Summary of Natural Population Analysis:

                                       Natural Population
                Natural  -----------------------------------------------
    Atom  No    Charge         Core      Valence    Rydberg      Total
 -----------------------------------------------------------------------
      C    1   -0.18474      0.99963     2.17635    0.00875     3.18474
      N    2   -0.27232      0.99973     2.75909    0.01351     3.77232
      C    3   -0.17736      0.99964     2.16857    0.00915     3.17736
      C    4   -0.05227      0.99947     2.03685    0.01595     3.05227
      C    5   -0.05655      0.99946     2.04424    0.01286     3.05655
      C    6   -0.17413      0.99945     2.16473    0.00995     3.17413
      S    7    0.19893      4.99945     2.77972    0.02190     7.80107
      C    8   -0.18358      0.99954     2.17212    0.01193     3.18358
      C    9   -0.12495      0.99948     2.11417    0.01129     3.12495
      C   10    0.42173      0.99969     1.55228    0.02631     2.57827
      O   11   -0.30281      0.99987     3.29699    0.00595     4.30281
      O   12   -0.34919      0.99988     3.34112    0.00819     4.34919
      H   13    0.09457      0.00000     0.40435    0.00108     0.40543
      H   14    0.08515      0.00000     0.41334    0.00151     0.41485
      H   15    0.10669      0.00000     0.39128    0.00203     0.39331
      H   16    0.08530      0.00000     0.41263    0.00207     0.41470
      H   17    0.09415      0.00000     0.40456    0.00129     0.40585
      H   18    0.09716      0.00000     0.40150    0.00134     0.40284
      H   19    0.11239      0.00000     0.38545    0.00215     0.38761
      H   20    0.11075      0.00000     0.38793    0.00132     0.38925
      H   21    0.10963      0.00000     0.38901    0.00135     0.39037
      H   22    0.11725      0.00000     0.38094    0.00182     0.38275
      H   23    0.24421      0.00000     0.24537    0.01042     0.25579
 =======================================================================
   * Total *   -0.00000     15.99529    32.82261    0.18211    49.00000

 Normal termination of Gaussian 16 at Wed Dec  9 17:55:40 2020.
