 Gaussian 16, Revision A.03,

 -----------------------------------------------------------
 # opt freq B3LYP/6-31G(d) empiricaldispersion=gd3bj scf=xqc
 -----------------------------------------------------------

 ------------------------------
 CID_65159518_JID_9580_neutraal
 ------------------------------
 Symbolic Z-matrix:
 Charge =  0 Multiplicity = 1

 SCF Done:  E(RB3LYP) =  -826.341030375     A.U. after   15 cycles
 SCF Done:  E(RB3LYP) =  -826.346979171     A.U. after   15 cycles
 SCF Done:  E(RB3LYP) =  -826.348786017     A.U. after   15 cycles
 SCF Done:  E(RB3LYP) =  -826.351734477     A.U. after   13 cycles
 SCF Done:  E(RB3LYP) =  -826.350425006     A.U. after   14 cycles
 SCF Done:  E(RB3LYP) =  -826.353718426     A.U. after   13 cycles
 SCF Done:  E(RB3LYP) =  -826.354478915     A.U. after   13 cycles
 SCF Done:  E(RB3LYP) =  -826.355415853     A.U. after   12 cycles
 SCF Done:  E(RB3LYP) =  -826.354386563     A.U. after   13 cycles
 SCF Done:  E(RB3LYP) =  -826.356062686     A.U. after   13 cycles
 SCF Done:  E(RB3LYP) =  -826.357413447     A.U. after   10 cycles
 SCF Done:  E(RB3LYP) =  -826.357415068     A.U. after   10 cycles
 SCF Done:  E(RB3LYP) =  -826.357415656     A.U. after    9 cycles
 SCF Done:  E(RB3LYP) =  -826.357415565     A.U. after    8 cycles
 SCF Done:  E(RB3LYP) =  -826.357415698     A.U. after    7 cycles
 Optimization completed.
    -- Stationary point found.
 Normal termination of Gaussian 16 at Sat Dec 12 10:21:47 2020.

 --------------------------------------------------------------------
 #N Geom=AllCheck Guess=TCheck SCRF=Check GenChk RB3LYP/6-31G(d) Freq
 --------------------------------------------------------------------

 Structure from the checkpoint file:  "JID_9580.chk"
 ------------------------------
 CID_65159518_JID_9580_neutraal
 ------------------------------
 Charge =  0 Multiplicity = 1

 SCF Done:  E(RB3LYP) =  -826.357415698     A.U. after    1 cycles

  Exact polarizability: 200.797  27.201 173.389  10.414 -21.636 140.956
 Approx polarizability: 302.674  58.101 280.760  23.226 -43.211 210.889

                      1                      2                      3
                      A                      A                      A
 Frequencies --     31.2879                40.6106                50.3857
 Red. masses --      4.5030                 8.2768                 4.8653
 Frc consts  --      0.0026                 0.0080                 0.0073
 IR Inten    --      0.0273                 1.0057                 0.1518

                      4                      5                      6
                      A                      A                      A
 Frequencies --     65.8839                97.2958               125.5940
 Red. masses --      3.9829                 3.3849                 4.0924
 Frc consts  --      0.0102                 0.0189                 0.0380
 IR Inten    --      1.1906                 0.1659                 3.6296

                      7                      8                      9
                      A                      A                      A
 Frequencies --    140.1511               147.5009               167.1271
 Red. masses --      3.5764                 4.0914                 3.8430
 Frc consts  --      0.0414                 0.0524                 0.0632
 IR Inten    --      1.7705                 0.2495                 0.7365

                     10                     11                     12
                      A                      A                      A
 Frequencies --    181.1064               197.6321               225.3198
 Red. masses --      3.5864                 1.0557                 1.7081
 Frc consts  --      0.0693                 0.0243                 0.0511
 IR Inten    --      0.2525                 0.0789                 0.9607

                     13                     14                     15
                      A                      A                      A
 Frequencies --    237.2652               247.1855               272.8187
 Red. masses --      1.4342                 1.6410                 1.7993
 Frc consts  --      0.0476                 0.0591                 0.0789
 IR Inten    --      0.2300                 0.2354                 0.6665

                     16                     17                     18
                      A                      A                      A
 Frequencies --    284.5290               336.6785               372.9652
 Red. masses --      2.4779                 2.9612                 4.9880
 Frc consts  --      0.1182                 0.1978                 0.4088
 IR Inten    --      1.7361                 3.1558                 1.4158

                     19                     20                     21
                      A                      A                      A
 Frequencies --    392.3375               400.3392               421.0144
 Red. masses --      4.9095                 5.6753                 2.8669
 Frc consts  --      0.4453                 0.5359                 0.2994
 IR Inten    --      2.0767                 3.9747                 4.5173

                     22                     23                     24
                      A                      A                      A
 Frequencies --    439.0106               460.2501               472.4792
 Red. masses --      5.0628                 3.3440                 6.9124
 Frc consts  --      0.5749                 0.4174                 0.9092
 IR Inten    --      0.8447                 1.2747                 0.8458

                     25                     26                     27
                      A                      A                      A
 Frequencies --    496.3432               513.1319               552.2321
 Red. masses --      3.9794                 2.4904                 5.3353
 Frc consts  --      0.5776                 0.3863                 0.9586
 IR Inten    --     14.9320                23.8926                 2.8118

                     28                     29                     30
                      A                      A                      A
 Frequencies --    563.9606               593.3547               600.1810
 Red. masses --      1.5250                 2.3277                 2.2510
 Frc consts  --      0.2858                 0.4828                 0.4777
 IR Inten    --     31.5892                37.5344                 9.9934

                     31                     32                     33
                      A                      A                      A
 Frequencies --    628.4414               633.9128               665.9580
 Red. masses --      1.2043                 3.2914                 3.7748
 Frc consts  --      0.2802                 0.7793                 0.9864
 IR Inten    --     41.6935                24.7312                13.5237

                     34                     35                     36
                      A                      A                      A
 Frequencies --    684.0389               708.7796               755.7076
 Red. masses --      5.9789                 2.2551                 4.3241
 Frc consts  --      1.6483                 0.6675                 1.4550
 IR Inten    --      2.3708                27.3900                10.6182

                     37                     38                     39
                      A                      A                      A
 Frequencies --    785.0701               800.0998               818.6630
 Red. masses --      2.9814                 2.7461                 1.8314
 Frc consts  --      1.0826                 1.0357                 0.7232
 IR Inten    --      8.0154                10.4573                16.9288

                     40                     41                     42
                      A                      A                      A
 Frequencies --    844.8056               867.6146               899.3467
 Red. masses --      2.3168                 2.9395                 1.5456
 Frc consts  --      0.9742                 1.3037                 0.7365
 IR Inten    --      4.8985                14.2521                 8.9359

                     43                     44                     45
                      A                      A                      A
 Frequencies --    926.6755               931.6490               966.1585
 Red. masses --      1.8641                 1.6492                 2.4411
 Frc consts  --      0.9431                 0.8434                 1.3426
 IR Inten    --      6.4444                 3.9339                17.1783

                     46                     47                     48
                      A                      A                      A
 Frequencies --    969.2770               980.9008              1002.9121
 Red. masses --      1.9599                 1.2771                 2.1533
 Frc consts  --      1.0849                 0.7240                 1.2761
 IR Inten    --      5.6179                 0.4106                 6.9439

                     49                     50                     51
                      A                      A                      A
 Frequencies --   1006.7861              1024.4486              1059.4748
 Red. masses --      1.3937                 6.2117                 1.6288
 Frc consts  --      0.8324                 3.8410                 1.0772
 IR Inten    --      0.8726                 0.6143                18.3417

                     52                     53                     54
                      A                      A                      A
 Frequencies --   1087.3755              1109.9160              1122.2082
 Red. masses --      2.2546                 2.3571                 1.6462
 Frc consts  --      1.5706                 1.7108                 1.2215
 IR Inten    --     15.1839                26.1838                 6.2405

                     55                     56                     57
                      A                      A                      A
 Frequencies --   1135.3805              1140.5266              1172.7714
 Red. masses --      2.4702                 1.9487                 2.5893
 Frc consts  --      1.8761                 1.4935                 2.0983
 IR Inten    --     33.7104                11.0748                27.0463

                     58                     59                     60
                      A                      A                      A
 Frequencies --   1184.1502              1200.0341              1202.1854
 Red. masses --      2.0335                 1.8742                 1.2452
 Frc consts  --      1.6800                 1.5902                 1.0604
 IR Inten    --     16.6374                22.1271                 2.7474

                     61                     62                     63
                      A                      A                      A
 Frequencies --   1212.4722              1274.4118              1282.2084
 Red. masses --      2.3723                 2.3429                 1.7816
 Frc consts  --      2.0548                 2.2419                 1.7257
 IR Inten    --     15.1198                23.8079                14.3123

                     64                     65                     66
                      A                      A                      A
 Frequencies --   1318.3511              1320.0912              1334.3154
 Red. masses --      2.0567                 1.9218                 1.4300
 Frc consts  --      2.1061                 1.9731                 1.5001
 IR Inten    --     25.5245                58.2040                41.8688

                     67                     68                     69
                      A                      A                      A
 Frequencies --   1356.7529              1363.9218              1389.4044
 Red. masses --      2.5074                 1.3283                 1.2175
 Frc consts  --      2.7194                 1.4558                 1.3848
 IR Inten    --      5.8065                 8.4647                 9.7728

                     70                     71                     72
                      A                      A                      A
 Frequencies --   1391.2703              1406.1200              1421.8724
 Red. masses --      1.4427                 1.3718                 1.3428
 Frc consts  --      1.6454                 1.5980                 1.5995
 IR Inten    --     67.1536                 8.0441                21.0181

                     73                     74                     75
                      A                      A                      A
 Frequencies --   1430.8348              1435.2306              1443.2903
 Red. masses --      1.3824                 1.3242                 1.2433
 Frc consts  --      1.6674                 1.6071                 1.5260
 IR Inten    --     32.9827                14.5214                10.9841

                     76                     77                     78
                      A                      A                      A
 Frequencies --   1446.9917              1459.3489              1479.7365
 Red. masses --      1.4502                 2.8196                 2.0308
 Frc consts  --      1.7890                 3.5380                 2.6200
 IR Inten    --     10.4367                44.1440                 9.0228

                     79                     80                     81
                      A                      A                      A
 Frequencies --   1515.8356              1517.8799              1525.7734
 Red. masses --      1.0514                 1.0799                 1.0561
 Frc consts  --      1.4234                 1.4660                 1.4486
 IR Inten    --      1.5775                 2.8157                 5.2928

                     82                     83                     84
                      A                      A                      A
 Frequencies --   1528.7067              1532.3605              1532.9756
 Red. masses --      1.0546                 1.0914                 1.0511
 Frc consts  --      1.4520                 1.5099                 1.4554
 IR Inten    --      3.3314                 1.4393                 1.9115

                     85                     86                     87
                      A                      A                      A
 Frequencies --   1536.3243              1630.7865              1659.3105
 Red. masses --      2.1193                 5.3420                 5.9288
 Frc consts  --      2.9472                 8.3704                 9.6178
 IR Inten    --     41.0037                18.9621                50.2226

                     88                     89                     90
                      A                      A                      A
 Frequencies --   1757.6820              2232.4579              2965.7327
 Red. masses --      6.9722                 6.1405                 1.0838
 Frc consts  --     12.6911                18.0311                 5.6163
 IR Inten    --    336.0033                 0.3091                60.7428

                     91                     92                     93
                      A                      A                      A
 Frequencies --   3022.2252              3046.6065              3059.0284
 Red. masses --      1.0834                 1.0365                 1.0398
 Frc consts  --      5.8305                 5.6681                 5.7329
 IR Inten    --     20.2788                21.4820                30.6677

                     94                     95                     96
                      A                      A                      A
 Frequencies --   3067.9470              3076.2005              3113.3212
 Red. masses --      1.0358                 1.0855                 1.1013
 Frc consts  --      5.7441                 6.0522                 6.2892
 IR Inten    --     14.1678                15.3700                25.5777

                     97                     98                     99
                      A                      A                      A
 Frequencies --   3115.3354              3116.6006              3132.3892
 Red. masses --      1.0858                 1.1017                 1.1021
 Frc consts  --      6.2090                 6.3051                 6.3711
 IR Inten    --      9.3008                28.6202                21.4076

                    100                    101                    102
                      A                      A                      A
 Frequencies --   3136.5778              3147.8829              3159.7414
 Red. masses --      1.1025                 1.1021                 1.0967
 Frc consts  --      6.3903                 6.4346                 6.4512
 IR Inten    --     15.8910                27.6797                19.6303

                    103                    104                    105
                      A                      A                      A
 Frequencies --   3194.3850              3208.3314              3222.0708
 Red. masses --      1.0870                 1.0923                 1.0957
 Frc consts  --      6.5350                 6.6245                 6.7021
 IR Inten    --      4.3008                 9.9494                11.1956

                    106                    107                    108
                      A                      A                      A
 Frequencies --   3287.3213              3496.6634              3555.6542
 Red. masses --      1.0913                 1.1574                 1.0742
 Frc consts  --      6.9486                 8.3375                 8.0016
 IR Inten    --      0.2503                79.3033                27.2251

 - Thermochemistry -
 -------------------
 Temperature   298.150 Kelvin.  Pressure   1.00000 Atm.
 Atom     1 has atomic number  6 and mass  12.00000

 Molecular mass:   257.14158 amu.
 Principal axes and moments of inertia in atomic units:
                           1         2         3
     Eigenvalues --  3535.875025563.558926081.11246
           X            0.99984  -0.01655  -0.00681
           Y            0.01609   0.99793  -0.06234
           Z            0.00782   0.06222   0.99803
 This molecule is an asymmetric top.
 Rotational symmetry number  1.
 Warning -- assumption of classical behavior for rotation
           may cause significant error
 Rotational temperatures (Kelvin)      0.02450     0.01557     0.01424
 Rotational constants (GHZ):           0.51041     0.32439     0.29678
 Zero-point vibrational energy     839192.2 (Joules/Mol)
                                  200.57174 (Kcal/Mol)
 Warning -- explicit consideration of  30 degrees of freedom as
           vibrations may cause significant error
 Vibrational temperatures:     45.02    58.43    72.49    94.79   139.99
          (Kelvin)            180.70   201.65   212.22   240.46   260.57
                              284.35   324.18   341.37   355.64   392.53
                              409.37   484.41   536.61   564.49   576.00
                              605.75   631.64   662.20   679.79   714.13
                              738.28   794.54   811.41   853.71   863.53
                              904.19   912.06   958.17   984.18  1019.78
                             1087.29  1129.54  1151.17  1177.87  1215.49
                             1248.30  1293.96  1333.28  1340.44  1390.09
                             1394.57  1411.30  1442.97  1448.54  1473.95
                             1524.35  1564.49  1596.92  1614.61  1633.56
                             1640.96  1687.36  1703.73  1726.58  1729.68
                             1744.48  1833.59  1844.81  1896.81  1899.32
                             1919.78  1952.06  1962.38  1999.04  2001.73
                             2023.09  2045.76  2058.65  2064.98  2076.57
                             2081.90  2099.68  2129.01  2180.95  2183.89
                             2195.25  2199.47  2204.73  2205.61  2210.43
                             2346.34  2387.38  2528.91  3212.01  4267.03
                             4348.31  4383.39  4401.26  4414.09  4425.97
                             4479.37  4482.27  4484.09  4506.81  4512.84
                             4529.10  4546.16  4596.01  4616.07  4635.84
                             4729.72  5030.92  5115.79

 Zero-point correction=                           0.319631 (Hartree/Particle)
 Thermal correction to Energy=                    0.338166
 Thermal correction to Enthalpy=                  0.339110
 Thermal correction to Gibbs Free Energy=         0.273099
 Sum of electronic and zero-point Energies=           -826.037784
 Sum of electronic and thermal Energies=              -826.019250
 Sum of electronic and thermal Enthalpies=            -826.018305
 Sum of electronic and thermal Free Energies=         -826.084316

                     E (Thermal)             CV                S
                      KCal/Mol        Cal/Mol-Kelvin    Cal/Mol-Kelvin
 Total                  212.202             71.546            138.932
 Electronic               0.000              0.000              0.000
 Translational            0.889              2.981             42.533
 Rotational               0.889              2.981             33.147
 Vibrational            210.425             65.584             63.251
 Vibration     1          0.594              1.983              5.746
 Vibration     2          0.594              1.981              5.229
 Vibration     3          0.595              1.977              4.802
 Vibration     4          0.597              1.971              4.273
 Vibration     5          0.603              1.951              3.508
 Vibration     6          0.611              1.927              3.012
 Vibration     7          0.615              1.913              2.802
 Vibration     8          0.617              1.905              2.704
 Vibration     9          0.624              1.883              2.468
 Vibration    10          0.630              1.865              2.317
 Vibration    11          0.637              1.843              2.155
 Vibration    12          0.650              1.802              1.916
 Vibration    13          0.656              1.784              1.823
 Vibration    14          0.661              1.767              1.751
 Vibration    15          0.676              1.723              1.578
 Vibration    16          0.683              1.702              1.506
 Vibration    17          0.717              1.602              1.228
 Vibration    18          0.744              1.528              1.068
 Vibration    19          0.760              1.487              0.991
 Vibration    20          0.766              1.469              0.961
 Vibration    21          0.784              1.425              0.889
 Vibration    22          0.799              1.385              0.830
 Vibration    23          0.818              1.338              0.765
 Vibration    24          0.829              1.311              0.731
 Vibration    25          0.852              1.258              0.667
 Vibration    26          0.868              1.221              0.626
 Vibration    27          0.908              1.135              0.540
 Vibration    28          0.920              1.109              0.516
 Vibration    29          0.951              1.046              0.461
 Vibration    30          0.958              1.031              0.449

 Optimization completed.
    -- Stationary point found.
 Normal termination of Gaussian 16 at Sat Dec 12 10:44:25 2020.

 ----------------------------------------------------------------------
 # B3LYP/6-311++G(d,p) empiricaldispersion=gd3bj scf=xqc pop=npa geom=c
 heck
 ----------------------------------------------------------------------

 --------------------------------------
 CID_65159518_JID_9580_Energie_neutraal
 --------------------------------------
 Structure from the checkpoint file:  "JID_9580.chk"
 Charge =  0 Multiplicity = 1

 SCF Done:  E(RB3LYP) =  -826.587849035     A.U. after   16 cycles
 Normal termination of Gaussian 16 at Sat Dec 12 10:54:59 2020.

 ----------------------------------------------------------------------
 # B3LYP/6-311++G(d,p) empiricaldispersion=gd3bj scf=xqc pop=npa geom=c
 heck
 ----------------------------------------------------------------------

 ------------------------------------
 CID_65159518_JID_9580_Energie_kation
 ------------------------------------
 Structure from the checkpoint file:  "JID_9580.chk"
 Charge =  1 Multiplicity = 2

 SCF Done:  E(UB3LYP) =  -826.283717586     A.U. after   30 cycles
 Normal termination of Gaussian 16 at Sat Dec 12 11:23:30 2020.
 Gaussian 16:  ES64L-G16RevA.03 25-Dec-2016

 ----------------------------------------------------------------------
 # B3LYP/6-311++G(d,p) empiricaldispersion=gd3bj scf=xqc pop=npa geom=c
 heck
 ----------------------------------------------------------------------

 -----------------------------------
 CID_65159518_JID_9580_Energie_anion
 -----------------------------------
 Structure from the checkpoint file:  "JID_9580.chk"
 Charge = -1 Multiplicity = 2

                         Standard orientation:
 ---------------------------------------------------------------------
 Center     Atomic      Atomic             Coordinates (Angstroms)
 Number     Number       Type             X           Y           Z
 ---------------------------------------------------------------------
      1          6           0       -1.821549   -1.019191    2.120087
      2          6           0       -1.834866    0.306143    1.363934
      3          6           0       -0.491078    1.074607    1.350572
      4          8           0       -0.399544    1.704539    0.059425
      5          6           0       -1.650219    1.589867   -0.620163
      6          6           0       -2.269249    0.267567   -0.121875
      7          6           0       -2.004102   -0.980022   -0.973109
      8          8           0       -2.955579   -1.495706   -1.550770
      9          7           0       -0.755934   -1.551099   -1.165013
     10          6           0        0.525105   -1.367287   -0.562932
     11          6           0        0.991192   -2.326127    0.346427
     12          6           0        2.253529   -2.192871    0.922851
     13          6           0        3.058922   -1.104957    0.599318
     14          6           0        2.613045   -0.153912   -0.335473
     15          6           0        1.350144   -0.307228   -0.931620
     16          6           0        3.438398    0.956085   -0.689078
     17          6           0        4.139586    1.895621   -0.985312
     18          6           0       -1.453645    1.747513   -2.117717
     19          6           0       -0.371184    2.117759    2.453801
     20          1           0       -2.804640   -1.500505    2.080024
     21          1           0       -1.570716   -0.857501    3.174710
     22          1           0       -1.085287   -1.712019    1.707574
     23          1           0       -2.572132    0.956889    1.854192
     24          1           0        0.349725    0.376462    1.423453
     25          1           0       -2.319169    2.395742   -0.272580
     26          1           0       -3.357171    0.335477   -0.184356
     27          1           0       -0.863678   -2.403211   -1.705702
     28          1           0        0.354757   -3.168887    0.599266
     29          1           0        2.604987   -2.936034    1.632183
     30          1           0        4.037003   -0.984546    1.052921
     31          1           0        1.015118    0.417644   -1.657140
     32          1           0        4.752652    2.727332   -1.247749
     33          1           0       -2.426370    1.770473   -2.619692
     34          1           0       -0.929368    2.684299   -2.329208
     35          1           0       -0.876638    0.921182   -2.540674
     36          1           0       -0.430071    1.643090    3.440963
     37          1           0        0.586194    2.642717    2.381648
     38          1           0       -1.176839    2.857027    2.377750
 ---------------------------------------------------------------------

 SCF Done:  E(UB3LYP) =  -826.588513903     A.U. after   33 cycles
 SCF Done:  E(UB3LYP) =  -826.588513903     a.u. after    1 cycles

 The electronic state is 2-A.
 Alpha  occ. eigenvalues --  -19.00960 -18.97619 -14.22263 -10.16333 -10.12333
 Alpha  occ. eigenvalues --  -10.10922 -10.08115 -10.07978 -10.07588 -10.06259
 Alpha  occ. eigenvalues --  -10.06224 -10.06043 -10.04550 -10.04510 -10.04228
 Alpha  occ. eigenvalues --  -10.03800 -10.03622 -10.02894 -10.02341  -0.93311
 Alpha  occ. eigenvalues --   -0.92711  -0.80714  -0.72234  -0.70849  -0.68683
 Alpha  occ. eigenvalues --   -0.64611  -0.62301  -0.61637  -0.60266  -0.59287
 Alpha  occ. eigenvalues --   -0.53346  -0.52412  -0.49749  -0.49111  -0.45697
 Alpha  occ. eigenvalues --   -0.44752  -0.42900  -0.39703  -0.38665  -0.38266
 Alpha  occ. eigenvalues --   -0.36428  -0.36293  -0.35227  -0.33339  -0.32969
 Alpha  occ. eigenvalues --   -0.32337  -0.31688  -0.30737  -0.30217  -0.29829
 Alpha  occ. eigenvalues --   -0.29471  -0.29280  -0.28200  -0.26835  -0.26577
 Alpha  occ. eigenvalues --   -0.24935  -0.24125  -0.23755  -0.23390  -0.23056
 Alpha  occ. eigenvalues --   -0.22416  -0.20371  -0.18321  -0.15748  -0.15327
 Alpha  occ. eigenvalues --   -0.14645  -0.14190  -0.12096  -0.10791   0.04748
 Alpha virt. eigenvalues --    0.06480   0.08068   0.08503   0.08631   0.09460
 Alpha virt. eigenvalues --    0.09791   0.10030   0.10558   0.11110   0.11390
 Alpha virt. eigenvalues --    0.11820   0.12051   0.12358   0.12813   0.13402

  Beta  occ. eigenvalues --  -19.00954 -18.97585 -14.22283 -10.16293 -10.12320
  Beta  occ. eigenvalues --  -10.10920 -10.08109 -10.07978 -10.07503 -10.06256
  Beta  occ. eigenvalues --  -10.06217 -10.06034 -10.04571 -10.04283 -10.04218
  Beta  occ. eigenvalues --  -10.03815 -10.03438 -10.02535 -10.02148  -0.93278
  Beta  occ. eigenvalues --   -0.92671  -0.80617  -0.71869  -0.70820  -0.68664
  Beta  occ. eigenvalues --   -0.64147  -0.62285  -0.61376  -0.60221  -0.58911
  Beta  occ. eigenvalues --   -0.53318  -0.52333  -0.49147  -0.48917  -0.45672
  Beta  occ. eigenvalues --   -0.44665  -0.42743  -0.39616  -0.38494  -0.38219
  Beta  occ. eigenvalues --   -0.36370  -0.36054  -0.35164  -0.33177  -0.32793
  Beta  occ. eigenvalues --   -0.32288  -0.31666  -0.30663  -0.30171  -0.29796
  Beta  occ. eigenvalues --   -0.29407  -0.29221  -0.28078  -0.26807  -0.26484
  Beta  occ. eigenvalues --   -0.24494  -0.23829  -0.23601  -0.23277  -0.22879
  Beta  occ. eigenvalues --   -0.22249  -0.20339  -0.17230  -0.15533  -0.15200
  Beta  occ. eigenvalues --   -0.14524  -0.14129  -0.11452  -0.09183
  Beta virt. eigenvalues --    0.06707   0.08081   0.08449   0.08605   0.09245
  Beta virt. eigenvalues --    0.09611   0.09799   0.10320   0.10610   0.11288
  Beta virt. eigenvalues --    0.11544   0.11735   0.12073   0.12486   0.12753

 Mulliken charges and spin densities:
               1          2
     1  C   -0.642987  -0.089663
     2  C    0.437830  -0.267575
     3  C   -0.467221   0.275667
     4  O    0.086094  -0.004825
     5  C    0.041486  -0.113165
     6  C    0.553872  -0.256109
     7  C   -0.802882   0.315277
     8  O   -0.299194   0.013023
     9  N   -0.301337   0.062753
    10  C   -0.313888  -0.275909
    11  C    0.088774   0.339712
    12  C   -0.510719   0.039864
    13  C   -0.245112   0.205719
    14  C    0.403055   0.156554
    15  C   -0.360733  -0.001084
    16  C    0.245749  -0.181391
    17  C   -0.474155   0.296836
    18  C   -0.335380  -0.230301
    19  C   -0.345090  -0.249855
    20  H    0.117454   0.023688
    21  H    0.116569   0.014200
    22  H    0.148857  -0.033296
    23  H    0.042525   0.158216
    24  H    0.316367  -0.022167
    25  H   -0.114647   0.271780
    26  H    0.134930   0.130112
    27  H    0.206170   0.111971
    28  H    0.076139   0.040117
    29  H    0.105094   0.025898
    30  H    0.132690  -0.005214
    31  H    0.186818  -0.023471
    32  H    0.138329  -0.007543
    33  H    0.122258   0.014828
    34  H    0.144803   0.026457
    35  H    0.164687   0.018161
    36  H    0.090362   0.040197
    37  H    0.123949   0.035489
    38  H   -0.011519   0.145050
 Sum of Mulliken charges =  -1.00000   1.00000

 Dipole moment (field-independent basis, Debye):
    X=             -2.6262    Y=              0.5516    Z=              2.2747  Tot=              3.5179
 Quadrupole moment (field-independent basis, Debye-Ang):
   XX=           -170.1282   YY=           -143.6422   ZZ=           -132.1454
   XY=             -5.4279   XZ=             -1.9477   YZ=             -6.2684

 Summary of Natural Population Analysis:

                                       Natural Population
                Natural  -----------------------------------------------
    Atom  No    Charge         Core      Valence    Rydberg      Total
 -----------------------------------------------------------------------
      C    1   -0.28668      0.99964     2.28222    0.00482     3.28668
      C    2   -0.11321      0.99957     2.10295    0.01069     3.11321
      C    3    0.05888      0.99954     1.92768    0.01391     2.94112
      O    4   -0.30378      0.99988     3.29417    0.00973     4.30378
      C    5    0.07168      0.99956     1.91268    0.01608     2.92832
      C    6   -0.15423      0.99951     2.14237    0.01235     3.15423
      C    7    0.35300      0.99963     1.62426    0.02310     2.64700
      O    8   -0.33009      0.99988     3.32458    0.00563     4.33009
      N    9   -0.31959      0.99964     2.80952    0.01042     3.81959
      C   10    0.06153      0.99944     1.92749    0.01154     2.93847
      C   11   -0.04869      0.99952     2.03928    0.00989     3.04869
      C   12   -0.12066      0.99957     2.11242    0.00867     3.12066
      C   13   -0.05120      0.99954     2.04229    0.00936     3.05120
      C   14   -0.03347      0.99945     2.02501    0.00902     3.03347
      C   15   -0.07478      0.99949     2.06609    0.00920     3.07478
      C   16   -0.00146      0.99938     1.99440    0.00769     3.00146
      C   17   -0.10388      0.99928     2.10071    0.00389     3.10388
      C   18   -0.29424      0.99964     2.28836    0.00624     3.29424
      C   19   -0.28928      0.99964     2.28478    0.00486     3.28928
      H   20    0.09791      0.00000     0.40135    0.00074     0.40209
      H   21    0.09661      0.00000     0.40259    0.00080     0.40339
      H   22    0.11097      0.00000     0.38787    0.00116     0.38903
      H   23    0.09514      0.00000     0.40320    0.00166     0.40486
      H   24    0.09945      0.00000     0.39821    0.00234     0.40055
      H   25    0.07846      0.00000     0.42005    0.00149     0.42154
      H   26    0.11522      0.00000     0.38350    0.00128     0.38478
      H   27    0.19469      0.00000     0.30260    0.00272     0.30531
      H   28    0.09290      0.00000     0.40614    0.00095     0.40710
      H   29    0.09253      0.00000     0.40603    0.00144     0.40747
      H   30    0.09461      0.00000     0.40464    0.00075     0.40539
      H   31    0.10526      0.00000     0.39355    0.00119     0.39474
      H   32    0.10115      0.00000     0.39790    0.00095     0.39885
      H   33    0.10106      0.00000     0.39830    0.00064     0.39894
      H   34    0.10398      0.00000     0.39528    0.00074     0.39602
      H   35    0.10439      0.00000     0.39466    0.00096     0.39561
      H   36    0.09570      0.00000     0.40355    0.00075     0.40430
      H   37    0.10525      0.00000     0.39387    0.00088     0.39475
      H   38    0.09486      0.00000     0.40401    0.00113     0.40514
 =======================================================================
   * Total *    0.00000     18.99178    49.79856    0.20966    69.00000

 Normal termination of Gaussian 16 at Sat Dec 12 11:53:22 2020.
