 Gaussian 16, Revision A.03,

 -----------------------------------------------------------
 # opt freq B3LYP/6-31G(d) empiricaldispersion=gd3bj scf=xqc
 -----------------------------------------------------------

 -------------------------------
 CID_115018620_JID_2685_neutraal
 -------------------------------
 Symbolic Z-matrix:
 Charge =  0 Multiplicity = 1

 SCF Done:  E(RB3LYP) =  -953.130104105     A.U. after   15 cycles
 SCF Done:  E(RB3LYP) =  -953.133540750     A.U. after   12 cycles
 SCF Done:  E(RB3LYP) =  -953.134486760     A.U. after   12 cycles
 SCF Done:  E(RB3LYP) =  -953.134684340     A.U. after   12 cycles
 SCF Done:  E(RB3LYP) =  -953.134746157     A.U. after   10 cycles
 SCF Done:  E(RB3LYP) =  -953.134767441     A.U. after   10 cycles
 SCF Done:  E(RB3LYP) =  -953.134780601     A.U. after   10 cycles
 SCF Done:  E(RB3LYP) =  -953.134796113     A.U. after   10 cycles
 SCF Done:  E(RB3LYP) =  -953.134808787     A.U. after   11 cycles
 SCF Done:  E(RB3LYP) =  -953.134822021     A.U. after   10 cycles
 SCF Done:  E(RB3LYP) =  -953.134832560     A.U. after   10 cycles
 SCF Done:  E(RB3LYP) =  -953.134840891     A.U. after   10 cycles
 SCF Done:  E(RB3LYP) =  -953.134846892     A.U. after   10 cycles
 SCF Done:  E(RB3LYP) =  -953.134847664     A.U. after    9 cycles
 SCF Done:  E(RB3LYP) =  -953.134847697     A.U. after    7 cycles
 Optimization completed.
    -- Stationary point found.
 Normal termination of Gaussian 16 at Wed Dec  9 18:02:38 2020.

 --------------------------------------------------------------------
 #N Geom=AllCheck Guess=TCheck SCRF=Check GenChk RB3LYP/6-31G(d) Freq
 --------------------------------------------------------------------

 Structure from the checkpoint file:  "JID_2685.chk"
 -------------------------------
 CID_115018620_JID_2685_neutraal
 -------------------------------
 Charge =  0 Multiplicity = 1

 SCF Done:  E(RB3LYP) =  -953.134847697     A.U. after    1 cycles

  Exact polarizability: 136.783  -4.097  95.900  -7.957  -1.907  83.383
 Approx polarizability: 172.512  -7.221 152.026 -10.992  -5.977 129.609

                      1                      2                      3
                      A                      A                      A
 Frequencies --     40.1821                47.7481                73.6047
 Red. masses --      3.9196                 5.8465                 3.6553
 Frc consts  --      0.0037                 0.0079                 0.0117
 IR Inten    --      1.5574                 4.2513                 1.7931

                      4                      5                      6
                      A                      A                      A
 Frequencies --     96.6963               163.6180               177.8831
 Red. masses --      3.4999                 1.5932                 4.0289
 Frc consts  --      0.0193                 0.0251                 0.0751
 IR Inten    --      2.1108                74.7835                 5.4050

                      7                      8                      9
                      A                      A                      A
 Frequencies --    203.6011               252.6923               259.7520
 Red. masses --      1.8733                 4.5054                 1.1985
 Frc consts  --      0.0458                 0.1695                 0.0476
 IR Inten    --     19.5621                13.0392                 5.9494

                     10                     11                     12
                      A                      A                      A
 Frequencies --    278.5398               311.1100               345.8852
 Red. masses --      2.5855                 2.6306                 2.0767
 Frc consts  --      0.1182                 0.1500                 0.1464
 IR Inten    --     11.4806                 5.4186                 6.1529

                     13                     14                     15
                      A                      A                      A
 Frequencies --    360.5035               411.1273               445.0038
 Red. masses --      2.7019                 4.3680                 2.9930
 Frc consts  --      0.2069                 0.4350                 0.3492
 IR Inten    --      3.2816                23.8775                 5.0903

                     16                     17                     18
                      A                      A                      A
 Frequencies --    458.4290               490.1288               561.9712
 Red. masses --      5.1624                 4.4964                 4.2922
 Frc consts  --      0.6392                 0.6364                 0.7986
 IR Inten    --      9.9631                47.9243                21.4638

                     19                     20                     21
                      A                      A                      A
 Frequencies --    598.8148               618.1209               690.0261
 Red. masses --      3.3543                 3.3772                 5.7237
 Frc consts  --      0.7087                 0.7602                 1.6057
 IR Inten    --      2.9355                14.5531                33.3021

                     22                     23                     24
                      A                      A                      A
 Frequencies --    778.4624               799.2491               853.7751
 Red. masses --      2.0499                 5.8041                 2.2285
 Frc consts  --      0.7319                 2.1845                 0.9571
 IR Inten    --     25.6979               142.0769                17.0091

                     25                     26                     27
                      A                      A                      A
 Frequencies --    873.4101               918.9146               938.0475
 Red. masses --      1.8291                 2.2544                 1.9441
 Frc consts  --      0.8221                 1.1216                 1.0079
 IR Inten    --      3.3390                 6.4692                 9.2634

                     28                     29                     30
                      A                      A                      A
 Frequencies --    993.8970              1019.1148              1058.2464
 Red. masses --      2.0581                 1.5597                 2.1141
 Frc consts  --      1.1978                 0.9544                 1.3949
 IR Inten    --      1.3628                 2.5606                 9.5235

                     31                     32                     33
                      A                      A                      A
 Frequencies --   1084.8670              1095.5387              1135.6013
 Red. masses --      2.1486                 1.8134                 2.8034
 Frc consts  --      1.4899                 1.2824                 2.1301
 IR Inten    --      3.4297                 3.9559                92.6745

                     34                     35                     36
                      A                      A                      A
 Frequencies --   1150.2979              1155.1167              1170.6638
 Red. masses --      1.5392                 1.4059                 1.9821
 Frc consts  --      1.1999                 1.1053                 1.6004
 IR Inten    --     13.9482                19.7323               193.9090

                     37                     38                     39
                      A                      A                      A
 Frequencies --   1194.9541              1199.6735              1230.0674
 Red. masses --      2.0601                 1.1834                 1.4013
 Frc consts  --      1.7331                 1.0035                 1.2492
 IR Inten    --     13.2645                 1.2294                 6.3745

                     40                     41                     42
                      A                      A                      A
 Frequencies --   1250.0434              1270.0987              1287.7760
 Red. masses --      1.8173                 1.6727                 1.4256
 Frc consts  --      1.6731                 1.5898                 1.3929
 IR Inten    --      5.2187                14.8738                11.4486

                     43                     44                     45
                      A                      A                      A
 Frequencies --   1302.0627              1323.6505              1365.7185
 Red. masses --      1.7307                 1.3312                 1.8059
 Frc consts  --      1.7287                 1.3742                 1.9846
 IR Inten    --     16.8694                 0.4730                19.3963

                     46                     47                     48
                      A                      A                      A
 Frequencies --   1375.2366              1388.1369              1415.5834
 Red. masses --      1.5950                 3.8235                 1.5480
 Frc consts  --      1.7774                 4.3409                 1.8276
 IR Inten    --     19.9145               188.9194                18.5981

                     49                     50                     51
                      A                      A                      A
 Frequencies --   1482.4280              1485.5775              1505.0257
 Red. masses --      1.1846                 1.1122                 1.0906
 Frc consts  --      1.5338                 1.4462                 1.4554
 IR Inten    --      0.8320                 9.3347                 1.8582

                     52                     53                     54
                      A                      A                      A
 Frequencies --   1516.3890              1524.5704              1531.7309
 Red. masses --      1.0552                 1.0786                 1.0523
 Frc consts  --      1.4296                 1.4771                 1.4546
 IR Inten    --     13.3516                 5.3648                 2.3419

                     55                     56                     57
                      A                      A                      A
 Frequencies --   1551.4632              1761.5321              2881.1232
 Red. masses --      1.1027                 8.3293                 1.0735
 Frc consts  --      1.5638                15.2279                 5.2504
 IR Inten    --      6.8112                12.2469                49.9334

                     58                     59                     60
                      A                      A                      A
 Frequencies --   2914.9628              2935.3698              3054.7713
 Red. masses --      1.0733                 1.0626                 1.0675
 Frc consts  --      5.3732                 5.3946                 5.8689
 IR Inten    --     55.7836               124.7208                11.1781

                     61                     62                     63
                      A                      A                      A
 Frequencies --   3077.4700              3081.1540              3092.1487
 Red. masses --      1.0851                 1.0708                 1.0609
 Frc consts  --      6.0552                 5.9894                 5.9764
 IR Inten    --     19.3940                50.4634                 5.2278

                     64                     65                     66
                      A                      A                      A
 Frequencies --   3098.4538              3123.1154              3124.5668
 Red. masses --      1.0880                 1.0972                 1.1043
 Frc consts  --      6.1544                 6.3051                 6.3522
 IR Inten    --     39.1135                 7.4910                26.4249

                     67                     68                     69
                      A                      A                      A
 Frequencies --   3155.9637              3188.3475              3710.9717
 Red. masses --      1.1044                 1.0905                 1.0657
 Frc consts  --      6.4807                 6.5312                 8.6473
 IR Inten    --      0.1638                 7.0248                66.2613

 - Thermochemistry -
 -------------------
 Temperature   298.150 Kelvin.  Pressure   1.00000 Atm.
 Atom     1 has atomic number  6 and mass  12.00000

 Molecular mass:   191.06162 amu.
 Principal axes and moments of inertia in atomic units:
                           1         2         3
     Eigenvalues --   810.976724954.923405127.21943
           X            0.99993  -0.00167  -0.01202
           Y            0.00159   0.99998  -0.00675
           Z            0.01203   0.00673   0.99991
 This molecule is an asymmetric top.
 Rotational symmetry number  1.
 Warning -- assumption of classical behavior for rotation
           may cause significant error
 Rotational temperatures (Kelvin)      0.10680     0.01748     0.01689
 Rotational constants (GHZ):           2.22539     0.36423     0.35199
 Zero-point vibrational energy     540178.4 (Joules/Mol)
                                  129.10574 (Kcal/Mol)
 Warning -- explicit consideration of  20 degrees of freedom as
           vibrations may cause significant error
 Vibrational temperatures:     57.81    68.70   105.90   139.12   235.41
          (Kelvin)            255.93   292.94   363.57   373.73   400.76
                              447.62   497.65   518.68   591.52   640.26
                              659.58   705.19   808.55   861.56   889.34
                              992.79  1120.03  1149.94  1228.39  1256.64
                             1322.11  1349.64  1430.00  1466.28  1522.58
                             1560.88  1576.24  1633.88  1655.02  1661.96
                             1684.32  1719.27  1726.06  1769.79  1798.53
                             1827.39  1852.82  1873.38  1904.44  1964.96
                             1978.66  1997.22  2036.71  2132.88  2137.41
                             2165.40  2181.75  2193.52  2203.82  2232.21
                             2534.45  4145.29  4193.98  4223.34  4395.13
                             4427.79  4433.09  4448.91  4457.98  4493.47
                             4495.55  4540.73  4587.32  5339.26

 Zero-point correction=                           0.205743 (Hartree/Particle)
 Thermal correction to Energy=                    0.218552
 Thermal correction to Enthalpy=                  0.219496
 Thermal correction to Gibbs Free Energy=         0.165696
 Sum of electronic and zero-point Energies=           -952.929105
 Sum of electronic and thermal Energies=              -952.916296
 Sum of electronic and thermal Enthalpies=            -952.915351
 Sum of electronic and thermal Free Energies=         -952.969151

                     E (Thermal)             CV                S
                      KCal/Mol        Cal/Mol-Kelvin    Cal/Mol-Kelvin
 Total                  137.144             47.166            113.231
 Electronic               0.000              0.000              0.000
 Translational            0.889              2.981             41.648
 Rotational               0.889              2.981             31.400
 Vibrational            135.366             41.204             40.184
 Vibration     1          0.594              1.981              5.250
 Vibration     2          0.595              1.978              4.909
 Vibration     3          0.599              1.966              4.055
 Vibration     4          0.603              1.952              3.520
 Vibration     5          0.623              1.887              2.508
 Vibration     6          0.628              1.870              2.351
 Vibration     7          0.639              1.835              2.100
 Vibration     8          0.664              1.758              1.712
 Vibration     9          0.668              1.746              1.663
 Vibration    10          0.679              1.713              1.543
 Vibration    11          0.700              1.653              1.356
 Vibration    12          0.724              1.584              1.185
 Vibration    13          0.735              1.554              1.120
 Vibration    14          0.775              1.446              0.923
 Vibration    15          0.804              1.372              0.811
 Vibration    16          0.816              1.342              0.771
 Vibration    17          0.846              1.272              0.683
 Vibration    18          0.918              1.114              0.520
 Vibration    19          0.957              1.034              0.452
 Vibration    20          0.978              0.994              0.420

 Optimization completed.
    -- Stationary point found.
 Normal termination of Gaussian 16 at Wed Dec  9 18:08:36 2020.

 ----------------------------------------------------------------------
 # B3LYP/6-311++G(d,p) empiricaldispersion=gd3bj scf=xqc pop=npa geom=c
 heck
 ----------------------------------------------------------------------

 ---------------------------------------
 CID_115018620_JID_2685_Energie_neutraal
 ---------------------------------------
 Structure from the checkpoint file:  "JID_2685.chk"
 Charge =  0 Multiplicity = 1

 SCF Done:  E(RB3LYP) =  -953.329538956     A.U. after   15 cycles
 Normal termination of Gaussian 16 at Wed Dec  9 18:11:54 2020.

 ----------------------------------------------------------------------
 # B3LYP/6-311++G(d,p) empiricaldispersion=gd3bj scf=xqc pop=npa geom=c
 heck
 ----------------------------------------------------------------------

 -------------------------------------
 CID_115018620_JID_2685_Energie_kation
 -------------------------------------
 Structure from the checkpoint file:  "JID_2685.chk"
 Charge =  1 Multiplicity = 2

 SCF Done:  E(UB3LYP) =  -953.016412841     A.U. after   24 cycles
 Normal termination of Gaussian 16 at Wed Dec  9 18:17:28 2020.
 Gaussian 16:  ES64L-G16RevA.03 25-Dec-2016

 ----------------------------------------------------------------------
 # B3LYP/6-311++G(d,p) empiricaldispersion=gd3bj scf=xqc pop=npa geom=c
 heck
 ----------------------------------------------------------------------

 ------------------------------------
 CID_115018620_JID_2685_Energie_anion
 ------------------------------------
 Structure from the checkpoint file:  "JID_2685.chk"
 Charge = -1 Multiplicity = 2

                         Standard orientation:
 ---------------------------------------------------------------------
 Center     Atomic      Atomic             Coordinates (Angstroms)
 Number     Number       Type             X           Y           Z
 ---------------------------------------------------------------------
      1          6           0       -4.509222   -0.275639    0.568480
      2          7           0       -3.291653   -0.055611   -0.183716
      3          6           0       -2.662047    1.242340    0.048663
      4          6           0       -1.292830    1.093330   -0.630534
      5          6           0       -0.990845   -0.385395   -0.459762
      6          6           0        0.158520   -1.015817   -0.717585
      7          6           0        1.390561   -0.324118   -1.203633
      8         16           0        2.567817   -0.008139    0.151144
      9          8           0        2.768470   -1.243251    0.908171
     10          8           0        3.679566    0.779474   -0.357534
     11          8           0        1.684143    1.010209    1.105380
     12          6           0       -2.247013   -1.044849    0.069963
     13          1           0       -4.348562   -0.247127    1.664912
     14          1           0       -4.932891   -1.252530    0.312117
     15          1           0       -5.246255    0.492115    0.310944
     16          1           0       -3.273026    2.048121   -0.370218
     17          1           0       -2.527385    1.447943    1.130423
     18          1           0       -0.526350    1.735786   -0.188947
     19          1           0       -1.368650    1.338610   -1.697410
     20          1           0        0.244194   -2.085377   -0.542795
     21          1           0        1.963475   -0.926707   -1.915648
     22          1           0        1.194928    0.653498   -1.649383
     23          1           0        1.241178    0.454377    1.772912
     24          1           0       -2.126994   -1.250541    1.156157
     25          1           0       -2.477336   -1.999251   -0.417054
 ---------------------------------------------------------------------

 SCF Done:  E(UB3LYP) =  -953.323840013     A.U. after   31 cycles

 The electronic state is 2-A.
 Alpha  occ. eigenvalues --  -88.97290 -19.07029 -19.02837 -19.02818 -14.20615
 Alpha  occ. eigenvalues --  -10.11821 -10.09454 -10.09136 -10.08961 -10.08502
 Alpha  occ. eigenvalues --  -10.07162 -10.07110  -8.03499  -5.99878  -5.99694
 Alpha  occ. eigenvalues --   -5.99485  -1.04799  -0.93883  -0.92261  -0.83995
 Alpha  occ. eigenvalues --   -0.72731  -0.67863  -0.63698  -0.59682  -0.55651
 Alpha  occ. eigenvalues --   -0.52982  -0.48374  -0.44983  -0.43578  -0.40549
 Alpha  occ. eigenvalues --   -0.40094  -0.39230  -0.38322  -0.35631  -0.34501
 Alpha  occ. eigenvalues --   -0.34040  -0.32701  -0.31702  -0.30591  -0.28062
 Alpha  occ. eigenvalues --   -0.27065  -0.26780  -0.26639  -0.25376  -0.24562
 Alpha  occ. eigenvalues --   -0.24124  -0.23001  -0.22546  -0.21724  -0.15152
 Alpha  occ. eigenvalues --   -0.12150   0.04126
 Alpha virt. eigenvalues --    0.06791   0.07286   0.07787   0.08252   0.09358
 Alpha virt. eigenvalues --    0.09715   0.10467   0.11121   0.11750   0.12242
 Alpha virt. eigenvalues --    0.12912   0.13553   0.13995   0.14644   0.14855

  Beta  occ. eigenvalues --  -88.97260 -19.06944 -19.02806 -19.02800 -14.20605
  Beta  occ. eigenvalues --  -10.11774 -10.09434 -10.09106 -10.08935 -10.08434
  Beta  occ. eigenvalues --  -10.07131 -10.07092  -8.03461  -5.99844  -5.99669
  Beta  occ. eigenvalues --   -5.99452  -1.04681  -0.93699  -0.92186  -0.83959
  Beta  occ. eigenvalues --   -0.72617  -0.67759  -0.63622  -0.59597  -0.55530
  Beta  occ. eigenvalues --   -0.52875  -0.48268  -0.44893  -0.43481  -0.40479
  Beta  occ. eigenvalues --   -0.40024  -0.39163  -0.38259  -0.35568  -0.34428
  Beta  occ. eigenvalues --   -0.33965  -0.32642  -0.31634  -0.30513  -0.27998
  Beta  occ. eigenvalues --   -0.26993  -0.26704  -0.26566  -0.25316  -0.24480
  Beta  occ. eigenvalues --   -0.24058  -0.22960  -0.22455  -0.21688  -0.14884
  Beta  occ. eigenvalues --   -0.12069
  Beta virt. eigenvalues --    0.06631   0.07461   0.08225   0.08516   0.08948
  Beta virt. eigenvalues --    0.09781   0.10113   0.10878   0.11434   0.11895
  Beta virt. eigenvalues --    0.12621   0.13068   0.13643   0.14232   0.14786

 Mulliken charges and spin densities:
               1          2
     1  C    0.434759  -0.746937
     2  N   -0.130181   0.293316
     3  C    1.077621  -1.543414
     4  C   -0.647881   0.169447
     5  C    1.095966  -0.058978
     6  C   -1.467926   0.935051
     7  C   -1.267208   0.223212
     8  S    1.080310  -0.679612
     9  O   -0.261795   0.010663
    10  O   -0.165914   0.003473
    11  O   -0.151105  -0.023085
    12  C    1.107057  -1.664919
    13  H   -0.175505   0.284383
    14  H   -0.204885   0.331181
    15  H   -0.158434   0.287537
    16  H   -0.156410   0.340896
    17  H   -0.201399   0.327989
    18  H    0.207768  -0.015476
    19  H   -0.257871   0.445413
    20  H   -0.272018   0.469763
    21  H   -0.146948   0.376427
    22  H    0.002720   0.250437
    23  H   -0.186618   0.466943
    24  H    0.057085   0.090090
    25  H   -0.211187   0.426199
 Sum of Mulliken charges =  -1.00000   1.00000

 Dipole moment (field-independent basis, Debye):
    X=              1.4306    Y=             -0.0827    Z=             -0.9323  Tot=              1.7096
 Quadrupole moment (field-independent basis, Debye-Ang):
   XX=           -155.7354   YY=           -112.3817   ZZ=           -111.5142
   XY=             -1.0774   XZ=             -3.7958   YZ=             -0.8927

 Summary of Natural Population Analysis:

                                       Natural Population
                Natural  -----------------------------------------------
    Atom  No    Charge         Core      Valence    Rydberg      Total
 -----------------------------------------------------------------------
      C    1   -0.17304      0.99965     2.16605    0.00733     3.17304
      N    2   -0.27833      0.99972     2.76421    0.01439     3.77833
      C    3   -0.07734      0.99963     2.06817    0.00954     3.07734
      C    4   -0.21637      0.99958     2.20912    0.00767     3.21637
      C    5    0.03379      0.99950     1.95423    0.01248     2.96621
      C    6   -0.12776      0.99943     2.11731    0.01102     3.12776
      C    7   -0.28855      0.99956     2.27742    0.01157     3.28855
      S    8    1.12174      4.99940     1.77808    0.10078     6.87826
      O    9   -0.46046      0.99990     3.45478    0.00578     4.46046
      O   10   -0.45287      0.99990     3.44712    0.00585     4.45287
      O   11   -0.43760      0.99991     3.43065    0.00704     4.43760
      C   12   -0.09418      0.99957     2.08453    0.01007     3.09418
      H   13    0.07909      0.00000     0.41859    0.00232     0.42091
      H   14    0.09489      0.00000     0.40352    0.00159     0.40511
      H   15    0.09484      0.00000     0.40355    0.00161     0.40516
      H   16    0.09685      0.00000     0.40104    0.00212     0.40315
      H   17    0.07937      0.00000     0.41801    0.00262     0.42063
      H   18    0.11287      0.00000     0.38574    0.00140     0.38713
      H   19    0.10964      0.00000     0.38799    0.00236     0.39036
      H   20    0.10267      0.00000     0.39572    0.00160     0.39733
      H   21    0.11734      0.00000     0.38147    0.00119     0.38266
      H   22    0.11831      0.00000     0.38039    0.00129     0.38169
      H   23    0.25284      0.00000     0.24030    0.00686     0.24716
      H   24    0.08766      0.00000     0.41013    0.00220     0.41234
      H   25    0.10460      0.00000     0.39240    0.00301     0.39540
 =======================================================================
   * Total *   -0.00000     15.99576    34.77053    0.23371    51.00000

 Normal termination of Gaussian 16 at Wed Dec  9 18:25:03 2020.
