 Gaussian 16, Revision A.03,

 -----------------------------------------------------------
 # opt freq B3LYP/6-31G(d) empiricaldispersion=gd3bj scf=xqc
 -----------------------------------------------------------

 --------------------------------
 CID_120996013_JID_10316_neutraal
 --------------------------------
 Symbolic Z-matrix:
 Charge =  0 Multiplicity = 1

 SCF Done:  E(RB3LYP) =  -1223.16846731     A.U. after   14 cycles
 SCF Done:  E(RB3LYP) =  -1223.16342035     A.U. after   13 cycles
 SCF Done:  E(RB3LYP) =  -1223.17554586     A.U. after   12 cycles
 SCF Done:  E(RB3LYP) =  -1223.17581699     A.U. after   11 cycles
 SCF Done:  E(RB3LYP) =  -1223.17628461     A.U. after   12 cycles
 SCF Done:  E(RB3LYP) =  -1223.17677778     A.U. after   13 cycles
 SCF Done:  E(RB3LYP) =  -1223.17696066     A.U. after   11 cycles
 SCF Done:  E(RB3LYP) =  -1223.17704135     A.U. after   12 cycles
 SCF Done:  E(RB3LYP) =  -1223.17709766     A.U. after   11 cycles
 SCF Done:  E(RB3LYP) =  -1223.17714547     A.U. after   12 cycles
 SCF Done:  E(RB3LYP) =  -1223.17748148     A.U. after    8 cycles
 SCF Done:  E(RB3LYP) =  -1223.17748228     A.U. after    8 cycles
 SCF Done:  E(RB3LYP) =  -1223.17748261     A.U. after    8 cycles
 SCF Done:  E(RB3LYP) =  -1223.17748261     A.U. after    7 cycles
 SCF Done:  E(RB3LYP) =  -1223.17748263     A.U. after    6 cycles
 Optimization completed.
    -- Stationary point found.
 Normal termination of Gaussian 16 at Sat Dec 12 15:46:35 2020.

 --------------------------------------------------------------------
 #N Geom=AllCheck Guess=TCheck SCRF=Check GenChk RB3LYP/6-31G(d) Freq
 --------------------------------------------------------------------

 Structure from the checkpoint file:  "JID_10316.chk"
 --------------------------------
 CID_120996013_JID_10316_neutraal
 --------------------------------
 Charge =  0 Multiplicity = 1

 SCF Done:  E(RB3LYP) =  -1223.17748263     A.U. after    1 cycles

  Exact polarizability: 193.968  -6.618 192.394 -10.568  -0.299 160.106
 Approx polarizability: 255.918 -14.374 297.108 -24.966 -12.597 285.827

                      1                      2                      3
                      A                      A                      A
 Frequencies --     26.5077                36.0330                55.9478
 Red. masses --      4.2146                 5.5722                 6.0505
 Frc consts  --      0.0017                 0.0043                 0.0112
 IR Inten    --      0.0411                 0.3713                 1.0762

                      4                      5                      6
                      A                      A                      A
 Frequencies --     60.4420                70.3409                92.6578
 Red. masses --      3.4648                 5.5286                 5.9515
 Frc consts  --      0.0075                 0.0161                 0.0301
 IR Inten    --      0.7433                 0.3364                 2.1075

                      7                      8                      9
                      A                      A                      A
 Frequencies --    119.7760               162.2466               185.0574
 Red. masses --      3.7959                 3.3331                 3.6786
 Frc consts  --      0.0321                 0.0517                 0.0742
 IR Inten    --      1.7459                 0.1961                 1.2072

                     10                     11                     12
                      A                      A                      A
 Frequencies --    194.3833               204.2685               225.6597
 Red. masses --      3.1020                 3.2608                 2.1287
 Frc consts  --      0.0691                 0.0802                 0.0639
 IR Inten    --      0.3189                 1.4371                 1.3550

                     13                     14                     15
                      A                      A                      A
 Frequencies --    243.1395               250.7538               263.1073
 Red. masses --      1.6233                 2.8292                 2.3586
 Frc consts  --      0.0565                 0.1048                 0.0962
 IR Inten    --      1.4022                 0.9451                 7.4163

                     16                     17                     18
                      A                      A                      A
 Frequencies --    267.2539               305.6208               339.4315
 Red. masses --      2.4229                 2.4563                 3.4874
 Frc consts  --      0.1020                 0.1352                 0.2367
 IR Inten    --      4.7223                 0.0947                 3.0002

                     19                     20                     21
                      A                      A                      A
 Frequencies --    359.1667               393.9939               425.9493
 Red. masses --      1.8888                 3.6192                 4.8893
 Frc consts  --      0.1436                 0.3310                 0.5227
 IR Inten    --      4.1617                 2.5081                 7.1067

                     22                     23                     24
                      A                      A                      A
 Frequencies --    446.0961               472.2746               475.3802
 Red. masses --      2.5399                 3.3788                 2.6021
 Frc consts  --      0.2978                 0.4440                 0.3465
 IR Inten    --      0.9783                 3.9277                 2.1000

                     25                     26                     27
                      A                      A                      A
 Frequencies --    495.1112               525.1696               576.3733
 Red. masses --      3.7275                 4.5374                 3.3499
 Frc consts  --      0.5384                 0.7373                 0.6557
 IR Inten    --      3.9973                 4.1346                 1.8910

                     28                     29                     30
                      A                      A                      A
 Frequencies --    600.7729               637.4826               650.4966
 Red. masses --      1.6817                 4.1306                 5.2650
 Frc consts  --      0.3576                 0.9890                 1.3126
 IR Inten    --      5.4739                11.1034                 1.0958

                     31                     32                     33
                      A                      A                      A
 Frequencies --    686.3184               698.1229               706.1074
 Red. masses --      2.7185                 2.6125                 1.4619
 Frc consts  --      0.7544                 0.7502                 0.4294
 IR Inten    --     14.8585                 9.3856                58.6512

                     34                     35                     36
                      A                      A                      A
 Frequencies --    752.0064               756.8907               776.0708
 Red. masses --      3.2714                 4.5168                 3.9382
 Frc consts  --      1.0900                 1.5246                 1.3975
 IR Inten    --      0.3468                 2.5509                 7.5988

                     37                     38                     39
                      A                      A                      A
 Frequencies --    809.0959               814.9525               838.1802
 Red. masses --      4.3810                 2.3844                 1.6200
 Frc consts  --      1.6897                 0.9330                 0.6706
 IR Inten    --      6.9381               122.7869                 0.0266

                     40                     41                     42
                      A                      A                      A
 Frequencies --    845.0711               849.2487               865.5162
 Red. masses --      1.4138                 2.1168                 4.0220
 Frc consts  --      0.5949                 0.8995                 1.7752
 IR Inten    --      8.9495                15.6020                10.2686

                     43                     44                     45
                      A                      A                      A
 Frequencies --    878.4896               896.9123               911.2888
 Red. masses --      1.7908                 2.4166                 1.3268
 Frc consts  --      0.8143                 1.1454                 0.6492
 IR Inten    --     48.0248                 5.6817                 1.0757

                     46                     47                     48
                      A                      A                      A
 Frequencies --    925.5915               939.7444               968.0535
 Red. masses --      2.0824                 2.1725                 1.8699
 Frc consts  --      1.0511                 1.1304                 1.0325
 IR Inten    --      2.4881                 4.5710                 7.9081

                     49                     50                     51
                      A                      A                      A
 Frequencies --   1003.0750              1014.5783              1017.6939
 Red. masses --      2.3281                 2.0170                 1.9508
 Frc consts  --      1.3801                 1.2233                 1.1904
 IR Inten    --      8.8455                10.2577                 4.9229

                     52                     53                     54
                      A                      A                      A
 Frequencies --   1036.4475              1045.8432              1062.2347
 Red. masses --      1.5708                 2.4158                 1.9724
 Frc consts  --      0.9942                 1.5568                 1.3112
 IR Inten    --     11.7520                13.8168                 1.7127

                     55                     56                     57
                      A                      A                      A
 Frequencies --   1067.7825              1083.7206              1102.1620
 Red. masses --      1.8664                 1.8243                 2.0693
 Frc consts  --      1.2538                 1.2623                 1.4810
 IR Inten    --      0.9911                 4.4597                 5.2666

                     58                     59                     60
                      A                      A                      A
 Frequencies --   1109.7537              1120.3220              1133.0228
 Red. masses --      1.7112                 1.2554                 2.0442
 Frc consts  --      1.2416                 0.9284                 1.5462
 IR Inten    --      3.3210                 4.3389                24.6114

                     61                     62                     63
                      A                      A                      A
 Frequencies --   1144.9202              1199.9560              1202.7700
 Red. masses --      4.1128                 1.6925                 2.0680
 Frc consts  --      3.1764                 1.4359                 1.7626
 IR Inten    --     24.6629                11.1338                13.0688

                     64                     65                     66
                      A                      A                      A
 Frequencies --   1204.4480              1217.1915              1221.6866
 Red. masses --      1.9718                 2.3082                 1.2088
 Frc consts  --      1.6854                 2.0149                 1.0630
 IR Inten    --     17.7533                 4.7033                 5.9791

                     67                     68                     69
                      A                      A                      A
 Frequencies --   1229.8763              1231.1581              1261.3568
 Red. masses --      1.3182                 3.7958                 1.3464
 Frc consts  --      1.1748                 3.3898                 1.2621
 IR Inten    --      1.9060                39.1509                38.7981

                     70                     71                     72
                      A                      A                      A
 Frequencies --   1264.2862              1294.6575              1308.2635
 Red. masses --      1.4291                 1.3049                 1.4939
 Frc consts  --      1.3458                 1.2886                 1.5065
 IR Inten    --      9.5638                 9.8323                11.7430

                     73                     74                     75
                      A                      A                      A
 Frequencies --   1314.3418              1340.4370              1349.9653
 Red. masses --      1.3576                 1.3255                 1.3556
 Frc consts  --      1.3818                 1.4032                 1.4556
 IR Inten    --     13.5765                 0.7595                13.9591

                     76                     77                     78
                      A                      A                      A
 Frequencies --   1353.1720              1368.4394              1379.9720
 Red. masses --      1.3003                 1.2732                 1.5352
 Frc consts  --      1.4029                 1.4048                 1.7224
 IR Inten    --      2.2064                 0.2130                 1.9625

                     79                     80                     81
                      A                      A                      A
 Frequencies --   1389.4476              1396.9618              1398.8527
 Red. masses --      1.3830                 1.2684                 1.5196
 Frc consts  --      1.5731                 1.4584                 1.7519
 IR Inten    --     10.0377                13.5203                 4.2359

                     82                     83                     84
                      A                      A                      A
 Frequencies --   1400.2936              1419.8048              1427.9507
 Red. masses --      2.1754                 1.2497                 1.8245
 Frc consts  --      2.5132                 1.4843                 2.1919
 IR Inten    --      2.1304                26.8096               113.1575

                     85                     86                     87
                      A                      A                      A
 Frequencies --   1429.3195              1444.7045              1450.4727
 Red. masses --      1.6781                 1.3304                 2.0314
 Frc consts  --      2.0198                 1.6361                 2.5181
 IR Inten    --     42.8180                33.6520               112.3920

                     88                     89                     90
                      A                      A                      A
 Frequencies --   1491.6831              1496.0557              1499.9134
 Red. masses --      1.1033                 5.6057                 1.1097
 Frc consts  --      1.4464                 7.3922                 1.4709
 IR Inten    --      5.1870                15.2072                 5.0401

                     91                     92                     93
                      A                      A                      A
 Frequencies --   1506.1548              1510.0956              1516.2597
 Red. masses --      1.0932                 1.1430                 1.1274
 Frc consts  --      1.4612                 1.5357                 1.5271
 IR Inten    --      0.3979                 2.6607                 2.8538

                     94                     95                     96
                      A                      A                      A
 Frequencies --   1520.4603              1528.6948              1532.3258
 Red. masses --      1.0978                 1.0573                 1.0531
 Frc consts  --      1.4953                 1.4558                 1.4568
 IR Inten    --     12.8229                 7.6589                 6.0535

                     97                     98                     99
                      A                      A                      A
 Frequencies --   1541.5519              1559.5894              1592.3678
 Red. masses --      1.0807                 1.0885                 5.2149
 Frc consts  --      1.5131                 1.5599                 7.7908
 IR Inten    --      6.3287                12.4791                 1.5261

                    100                    101                    102
                      A                      A                      A
 Frequencies --   1743.3112              2977.9403              2986.5203
 Red. masses --     10.3610                 1.0711                 1.0744
 Frc consts  --     18.5524                 5.5963                 5.6459
 IR Inten    --    307.5032                42.8536                85.1988

                    103                    104                    105
                      A                      A                      A
 Frequencies --   3040.8330              3048.9512              3056.5125
 Red. masses --      1.0598                 1.0729                 1.0609
 Frc consts  --      5.7739                 5.8762                 5.8396
 IR Inten    --     34.8328                27.0377                41.8337

                    106                    107                    108
                      A                      A                      A
 Frequencies --   3058.5515              3063.1078              3071.3200
 Red. masses --      1.0715                 1.0363                 1.0836
 Frc consts  --      5.9057                 5.7286                 6.0224
 IR Inten    --     21.0217                10.0285                 3.2948

                    109                    110                    111
                      A                      A                      A
 Frequencies --   3074.4762              3083.4990              3086.5740
 Red. masses --      1.0888                 1.0858                 1.1021
 Frc consts  --      6.0635                 6.0825                 6.1862
 IR Inten    --      4.6993               121.4898                55.3174

                    112                    113                    114
                      A                      A                      A
 Frequencies --   3087.8951              3098.4955              3123.4189
 Red. masses --      1.0630                 1.1043                 1.1034
 Frc consts  --      5.9721                 6.2467                 6.3423
 IR Inten    --     16.6263                50.1047                22.6669

                    115                    116                    117
                      A                      A                      A
 Frequencies --   3128.5456              3131.1893              3141.6583
 Red. masses --      1.0898                 1.1014                 1.0937
 Frc consts  --      6.2848                 6.3624                 6.3603
 IR Inten    --     17.6704                23.1697                 6.8933

                    118                    119                    120
                      A                      A                      A
 Frequencies --   3142.2953              3145.8514              3210.1949
 Red. masses --      1.1022                 1.0969                 1.0896
 Frc consts  --      6.4122                 6.3956                 6.6156
 IR Inten    --     25.0474                20.4086                 5.0067

                    121                    122                    123
                      A                      A                      A
 Frequencies --   3226.9008              3273.3255              3448.9355
 Red. masses --      1.0945                 1.0969                 1.0733
 Frc consts  --      6.7147                 6.9246                 7.5224
 IR Inten    --      6.0725                 0.8465                 5.2998

 - Thermochemistry -
 -------------------
 Temperature   298.150 Kelvin.  Pressure   1.00000 Atm.
 Atom     1 has atomic number  6 and mass  12.00000

 Molecular mass:   293.15618 amu.
 Principal axes and moments of inertia in atomic units:
                           1         2         3
     Eigenvalues --  3853.409297253.160269360.64035
           X            0.99986  -0.01659  -0.00097
           Y            0.01661   0.99949   0.02729
           Z            0.00051  -0.02730   0.99963
 This molecule is an asymmetric top.
 Rotational symmetry number  1.
 Warning -- assumption of classical behavior for rotation
           may cause significant error
 Rotational temperatures (Kelvin)      0.02248     0.01194     0.00925
 Rotational constants (GHZ):           0.46835     0.24882     0.19280
 Zero-point vibrational energy     982525.0 (Joules/Mol)
                                  234.82911 (Kcal/Mol)
 Warning -- explicit consideration of  28 degrees of freedom as
           vibrations may cause significant error
 Vibrational temperatures:     38.14    51.84    80.50    86.96   101.20
          (Kelvin)            133.31   172.33   233.44   266.26   279.67
                              293.90   324.67   349.82   360.78   378.55
                              384.52   439.72   488.37   516.76   566.87
                              612.85   641.83   679.50   683.97   712.35
                              755.60   829.27   864.38   917.20   935.92
                              987.46  1004.44  1015.93  1081.97  1089.00
                             1116.59  1164.11  1172.53  1205.95  1215.87
                             1221.88  1245.28  1263.95  1290.46  1311.14
                             1331.72  1352.08  1392.81  1443.20  1459.75
                             1464.23  1491.22  1504.74  1528.32  1536.30
                             1559.23  1585.77  1596.69  1611.89  1630.17
                             1647.28  1726.47  1730.52  1732.93  1751.27
                             1757.73  1769.52  1771.36  1814.81  1819.03
                             1862.72  1882.30  1891.04  1928.59  1942.30
                             1946.91  1968.88  1985.47  1999.11  2009.92
                             2012.64  2014.71  2042.78  2054.50  2056.47
                             2078.61  2086.91  2146.20  2152.49  2158.04
                             2167.02  2172.69  2181.56  2187.60  2199.45
                             2204.68  2217.95  2243.90  2291.06  2508.24
                             4284.59  4296.94  4375.08  4386.76  4397.64
                             4400.57  4407.13  4418.94  4423.49  4436.47
                             4440.89  4442.79  4458.04  4493.90  4501.28
                             4505.08  4520.15  4521.06  4526.18  4618.75
                             4642.79  4709.59  4962.25

 Zero-point correction=                           0.374224 (Hartree/Particle)
 Thermal correction to Energy=                    0.393005
 Thermal correction to Enthalpy=                  0.393949
 Thermal correction to Gibbs Free Energy=         0.326440
 Sum of electronic and zero-point Energies=          -1222.803259
 Sum of electronic and thermal Energies=             -1222.784478
 Sum of electronic and thermal Enthalpies=           -1222.783534
 Sum of electronic and thermal Free Energies=        -1222.851043

                     E (Thermal)             CV                S
                      KCal/Mol        Cal/Mol-Kelvin    Cal/Mol-Kelvin
 Total                  246.614             73.672            142.084
 Electronic               0.000              0.000              0.000
 Translational            0.889              2.981             42.924
 Rotational               0.889              2.981             33.925
 Vibrational            244.837             67.710             65.235
 Vibration     1          0.593              1.984              6.075
 Vibration     2          0.594              1.982              5.466
 Vibration     3          0.596              1.975              4.595
 Vibration     4          0.597              1.973              4.443
 Vibration     5          0.598              1.968              4.144
 Vibration     6          0.602              1.954              3.603
 Vibration     7          0.609              1.933              3.104
 Vibration     8          0.622              1.889              2.523
 Vibration     9          0.631              1.860              2.277
 Vibration    10          0.635              1.848              2.186
 Vibration    11          0.640              1.834              2.094
 Vibration    12          0.650              1.802              1.913
 Vibration    13          0.659              1.774              1.780
 Vibration    14          0.663              1.761              1.725
 Vibration    15          0.670              1.740              1.641
 Vibration    16          0.672              1.733              1.614
 Vibration    17          0.696              1.663              1.386
 Vibration    18          0.719              1.597              1.215
 Vibration    19          0.734              1.556              1.126
 Vibration    20          0.761              1.483              0.985
 Vibration    21          0.788              1.414              0.872
 Vibration    22          0.805              1.370              0.808
 Vibration    23          0.829              1.312              0.731
 Vibration    24          0.832              1.305              0.723
 Vibration    25          0.851              1.261              0.670
 Vibration    26          0.880              1.194              0.598
 Vibration    27          0.933              1.082              0.492
 Vibration    28          0.959              1.030              0.448

 Optimization completed.
    -- Stationary point found.
 Normal termination of Gaussian 16 at Sat Dec 12 16:19:07 2020.

 ----------------------------------------------------------------------
 # B3LYP/6-311++G(d,p) empiricaldispersion=gd3bj scf=xqc pop=npa geom=c
 heck
 ----------------------------------------------------------------------

 ----------------------------------------
 CID_120996013_JID_10316_Energie_neutraal
 ----------------------------------------
 Structure from the checkpoint file:  "JID_10316.chk"
 Charge =  0 Multiplicity = 1

 SCF Done:  E(RB3LYP) =  -1223.43086693     A.U. after   16 cycles
 Normal termination of Gaussian 16 at Sat Dec 12 16:35:03 2020.

 ----------------------------------------------------------------------
 # B3LYP/6-311++G(d,p) empiricaldispersion=gd3bj scf=xqc pop=npa geom=c
 heck
 ----------------------------------------------------------------------

 --------------------------------------
 CID_120996013_JID_10316_Energie_kation
 --------------------------------------
 Structure from the checkpoint file:  "JID_10316.chk"
 Charge =  1 Multiplicity = 2

 SCF Done:  E(UB3LYP) =  -1223.17043074     A.U. after   26 cycles
 Normal termination of Gaussian 16 at Sat Dec 12 17:12:21 2020.
 Gaussian 16:  ES64L-G16RevA.03 25-Dec-2016

 ----------------------------------------------------------------------
 # B3LYP/6-311++G(d,p) empiricaldispersion=gd3bj scf=xqc pop=npa geom=c
 heck
 ----------------------------------------------------------------------

 -------------------------------------
 CID_120996013_JID_10316_Energie_anion
 -------------------------------------
 Structure from the checkpoint file:  "JID_10316.chk"
 Charge = -1 Multiplicity = 2

                         Standard orientation:
 ---------------------------------------------------------------------
 Center     Atomic      Atomic             Coordinates (Angstroms)
 Number     Number       Type             X           Y           Z
 ---------------------------------------------------------------------
      1          6           0        3.463831   -1.507843   -0.891159
      2          6           0        2.729811   -0.994905    0.358134
      3          6           0        2.442677    0.486032    0.368759
      4          6           0        1.758122    1.180812    1.333867
      5          6           0        1.610694    2.570625    1.041206
      6          6           0        2.189620    2.924050   -0.146268
      7         16           0        2.931413    1.559439   -0.921391
      8          6           0        1.470044   -1.835070    0.657489
      9          8           0        1.499312   -2.669850    1.560139
     10          7           0        0.345416   -1.640547   -0.086486
     11          6           0        0.127190   -0.708597   -1.202161
     12          6           0       -1.281119   -1.063734   -1.695262
     13          6           0       -2.014566   -1.635533   -0.447746
     14          6           0       -0.873786   -2.378642    0.270176
     15          7           0       -2.713756   -0.718700    0.442907
     16          6           0       -1.976511    0.346192    1.121309
     17          6           0       -2.017889    1.696786    0.382534
     18          7           0       -3.377228    2.120586    0.025561
     19          6           0       -4.083259    1.055867   -0.697000
     20          6           0       -4.050855   -0.291356    0.045277
     21          1           0        2.894975   -1.338959   -1.810156
     22          1           0        3.645286   -2.582085   -0.794722
     23          1           0        4.431840   -1.007109   -0.998339
     24          1           0        3.368794   -1.216359    1.219529
     25          1           0        1.365744    0.702657    2.225549
     26          1           0        1.099374    3.274168    1.688932
     27          1           0        2.238777    3.901315   -0.606294
     28          1           0        0.878903   -0.837551   -1.985106
     29          1           0        0.187470    0.326982   -0.858831
     30          1           0       -1.793325   -0.209365   -2.141446
     31          1           0       -1.217755   -1.850600   -2.456491
     32          1           0       -2.770385   -2.357084   -0.773578
     33          1           0       -1.003451   -2.397062    1.353447
     34          1           0       -0.799421   -3.418590   -0.071854
     35          1           0       -2.435412    0.491437    2.113582
     36          1           0       -0.945007    0.028381    1.292100
     37          1           0       -1.435794    1.642374   -0.544787
     38          1           0       -1.555768    2.476621    0.999093
     39          1           0       -3.890459    2.319201    0.886014
     40          1           0       -3.614361    0.956260   -1.684535
     41          1           0       -5.120175    1.373297   -0.862722
     42          1           0       -4.513247   -1.082333   -0.557078
     43          1           0       -4.658746   -0.185304    0.960029
 ---------------------------------------------------------------------

 SCF Done:  E(UB3LYP) =  -1223.42172768     A.U. after   33 cycles
 SCF Done:  E(UB3LYP) =  -1223.42172768     a.u. after    1 cycles

 The electronic state is 2-A.
 Alpha  occ. eigenvalues --  -88.77632 -18.98497 -14.24073 -14.20378 -14.20324
 Alpha  occ. eigenvalues --  -10.16824 -10.10780 -10.10597 -10.10319 -10.10246
 Alpha  occ. eigenvalues --  -10.09862 -10.09693 -10.09515 -10.09434 -10.09412
 Alpha  occ. eigenvalues --  -10.09266 -10.08222 -10.08197 -10.07503 -10.07208
 Alpha  occ. eigenvalues --   -7.86261  -5.82544  -5.82178  -5.81876  -0.93781
 Alpha  occ. eigenvalues --   -0.85301  -0.83410  -0.79318  -0.78630  -0.71069
 Alpha  occ. eigenvalues --   -0.68152  -0.66463  -0.64439  -0.63918  -0.62176
 Alpha  occ. eigenvalues --   -0.58219  -0.55892  -0.54720  -0.53256  -0.50804
 Alpha  occ. eigenvalues --   -0.46907  -0.46384  -0.45774  -0.44924  -0.42377
 Alpha  occ. eigenvalues --   -0.41463  -0.39124  -0.37986  -0.36330  -0.35950
 Alpha  occ. eigenvalues --   -0.35515  -0.35158  -0.34963  -0.33971  -0.33564
 Alpha  occ. eigenvalues --   -0.32814  -0.31451  -0.30939  -0.30481  -0.30159
 Alpha  occ. eigenvalues --   -0.29226  -0.28888  -0.28132  -0.27802  -0.27097
 Alpha  occ. eigenvalues --   -0.26843  -0.25963  -0.25852  -0.25398  -0.25269
 Alpha  occ. eigenvalues --   -0.24459  -0.23863  -0.23487  -0.16142  -0.15940
 Alpha  occ. eigenvalues --   -0.15484  -0.14425  -0.13606  -0.09564   0.04164
 Alpha virt. eigenvalues --    0.05938   0.06281   0.06765   0.07526   0.07864
 Alpha virt. eigenvalues --    0.08533   0.08961   0.09588   0.09966   0.10232
 Alpha virt. eigenvalues --    0.10509   0.10680   0.11122   0.11667   0.11708

  Beta  occ. eigenvalues --  -88.77614 -18.98479 -14.24074 -14.20366 -14.20318
  Beta  occ. eigenvalues --  -10.16796 -10.10764 -10.10587 -10.10263 -10.10174
  Beta  occ. eigenvalues --  -10.09852 -10.09567 -10.09493 -10.09419 -10.09394
  Beta  occ. eigenvalues --  -10.09257 -10.08206 -10.08198 -10.07488 -10.07182
  Beta  occ. eigenvalues --   -7.86243  -5.82537  -5.82171  -5.81813  -0.93745
  Beta  occ. eigenvalues --   -0.85279  -0.83388  -0.79286  -0.78492  -0.70995
  Beta  occ. eigenvalues --   -0.68109  -0.66433  -0.64403  -0.63813  -0.62027
  Beta  occ. eigenvalues --   -0.58177  -0.55836  -0.54671  -0.53201  -0.50753
  Beta  occ. eigenvalues --   -0.46837  -0.46267  -0.45721  -0.44777  -0.42314
  Beta  occ. eigenvalues --   -0.41415  -0.39068  -0.37936  -0.36290  -0.35904
  Beta  occ. eigenvalues --   -0.35475  -0.35116  -0.34936  -0.33932  -0.33517
  Beta  occ. eigenvalues --   -0.32788  -0.31403  -0.30882  -0.30444  -0.30112
  Beta  occ. eigenvalues --   -0.29156  -0.28693  -0.28070  -0.27749  -0.27045
  Beta  occ. eigenvalues --   -0.26777  -0.25926  -0.25725  -0.25323  -0.25224
  Beta  occ. eigenvalues --   -0.24345  -0.23828  -0.23455  -0.15869  -0.15813
  Beta  occ. eigenvalues --   -0.15425  -0.14365  -0.13043  -0.09506
  Beta virt. eigenvalues --    0.06263   0.06842   0.06957   0.07277   0.07834
  Beta virt. eigenvalues --    0.08300   0.08833   0.09237   0.09703   0.10060
  Beta virt. eigenvalues --    0.10422   0.10743   0.10913   0.11316   0.11792

 Mulliken charges and spin densities:
               1          2
     1  C   -0.235039  -0.316968
     2  C   -0.082159  -0.073593
     3  C    0.022613   0.120610
     4  C   -0.077413   0.093033
     5  C   -0.123508  -0.072535
     6  C   -0.467915   0.085670
     7  S    0.266787  -0.058165
     8  C   -0.486232   0.112965
     9  O   -0.272818   0.010090
    10  N    0.228630  -0.013180
    11  C   -0.313275   0.320679
    12  C    1.171884  -1.910270
    13  C   -1.647544   1.405871
    14  C    0.712598  -1.111576
    15  N    0.298058  -0.074377
    16  C   -0.200803  -0.107916
    17  C   -0.109859  -0.538657
    18  N   -0.150509   0.132093
    19  C    0.429264  -0.803792
    20  C   -0.015272  -0.047791
    21  H   -0.096707   0.279993
    22  H    0.096694   0.066966
    23  H    0.118001   0.027897
    24  H    0.270485  -0.002619
    25  H    0.164949   0.010937
    26  H    0.073089   0.066512
    27  H    0.170690   0.044006
    28  H    0.021209   0.162886
    29  H   -0.078839   0.003211
    30  H    0.130728  -0.005764
    31  H   -0.558091   0.750191
    32  H   -0.540437   0.742694
    33  H    0.147723   0.081703
    34  H   -0.118258   0.313025
    35  H   -0.111955   0.298982
    36  H    0.387492  -0.255061
    37  H    0.154157   0.105337
    38  H    0.261286  -0.118882
    39  H    0.060587   0.168024
    40  H    0.087576   0.047894
    41  H   -0.272301   0.455550
    42  H   -0.259292   0.391250
    43  H   -0.056274   0.213078
 Sum of Mulliken charges =  -1.00000   1.00000

 Dipole moment (field-independent basis, Debye):
    X=              4.7234    Y=              4.1945    Z=              2.0917  Tot=              6.6543
 Quadrupole moment (field-independent basis, Debye-Ang):
   XX=           -200.5583   YY=           -182.2770   ZZ=           -169.0476
   XY=             -0.5163   XZ=             -7.6658   YZ=             -2.0703

 Summary of Natural Population Analysis:

                                       Natural Population
                Natural  -----------------------------------------------
    Atom  No    Charge         Core      Valence    Rydberg      Total
 -----------------------------------------------------------------------
      C    1   -0.28350      0.99965     2.27754    0.00631     3.28350
      C    2   -0.16185      0.99951     2.15101    0.01133     3.16185
      C    3   -0.07648      0.99947     2.06413    0.01288     3.07648
      C    4   -0.13509      0.99945     2.12603    0.00961     3.13509
      C    5   -0.12927      0.99954     2.11983    0.00991     3.12927
      C    6   -0.18220      0.99954     2.17136    0.01129     3.18220
      S    7    0.20667      4.99940     2.77382    0.02011     7.79333
      C    8    0.35746      0.99960     1.61878    0.02415     2.64254
      O    9   -0.32993      0.99988     3.32510    0.00495     4.32993
      N   10   -0.25935      0.99963     2.74879    0.01092     3.75935
      C   11   -0.08920      0.99961     2.07850    0.01110     3.08920
      C   12   -0.20340      0.99961     2.19483    0.00896     3.20340
      C   13   -0.00463      0.99956     1.98910    0.01596     3.00463
      C   14   -0.08649      0.99960     2.07495    0.01194     3.08649
      N   15   -0.28340      0.99971     2.76903    0.01466     3.78340
      C   16   -0.09804      0.99960     2.08720    0.01124     3.09804
      C   17   -0.09895      0.99962     2.08827    0.01105     3.09895
      N   18   -0.33627      0.99977     2.82409    0.01242     3.83627
      C   19   -0.09736      0.99962     2.08683    0.01091     3.09736
      C   20   -0.08976      0.99961     2.07836    0.01179     3.08976
      H   21    0.10245      0.00000     0.39656    0.00099     0.39755
      H   22    0.10514      0.00000     0.39416    0.00070     0.39486
      H   23    0.10024      0.00000     0.39892    0.00084     0.39976
      H   24    0.11824      0.00000     0.38040    0.00136     0.38176
      H   25    0.10825      0.00000     0.39085    0.00090     0.39175
      H   26    0.10428      0.00000     0.39466    0.00106     0.39572
      H   27    0.10597      0.00000     0.39319    0.00084     0.39403
      H   28    0.10090      0.00000     0.39743    0.00166     0.39910
      H   29    0.09922      0.00000     0.39806    0.00272     0.40078
      H   30    0.10375      0.00000     0.39494    0.00131     0.39625
      H   31    0.10457      0.00000     0.39271    0.00273     0.39543
      H   32    0.10422      0.00000     0.39397    0.00181     0.39578
      H   33    0.11032      0.00000     0.38848    0.00120     0.38968
      H   34    0.10113      0.00000     0.39770    0.00117     0.39887
      H   35    0.08764      0.00000     0.41099    0.00137     0.41236
      H   36    0.10469      0.00000     0.39378    0.00153     0.39531
      H   37    0.09005      0.00000     0.40810    0.00184     0.40995
      H   38    0.09503      0.00000     0.40394    0.00103     0.40497
      H   39    0.16652      0.00000     0.33121    0.00227     0.33348
      H   40    0.08817      0.00000     0.41032    0.00152     0.41183
      H   41    0.09387      0.00000     0.40500    0.00113     0.40613
      H   42    0.09945      0.00000     0.39892    0.00163     0.40055
      H   43    0.08695      0.00000     0.41160    0.00145     0.41305
 =======================================================================
   * Total *   -0.00000     23.99198    54.73346    0.27456    79.00000

 Normal termination of Gaussian 16 at Sat Dec 12 17:59:59 2020.
