 Gaussian 16, Revision A.03,

 -----------------------------------------------------------
 # opt freq B3LYP/6-31G(d) empiricaldispersion=gd3bj scf=xqc
 -----------------------------------------------------------

 ------------------------------
 CID_65677691_JID_7890_neutraal
 ------------------------------
 Symbolic Z-matrix:
 Charge =  0 Multiplicity = 1

 SCF Done:  E(RB3LYP) =  -792.035523709     A.U. after   15 cycles
 SCF Done:  E(RB3LYP) =  -792.041564347     A.U. after   13 cycles
 SCF Done:  E(RB3LYP) =  -792.042252111     A.U. after   14 cycles
 SCF Done:  E(RB3LYP) =  -792.044212427     A.U. after   13 cycles
 SCF Done:  E(RB3LYP) =  -792.044887780     A.U. after   12 cycles
 SCF Done:  E(RB3LYP) =  -792.045254361     A.U. after   12 cycles
 SCF Done:  E(RB3LYP) =  -792.045375448     A.U. after   12 cycles
 SCF Done:  E(RB3LYP) =  -792.045414494     A.U. after   12 cycles
 SCF Done:  E(RB3LYP) =  -792.045436263     A.U. after    9 cycles
 SCF Done:  E(RB3LYP) =  -792.045454703     A.U. after   10 cycles
 SCF Done:  E(RB3LYP) =  -792.045977111     A.U. after    9 cycles
 SCF Done:  E(RB3LYP) =  -792.045977630     A.U. after    8 cycles
 SCF Done:  E(RB3LYP) =  -792.045977779     A.U. after    7 cycles
 SCF Done:  E(RB3LYP) =  -792.045977880     A.U. after    7 cycles
 SCF Done:  E(RB3LYP) =  -792.045977888     A.U. after    7 cycles
 Optimization completed.
    -- Stationary point found.
 Normal termination of Gaussian 16 at Fri Dec 11 13:36:20 2020.

 --------------------------------------------------------------------
 #N Geom=AllCheck Guess=TCheck SCRF=Check GenChk RB3LYP/6-31G(d) Freq
 --------------------------------------------------------------------

 Structure from the checkpoint file:  "JID_7890.chk"
 ------------------------------
 CID_65677691_JID_7890_neutraal
 ------------------------------
 Charge =  0 Multiplicity = 1

 SCF Done:  E(RB3LYP) =  -792.045977888     A.U. after    1 cycles

  Exact polarizability: 203.550 -10.012 130.918  -3.660   5.523  96.996
 Approx polarizability: 282.140 -28.986 224.343  -5.535   6.942 158.711

                      1                      2                      3
                      A                      A                      A
 Frequencies --     23.5707                30.7563                55.1026
 Red. masses --      5.6141                 5.6400                 4.5520
 Frc consts  --      0.0018                 0.0031                 0.0081
 IR Inten    --      3.1585                 1.0423                 1.4936

                      4                      5                      6
                      A                      A                      A
 Frequencies --     73.1429                98.7031               134.1573
 Red. masses --      6.4046                 4.0712                 5.6037
 Frc consts  --      0.0202                 0.0234                 0.0594
 IR Inten    --      4.6112                 0.8257                 3.0917

                      7                      8                      9
                      A                      A                      A
 Frequencies --    157.6565               176.1324               191.8840
 Red. masses --      4.8608                 1.2831                 4.3676
 Frc consts  --      0.0712                 0.0235                 0.0947
 IR Inten    --      1.2237                15.9937                 9.7244

                     10                     11                     12
                      A                      A                      A
 Frequencies --    212.1458               236.9588               264.9132
 Red. masses --      6.1732                 3.6040                 3.6209
 Frc consts  --      0.1637                 0.1192                 0.1497
 IR Inten    --      5.5907                 2.3369                18.2118

                     13                     14                     15
                      A                      A                      A
 Frequencies --    304.5610               343.8265               399.4276
 Red. masses --      3.3397                 7.9730                 4.0870
 Frc consts  --      0.1825                 0.5553                 0.3842
 IR Inten    --      3.8478                 1.9035                 3.0895

                     16                     17                     18
                      A                      A                      A
 Frequencies --    436.9590               450.9125               499.3631
 Red. masses --      3.6977                 3.4179                 1.6002
 Frc consts  --      0.4160                 0.4094                 0.2351
 IR Inten    --      8.2422                28.6019               223.0719

                     19                     20                     21
                      A                      A                      A
 Frequencies --    527.5630               543.7225               607.4060
 Red. masses --      3.5849                 1.6828                 2.9294
 Frc consts  --      0.5879                 0.2931                 0.6368
 IR Inten    --     27.2481                37.6359                31.1109

                     22                     23                     24
                      A                      A                      A
 Frequencies --    633.8356               652.5883               682.1936
 Red. masses --      3.8194                 2.6310                 3.1914
 Frc consts  --      0.9041                 0.6602                 0.8751
 IR Inten    --     81.4802                22.3979                 7.9100

                     25                     26                     27
                      A                      A                      A
 Frequencies --    690.8882               722.0507               730.9098
 Red. masses --      2.9322                 1.9360                 4.3150
 Frc consts  --      0.8246                 0.5947                 1.3582
 IR Inten    --     27.5174                30.0025                 2.5030

                     28                     29                     30
                      A                      A                      A
 Frequencies --    757.0926               774.7085               780.2259
 Red. masses --      3.8261                 4.5444                 3.0176
 Frc consts  --      1.2921                 1.6070                 1.0823
 IR Inten    --      9.9940                11.7818                45.8666

                     31                     32                     33
                      A                      A                      A
 Frequencies --    794.2062               838.2184               847.9108
 Red. masses --      1.3835                 1.3184                 1.3709
 Frc consts  --      0.5142                 0.5458                 0.5807
 IR Inten    --     16.0259                12.7396                18.5158

                     34                     35                     36
                      A                      A                      A
 Frequencies --    888.1952               906.3289               941.2938
 Red. masses --      1.7603                 3.2421                 5.8968
 Frc consts  --      0.8182                 1.5691                 3.0783
 IR Inten    --     25.6713                67.6703                16.0204

                     37                     38                     39
                      A                      A                      A
 Frequencies --    974.5169               981.4348              1006.8334
 Red. masses --      1.5134                 1.7725                 5.6659
 Frc consts  --      0.8468                 1.0059                 3.3840
 IR Inten    --      5.2697                 1.9336                23.2041

                     40                     41                     42
                      A                      A                      A
 Frequencies --   1024.8116              1030.9806              1106.2284
 Red. masses --      3.3439                 2.5495                 2.4774
 Frc consts  --      2.0691                 1.5967                 1.7862
 IR Inten    --     13.9469                67.4027                 6.0410

                     43                     44                     45
                      A                      A                      A
 Frequencies --   1112.6168              1153.0244              1154.5545
 Red. masses --      1.5588                 2.1861                 1.7741
 Frc consts  --      1.1369                 1.7124                 1.3933
 IR Inten    --     26.0872                 7.8224                13.9289

                     46                     47                     48
                      A                      A                      A
 Frequencies --   1163.1573              1220.9436              1257.9801
 Red. masses --      1.6734                 2.2961                 1.5120
 Frc consts  --      1.3339                 2.0167                 1.4098
 IR Inten    --      6.1405                57.2712                69.9869

                     49                     50                     51
                      A                      A                      A
 Frequencies --   1271.0874              1288.9549              1305.9995
 Red. masses --      2.2631                 1.3967                 1.9921
 Frc consts  --      2.1543                 1.3672                 2.0019
 IR Inten    --      2.1592                16.7500                21.2836

                     52                     53                     54
                      A                      A                      A
 Frequencies --   1341.2980              1361.2904              1371.7540
 Red. masses --      3.0618                 1.6061                 1.6953
 Frc consts  --      3.2455                 1.7536                 1.8795
 IR Inten    --      8.3409                33.9577               133.5523

                     55                     56                     57
                      A                      A                      A
 Frequencies --   1381.4470              1388.2666              1403.5583
 Red. masses --      2.0006                 2.4494                 2.1585
 Frc consts  --      2.2495                 2.7813                 2.5053
 IR Inten    --     22.4599                96.1808                12.9257

                     58                     59                     60
                      A                      A                      A
 Frequencies --   1431.4842              1454.0318              1490.7848
 Red. masses --      1.9521                 2.9707                 1.6625
 Frc consts  --      2.3569                 3.7005                 2.1770
 IR Inten    --    159.1470                22.1331                79.4429

                     61                     62                     63
                      A                      A                      A
 Frequencies --   1512.8556              1521.3513              1524.8839
 Red. masses --      3.6951                 2.5660                 1.1037
 Frc consts  --      4.9828                 3.4992                 1.5120
 IR Inten    --     26.9742               225.5584                17.6005

                     64                     65                     66
                      A                      A                      A
 Frequencies --   1542.5275              1610.4805              1622.2908
 Red. masses --      2.0380                 6.5503                 4.6561
 Frc consts  --      2.8570                10.0097                 7.2199
 IR Inten    --     36.0523                86.3140                10.0067

                     67                     68                     69
                      A                      A                      A
 Frequencies --   1665.4482              1748.3760              1773.2746
 Red. masses --      5.7507                 1.0627                 8.3872
 Frc consts  --      9.3980                 1.9140                15.5389
 IR Inten    --    178.1319                26.6337               299.9225

                     70                     71                     72
                      A                      A                      A
 Frequencies --   3054.5754              3112.7512              3175.4561
 Red. masses --      1.0690                 1.0946                 1.0900
 Frc consts  --      5.8766                 6.2487                 6.4756
 IR Inten    --     28.2434                 6.9453                24.0812

                     73                     74                     75
                      A                      A                      A
 Frequencies --   3217.2293              3232.4689              3257.8193
 Red. masses --      1.0910                 1.0924                 1.0962
 Frc consts  --      6.6534                 6.7250                 6.8546
 IR Inten    --      2.9072                 3.4557                 8.2194

                     76                     77                     78
                      A                      A                      A
 Frequencies --   3270.3859              3428.2262              3504.8466
 Red. masses --      1.0976                 1.0493                 1.0920
 Frc consts  --      6.9166                 7.2659                 7.9037
 IR Inten    --      1.8634                 4.5664                 0.5342

                     79                     80                     81
                      A                      A                      A
 Frequencies --   3571.2816              3613.1474              3640.7447
 Red. masses --      1.0754                 1.0776                 1.0804
 Frc consts  --      8.0811                 8.2884                 8.4376
 IR Inten    --     27.5263                45.4978                48.0658

 - Thermochemistry -
 -------------------
 Temperature   298.150 Kelvin.  Pressure   1.00000 Atm.
 Atom     1 has atomic number  6 and mass  12.00000

 Molecular mass:   232.10726 amu.
 Principal axes and moments of inertia in atomic units:
                           1         2         3
     Eigenvalues --  1717.947618347.884979394.38822
           X            0.99999   0.00463  -0.00151
           Y           -0.00460   0.99979   0.01979
           Z            0.00160  -0.01979   0.99980
 This molecule is an asymmetric top.
 Rotational symmetry number  1.
 Warning -- assumption of classical behavior for rotation
           may cause significant error
 Rotational temperatures (Kelvin)      0.05042     0.01038     0.00922
 Rotational constants (GHZ):           1.05052     0.21619     0.19211
 Zero-point vibrational energy     608223.2 (Joules/Mol)
                                  145.36882 (Kcal/Mol)
 Warning -- explicit consideration of  21 degrees of freedom as
           vibrations may cause significant error
 Vibrational temperatures:     33.91    44.25    79.28   105.24   142.01
          (Kelvin)            193.02   226.83   253.42   276.08   305.23
                              340.93   381.15   438.20   494.69   574.69
                              628.69   648.76   718.47   759.05   782.30
                              873.92   911.95   938.93   981.52   994.03
                             1038.87  1051.62  1089.29  1114.63  1122.57
                             1142.69  1206.01  1219.95  1277.91  1304.01
                             1354.31  1402.11  1412.07  1448.61  1474.48
                             1483.35  1591.62  1600.81  1658.94  1661.15
                             1673.52  1756.67  1809.95  1828.81  1854.52
                             1879.04  1929.83  1958.59  1973.65  1987.59
                             1997.41  2019.41  2059.59  2092.03  2144.91
                             2176.66  2188.89  2193.97  2219.35  2317.12
                             2334.11  2396.21  2515.52  2551.35  4394.85
                             4478.55  4568.77  4628.88  4650.80  4687.28
                             4705.36  4932.45  5042.69  5138.28  5198.51
                             5238.22

 Zero-point correction=                           0.231660 (Hartree/Particle)
 Thermal correction to Energy=                    0.246804
 Thermal correction to Enthalpy=                  0.247748
 Thermal correction to Gibbs Free Energy=         0.187195
 Sum of electronic and zero-point Energies=           -791.814318
 Sum of electronic and thermal Energies=              -791.799174
 Sum of electronic and thermal Enthalpies=            -791.798230
 Sum of electronic and thermal Free Energies=         -791.858783

                     E (Thermal)             CV                S
                      KCal/Mol        Cal/Mol-Kelvin    Cal/Mol-Kelvin
 Total                  154.872             56.687            127.443
 Electronic               0.000              0.000              0.000
 Translational            0.889              2.981             42.228
 Rotational               0.889              2.981             33.265
 Vibrational            153.094             50.725             51.950
 Vibration     1          0.593              1.985              6.308
 Vibration     2          0.594              1.984              5.780
 Vibration     3          0.596              1.976              4.625
 Vibration     4          0.599              1.967              4.067
 Vibration     5          0.604              1.950              3.480
 Vibration     6          0.613              1.919              2.886
 Vibration     7          0.621              1.894              2.578
 Vibration     8          0.628              1.872              2.369
 Vibration     9          0.634              1.851              2.210
 Vibration    10          0.643              1.822              2.025
 Vibration    11          0.656              1.784              1.826
 Vibration    12          0.671              1.737              1.629
 Vibration    13          0.695              1.665              1.392
 Vibration    14          0.723              1.588              1.194
 Vibration    15          0.765              1.471              0.965
 Vibration    16          0.797              1.390              0.836
 Vibration    17          0.810              1.359              0.793
 Vibration    18          0.855              1.251              0.660
 Vibration    19          0.883              1.189              0.593
 Vibration    20          0.899              1.153              0.557
 Vibration    21          0.966              1.016              0.437

 Optimization completed.
    -- Stationary point found.
 Normal termination of Gaussian 16 at Fri Dec 11 13:44:58 2020.

 ----------------------------------------------------------------------
 # B3LYP/6-311++G(d,p) empiricaldispersion=gd3bj scf=xqc pop=npa geom=c
 heck
 ----------------------------------------------------------------------

 --------------------------------------
 CID_65677691_JID_7890_Energie_neutraal
 --------------------------------------
 Structure from the checkpoint file:  "JID_7890.chk"
 Charge =  0 Multiplicity = 1

 SCF Done:  E(RB3LYP) =  -792.277355430     A.U. after   16 cycles
 Normal termination of Gaussian 16 at Fri Dec 11 13:48:33 2020.

 ----------------------------------------------------------------------
 # B3LYP/6-311++G(d,p) empiricaldispersion=gd3bj scf=xqc pop=npa geom=c
 heck
 ----------------------------------------------------------------------

 ------------------------------------
 CID_65677691_JID_7890_Energie_kation
 ------------------------------------
 Structure from the checkpoint file:  "JID_7890.chk"
 Charge =  1 Multiplicity = 2

 SCF Done:  E(UB3LYP) =  -791.985104672     A.U. after   25 cycles
 Normal termination of Gaussian 16 at Fri Dec 11 13:56:16 2020.
 Gaussian 16:  ES64L-G16RevA.03 25-Dec-2016

 ----------------------------------------------------------------------
 # B3LYP/6-311++G(d,p) empiricaldispersion=gd3bj scf=xqc pop=npa geom=c
 heck
 ----------------------------------------------------------------------

 -----------------------------------
 CID_65677691_JID_7890_Energie_anion
 -----------------------------------
 Structure from the checkpoint file:  "JID_7890.chk"
 Charge = -1 Multiplicity = 2

                         Standard orientation:
 ---------------------------------------------------------------------
 Center     Atomic      Atomic             Coordinates (Angstroms)
 Number     Number       Type             X           Y           Z
 ---------------------------------------------------------------------
      1          6           0       -0.526019   -0.704218   -0.497301
      2          6           0       -1.501185   -1.692754   -0.492018
      3          7           0       -2.797290   -1.476095   -0.231102
      4          6           0       -3.175219   -0.212791    0.015758
      5          6           0       -2.268706    0.868576    0.026386
      6          6           0       -0.928511    0.615930   -0.217459
      7          6           0       -0.004730    1.803602   -0.249269
      8          8           0       -0.390053    2.885578   -0.674531
      9          7           0        1.299896    1.634029    0.162346
     10          6           0        1.817804    0.648165    1.111420
     11          6           0        3.004548   -0.082668    0.561630
     12          6           0        4.089875   -0.692082    1.145201
     13          7           0        4.892023   -1.287793    0.193541
     14          6           0        4.306680   -1.039384   -0.957989
     15          7           0        3.152443   -0.323153   -0.792369
     16          7           0       -4.517857    0.007881    0.240757
     17          7           0       -5.405515   -1.061515    0.485336
     18          1           0        0.501983   -0.956718   -0.727467
     19          1           0       -1.231647   -2.725213   -0.706601
     20          1           0       -2.603099    1.885631    0.201904
     21          1           0        1.821952    2.501421    0.094642
     22          1           0        2.098661    1.141683    2.050040
     23          1           0        1.003837   -0.040126    1.353659
     24          1           0        4.336888   -0.740632    2.197421
     25          1           0        4.665766   -1.341352   -1.932377
     26          1           0        2.564241    0.075156   -1.511088
     27          1           0       -4.765620    0.846151    0.747583
     28          1           0       -5.645722   -1.460845   -0.422206
     29          1           0       -4.879934   -1.797506    0.963031
 ---------------------------------------------------------------------

 SCF Done:  E(UB3LYP) =  -792.288266331     A.U. after   33 cycles
 SCF Done:  E(UB3LYP) =  -792.288266331     a.u. after    1 cycles

 The electronic state is 2-A.
 Alpha  occ. eigenvalues --  -18.94049 -14.27370 -14.22423 -14.22001 -14.21056
 Alpha  occ. eigenvalues --  -14.20505 -14.14869 -10.13379 -10.11904 -10.11690
 Alpha  occ. eigenvalues --  -10.11266 -10.09959 -10.09000 -10.05902 -10.03119
 Alpha  occ. eigenvalues --  -10.02995 -10.01805  -0.92464  -0.89731  -0.87702
 Alpha  occ. eigenvalues --   -0.80312  -0.79109  -0.77678  -0.68538  -0.67299
 Alpha  occ. eigenvalues --   -0.66105  -0.59437  -0.59245  -0.52291  -0.51666
 Alpha  occ. eigenvalues --   -0.50067  -0.49698  -0.45263  -0.45059  -0.41151
 Alpha  occ. eigenvalues --   -0.38942  -0.38801  -0.38001  -0.35444  -0.35317
 Alpha  occ. eigenvalues --   -0.34398  -0.33585  -0.32911  -0.32188  -0.31120
 Alpha  occ. eigenvalues --   -0.29768  -0.28985  -0.27578  -0.26504  -0.25455
 Alpha  occ. eigenvalues --   -0.23302  -0.19588  -0.18799  -0.18462  -0.16808
 Alpha  occ. eigenvalues --   -0.15108  -0.14380  -0.13435  -0.12715  -0.11520
 Alpha  occ. eigenvalues --   -0.08687   0.04439
 Alpha virt. eigenvalues --    0.06798   0.07696   0.08581   0.09285   0.10030
 Alpha virt. eigenvalues --    0.10134   0.10390   0.10733   0.11580   0.12015
 Alpha virt. eigenvalues --    0.12506   0.12779   0.13637   0.13782   0.14460

  Beta  occ. eigenvalues --  -18.93768 -14.27349 -14.22405 -14.21999 -14.21014
  Beta  occ. eigenvalues --  -14.20507 -14.14482 -10.13372 -10.11685 -10.11680
  Beta  occ. eigenvalues --  -10.11270 -10.09993 -10.08992 -10.05834 -10.03124
  Beta  occ. eigenvalues --  -10.02687 -10.01566  -0.92446  -0.89238  -0.87637
  Beta  occ. eigenvalues --   -0.80137  -0.78655  -0.77624  -0.68425  -0.67220
  Beta  occ. eigenvalues --   -0.65497  -0.59229  -0.59068  -0.52215  -0.50990
  Beta  occ. eigenvalues --   -0.50049  -0.49557  -0.45111  -0.44915  -0.40962
  Beta  occ. eigenvalues --   -0.38881  -0.38740  -0.37871  -0.35376  -0.35175
  Beta  occ. eigenvalues --   -0.34268  -0.33426  -0.32758  -0.32174  -0.30889
  Beta  occ. eigenvalues --   -0.29608  -0.28718  -0.26557  -0.26007  -0.24566
  Beta  occ. eigenvalues --   -0.23071  -0.19542  -0.18758  -0.18085  -0.16688
  Beta  occ. eigenvalues --   -0.14228  -0.13434  -0.12868  -0.12141  -0.10849
  Beta  occ. eigenvalues --   -0.07751
  Beta virt. eigenvalues --    0.06869   0.07759   0.08548   0.09248   0.09877
  Beta virt. eigenvalues --    0.10109   0.10357   0.10669   0.10769   0.11614
  Beta virt. eigenvalues --    0.12039   0.12455   0.13039   0.13565   0.13734

 Mulliken charges and spin densities:
               1          2
     1  C   -0.407563   0.184766
     2  C   -0.479177  -0.029904
     3  N   -0.240636   0.174581
     4  C   -0.828009  -0.033632
     5  C    0.849355   0.168095
     6  C    0.321921   0.165460
     7  C   -0.289738   0.039047
     8  O   -0.399168   0.101505
     9  N   -0.242491   0.094097
    10  C   -0.532690  -0.522921
    11  C    0.509557   0.261007
    12  C   -0.498543  -0.087523
    13  N   -0.150333  -0.002637
    14  C    0.104215  -0.054589
    15  N   -0.113091  -0.000202
    16  N   -0.117146   0.006097
    17  N   -0.340557  -0.005592
    18  H    0.052266   0.033130
    19  H    0.123862   0.006359
    20  H    0.193029  -0.014855
    21  H    0.236202   0.056187
    22  H    0.068358   0.111826
    23  H    0.217351  -0.013487
    24  H    0.071201   0.047499
    25  H   -0.034762   0.183803
    26  H    0.203275   0.131253
    27  H    0.250745   0.002582
    28  H    0.244622  -0.000341
    29  H    0.227947  -0.001611
 Sum of Mulliken charges =  -1.00000   1.00000

 Dipole moment (field-independent basis, Debye):
    X=              1.9395    Y=             -0.9856    Z=              1.6006  Tot=              2.7009
 Quadrupole moment (field-independent basis, Debye-Ang):
   XX=           -170.4764   YY=           -129.3812   ZZ=           -106.7511
   XY=              7.0376   XZ=             -3.3549   YZ=              6.9598

 Summary of Natural Population Analysis:

                                       Natural Population
                Natural  -----------------------------------------------
    Atom  No    Charge         Core      Valence    Rydberg      Total
 -----------------------------------------------------------------------
      C    1   -0.15466      0.99953     2.14290    0.01223     3.15466
      C    2    0.03556      0.99960     1.95053    0.01430     2.96444
      N    3   -0.23133      0.99967     2.71980    0.01186     3.73133
      C    4    0.18293      0.99954     1.80364    0.01388     2.81707
      C    5   -0.07852      0.99948     2.07185    0.00719     3.07852
      C    6    0.00095      0.99947     1.98714    0.01244     2.99905
      C    7    0.36494      0.99962     1.61073    0.02471     2.63506
      O    8   -0.30049      0.99988     3.29527    0.00535     4.30049
      N    9   -0.33013      0.99967     2.82106    0.00940     3.83013
      C   10   -0.10457      0.99958     2.09544    0.00955     3.10457
      C   11    0.05270      0.99953     1.93498    0.01278     2.94730
      C   12   -0.04061      0.99952     2.02816    0.01294     3.04061
      N   13   -0.25944      0.99973     2.74737    0.01234     3.75944
      C   14    0.09504      0.99968     1.88808    0.01720     2.90496
      N   15   -0.27159      0.99966     2.76307    0.00886     3.77159
      N   16   -0.23223      0.99966     2.71832    0.01425     3.73223
      N   17   -0.32469      0.99978     2.81343    0.01147     3.82469
      H   18    0.09391      0.00000     0.40419    0.00190     0.40609
      H   19    0.07889      0.00000     0.41958    0.00153     0.42111
      H   20    0.10160      0.00000     0.39731    0.00109     0.39840
      H   21    0.18636      0.00000     0.31068    0.00296     0.31364
      H   22    0.09635      0.00000     0.40242    0.00123     0.40365
      H   23    0.11981      0.00000     0.37897    0.00122     0.38019
      H   24    0.09572      0.00000     0.40318    0.00110     0.40428
      H   25    0.09092      0.00000     0.40781    0.00127     0.40908
      H   26    0.21267      0.00000     0.28509    0.00224     0.28733
      H   27    0.17822      0.00000     0.31952    0.00226     0.32178
      H   28    0.16883      0.00000     0.32915    0.00202     0.33117
      H   29    0.17285      0.00000     0.32454    0.00262     0.32715
 =======================================================================
   * Total *    0.00000     16.99360    43.77421    0.23219    61.00000

 Normal termination of Gaussian 16 at Fri Dec 11 14:06:34 2020.
