 Gaussian 16, Revision A.03,

 -----------------------------------------------------------
 # opt freq B3LYP/6-31G(d) empiricaldispersion=gd3bj scf=xqc
 -----------------------------------------------------------

 ------------------------------
 CID_84092932_JID_9731_neutraal
 ------------------------------
 Symbolic Z-matrix:
 Charge =  0 Multiplicity = 1

 SCF Done:  E(RB3LYP) =  -771.842798020     A.U. after   15 cycles
 SCF Done:  E(RB3LYP) =  -771.870808164     A.U. after   13 cycles
 SCF Done:  E(RB3LYP) =  -771.872460980     A.U. after   12 cycles
 SCF Done:  E(RB3LYP) =  -771.872712668     A.U. after   12 cycles
 SCF Done:  E(RB3LYP) =  -771.872843268     A.U. after   12 cycles
 SCF Done:  E(RB3LYP) =  -771.872931642     A.U. after   10 cycles
 SCF Done:  E(RB3LYP) =  -771.873005299     A.U. after   12 cycles
 SCF Done:  E(RB3LYP) =  -771.873035398     A.U. after    9 cycles
 SCF Done:  E(RB3LYP) =  -771.873045248     A.U. after    9 cycles
 SCF Done:  E(RB3LYP) =  -771.873047100     A.U. after    9 cycles
 SCF Done:  E(RB3LYP) =  -771.873048172     A.U. after    8 cycles
 SCF Done:  E(RB3LYP) =  -771.873048575     A.U. after    7 cycles
 SCF Done:  E(RB3LYP) =  -771.873048583     A.U. after    7 cycles
 SCF Done:  E(RB3LYP) =  -771.873048598     A.U. after    6 cycles
 Optimization completed.
    -- Stationary point found.
 Normal termination of Gaussian 16 at Mon Dec 14 13:35:25 2020.

 --------------------------------------------------------------------
 #N Geom=AllCheck Guess=TCheck SCRF=Check GenChk RB3LYP/6-31G(d) Freq
 --------------------------------------------------------------------

 Structure from the checkpoint file:  "JID_9731.chk"
 ------------------------------
 CID_84092932_JID_9731_neutraal
 ------------------------------
 Charge =  0 Multiplicity = 1

 SCF Done:  E(RB3LYP) =  -771.873048598     A.U. after    1 cycles

  Exact polarizability: 210.471   4.428 184.081  -7.164  -3.885 140.281
 Approx polarizability: 265.529   9.329 300.535 -14.663 -12.048 221.338

                      1                      2                      3
                      A                      A                      A
 Frequencies --     31.6629                36.0418                66.0179
 Red. masses --      4.0410                 4.6734                 4.1166
 Frc consts  --      0.0024                 0.0036                 0.0106
 IR Inten    --      1.4640                 2.1742                 0.9061

                      4                      5                      6
                      A                      A                      A
 Frequencies --     99.8192               125.1283               136.8435
 Red. masses --      3.0796                 6.4338                 2.7160
 Frc consts  --      0.0181                 0.0594                 0.0300
 IR Inten    --      2.4256                 7.7388                 0.0403

                      7                      8                      9
                      A                      A                      A
 Frequencies --    183.3495               236.3612               246.2654
 Red. masses --      4.1544                 3.8450                 3.2497
 Frc consts  --      0.0823                 0.1266                 0.1161
 IR Inten    --      0.3132                 0.1731                 0.2896

                     10                     11                     12
                      A                      A                      A
 Frequencies --    307.8246               322.4142               333.1022
 Red. masses --      2.0391                 2.0343                 2.4567
 Frc consts  --      0.1138                 0.1246                 0.1606
 IR Inten    --      0.5357                 0.2075                 0.9283

                     13                     14                     15
                      A                      A                      A
 Frequencies --    356.7320               378.1019               403.2925
 Red. masses --      3.0637                 2.4470                 2.9967
 Frc consts  --      0.2297                 0.2061                 0.2872
 IR Inten    --      0.3259                 2.9655                 1.3615

                     16                     17                     18
                      A                      A                      A
 Frequencies --    425.4837               447.6899               452.4848
 Red. masses --      3.7918                 2.4725                 2.2464
 Frc consts  --      0.4044                 0.2920                 0.2710
 IR Inten    --      0.0650                 0.4751                 0.7133

                     19                     20                     21
                      A                      A                      A
 Frequencies --    460.7138               487.6715               504.1811
 Red. masses --      1.9804                 3.8059                 3.2573
 Frc consts  --      0.2477                 0.5333                 0.4879
 IR Inten    --      0.6573                 8.1385                 0.0869

                     22                     23                     24
                      A                      A                      A
 Frequencies --    542.5935               572.9469               601.6473
 Red. masses --      4.1836                 4.4299                 2.8598
 Frc consts  --      0.7257                 0.8568                 0.6099
 IR Inten    --     17.1566                 2.5878                 5.4370

                     25                     26                     27
                      A                      A                      A
 Frequencies --    619.0137               647.8905               658.6890
 Red. masses --      3.3263                 3.5201                 3.5534
 Frc consts  --      0.7510                 0.8706                 0.9084
 IR Inten    --      3.6435                 0.3945                 2.7981

                     28                     29                     30
                      A                      A                      A
 Frequencies --    685.0150               694.2670               725.0054
 Red. masses --      2.9676                 2.1790                 3.3301
 Frc consts  --      0.8205                 0.6188                 1.0313
 IR Inten    --      4.0846                54.5935                 4.1524

                     31                     32                     33
                      A                      A                      A
 Frequencies --    778.3971               808.6845               826.2700
 Red. masses --      3.7698                 2.8180                 2.7109
 Frc consts  --      1.3458                 1.0858                 1.0905
 IR Inten    --      3.9644                 1.6687                 8.5534

                     34                     35                     36
                      A                      A                      A
 Frequencies --    835.8224               845.6097               881.4370
 Red. masses --      2.6134                 1.4564                 2.5811
 Frc consts  --      1.0757                 0.6136                 1.1815
 IR Inten    --      0.2384                 3.5117                 1.2747

                     37                     38                     39
                      A                      A                      A
 Frequencies --    900.2522               903.3647               906.6068
 Red. masses --      1.7762                 1.8319                 1.7680
 Frc consts  --      0.8481                 0.8808                 0.8562
 IR Inten    --      0.3546                 0.5422                 0.9118

                     40                     41                     42
                      A                      A                      A
 Frequencies --    919.4298               926.3160               932.8011
 Red. masses --      2.0527                 2.1100                 1.4744
 Frc consts  --      1.0224                 1.0667                 0.7559
 IR Inten    --      1.6167                 0.2332                 0.2435

                     43                     44                     45
                      A                      A                      A
 Frequencies --    961.6008               981.3712               988.4591
 Red. masses --      2.0041                 2.1436                 2.3378
 Frc consts  --      1.0918                 1.2164                 1.3458
 IR Inten    --      0.9543                 1.9270                 2.4058

                     46                     47                     48
                      A                      A                      A
 Frequencies --   1001.1770              1046.9273              1054.9039
 Red. masses --      2.0175                 3.6463                 1.9362
 Frc consts  --      1.1914                 2.3547                 1.2695
 IR Inten    --      3.6944                 0.8697                 0.5220

                     49                     50                     51
                      A                      A                      A
 Frequencies --   1060.2725              1081.3414              1084.0300
 Red. masses --      1.9990                 2.3419                 1.7813
 Frc consts  --      1.3241                 1.6134                 1.2333
 IR Inten    --      0.2479                 1.3936                 2.1252

                     52                     53                     54
                      A                      A                      A
 Frequencies --   1091.0242              1106.1834              1114.8393
 Red. masses --      2.0449                 2.2293                 1.8342
 Frc consts  --      1.4341                 1.6072                 1.3431
 IR Inten    --      5.5034                 2.5861                 2.2258

                     55                     56                     57
                      A                      A                      A
 Frequencies --   1128.1380              1130.4967              1142.3670
 Red. masses --      1.6756                 1.6084                 1.0208
 Frc consts  --      1.2565                 1.2111                 0.7849
 IR Inten    --      5.5008                 3.5934                 0.1655

                     58                     59                     60
                      A                      A                      A
 Frequencies --   1146.1015              1150.8732              1162.1756
 Red. masses --      1.0376                 1.1081                 2.5014
 Frc consts  --      0.8030                 0.8648                 1.9906
 IR Inten    --      0.0191                 1.1871                 3.6170

                     61                     62                     63
                      A                      A                      A
 Frequencies --   1176.5431              1203.5658              1212.5978
 Red. masses --      1.1958                 1.5532                 1.2901
 Frc consts  --      0.9753                 1.3257                 1.1176
 IR Inten    --      1.7816                43.9354                 1.4714

                     64                     65                     66
                      A                      A                      A
 Frequencies --   1231.8098              1254.6247              1286.4436
 Red. masses --      2.4020                 1.0556                 1.2888
 Frc consts  --      2.1474                 0.9790                 1.2567
 IR Inten    --     35.7138                10.0425                20.8995

                     67                     68                     69
                      A                      A                      A
 Frequencies --   1289.8592              1302.3879              1312.4527
 Red. masses --      1.5085                 1.3740                 1.4316
 Frc consts  --      1.4787                 1.3732                 1.4529
 IR Inten    --      2.1334                26.4520                 0.3360

                     70                     71                     72
                      A                      A                      A
 Frequencies --   1329.8327              1341.5775              1346.0434
 Red. masses --      1.6811                 1.7639                 1.5731
 Frc consts  --      1.7516                 1.8705                 1.6793
 IR Inten    --      0.2794                 5.3711                25.0241

                     73                     74                     75
                      A                      A                      A
 Frequencies --   1352.5007              1358.6033              1363.3074
 Red. masses --      1.8797                 2.0044                 1.4239
 Frc consts  --      2.0259                 2.1798                 1.5593
 IR Inten    --      3.7224                 0.6744                 0.0929

                     76                     77                     78
                      A                      A                      A
 Frequencies --   1369.1794              1371.7487              1385.6581
 Red. masses --      1.3176                 1.3240                 1.5170
 Frc consts  --      1.4553                 1.4678                 1.7161
 IR Inten    --      0.2108                 0.0648                 5.6202

                     79                     80                     81
                      A                      A                      A
 Frequencies --   1387.9568              1395.3515              1396.9399
 Red. masses --      1.4509                 1.4187                 1.4412
 Frc consts  --      1.6468                 1.6274                 1.6571
 IR Inten    --      5.1256                 1.5891                 1.1409

                     82                     83                     84
                      A                      A                      A
 Frequencies --   1407.9238              1411.8895              1415.4533
 Red. masses --      1.5567                 1.4379                 1.4627
 Frc consts  --      1.8181                 1.6888                 1.7266
 IR Inten    --      9.2471                 2.8068                 7.4790

                     85                     86                     87
                      A                      A                      A
 Frequencies --   1421.4353              1424.8181              1444.9694
 Red. masses --      1.5535                 1.5861                 3.1805
 Frc consts  --      1.8493                 1.8971                 3.9126
 IR Inten    --      0.4762                 0.6336                99.9223

                     88                     89                     90
                      A                      A                      A
 Frequencies --   1498.2672              1511.4803              1515.5816
 Red. masses --      1.1596                 1.1086                 1.0952
 Frc consts  --      1.5336                 1.4922                 1.4822
 IR Inten    --      2.6584                 4.2640                 3.2127

                     91                     92                     93
                      A                      A                      A
 Frequencies --   1518.1057              1520.1015              1520.3652
 Red. masses --      1.1195                 1.0967                 1.1478
 Frc consts  --      1.5201                 1.4931                 1.5632
 IR Inten    --      2.1931                 3.2432                22.3018

                     94                     95                     96
                      A                      A                      A
 Frequencies --   1529.4879              1533.3376              1539.6298
 Red. masses --      1.1100                 1.1110                 1.1518
 Frc consts  --      1.5299                 1.5391                 1.6086
 IR Inten    --     12.5642                 1.1814                16.6491

                     97                     98                     99
                      A                      A                      A
 Frequencies --   1552.1594              1672.6126              2299.0926
 Red. masses --      1.1493                 3.6654                12.6510
 Frc consts  --      1.6313                 6.0417                39.3994
 IR Inten    --      1.4739               289.8690                84.4734

                    100                    101                    102
                      A                      A                      A
 Frequencies --   3014.8469              3025.2989              3028.9249
 Red. masses --      1.0703                 1.0640                 1.0622
 Frc consts  --      5.7317                 5.7373                 5.7415
 IR Inten    --     38.8847                15.1065                18.6796

                    103                    104                    105
                      A                      A                      A
 Frequencies --   3029.9259              3030.9869              3035.9450
 Red. masses --      1.0704                 1.0628                 1.0642
 Frc consts  --      5.7899                 5.7527                 5.7790
 IR Inten    --     15.6986                14.5053                13.5033

                    106                    107                    108
                      A                      A                      A
 Frequencies --   3037.6303              3038.1306              3044.2177
 Red. masses --      1.0676                 1.0717                 1.0625
 Frc consts  --      5.8040                 5.8283                 5.8012
 IR Inten    --     30.8277                11.1586                22.5570

                    109                    110                    111
                      A                      A                      A
 Frequencies --   3047.1061              3052.5362              3053.8718
 Red. masses --      1.0755                 1.0835                 1.0824
 Frc consts  --      5.8833                 5.9486                 5.9477
 IR Inten    --     62.6604                55.5055                88.3594

                    112                    113                    114
                      A                      A                      A
 Frequencies --   3059.6916              3064.9254              3065.8109
 Red. masses --      1.0837                 1.1039                 1.0886
 Frc consts  --      5.9772                 6.1095                 6.0284
 IR Inten    --     97.6059                 7.1153                14.6063

                    115                    116                    117
                      A                      A                      A
 Frequencies --   3066.7344              3068.1015              3070.5474
 Red. masses --      1.0915                 1.0983                 1.1026
 Frc consts  --      6.0480                 6.0911                 6.1248
 IR Inten    --     44.2657                13.9333                71.5782

                    118                    119                    120
                      A                      A                      A
 Frequencies --   3074.0934              3083.9261              3087.7637
 Red. masses --      1.1026                 1.1026                 1.0903
 Frc consts  --      6.1391                 6.1785                 6.1244
 IR Inten    --    103.0134                36.0489                42.1988

                    121                    122                    123
                      A                      A                      A
 Frequencies --   3090.3619              3094.1228              3559.6608
 Red. masses --      1.0971                 1.1038                 1.0742
 Frc consts  --      6.1733                 6.2262                 8.0196
 IR Inten    --     56.8389                39.8112                10.8586

 - Thermochemistry -
 -------------------
 Temperature   298.150 Kelvin.  Pressure   1.00000 Atm.
 Atom     1 has atomic number  6 and mass  12.00000

 Molecular mass:   256.19395 amu.
 Principal axes and moments of inertia in atomic units:
                           1         2         3
     Eigenvalues --  2332.690117251.119288331.70351
           X            0.99987  -0.01613  -0.00178
           Y            0.01614   0.99987   0.00212
           Z            0.00174  -0.00214   1.00000
 This molecule is an asymmetric top.
 Rotational symmetry number  1.
 Warning -- assumption of classical behavior for rotation
           may cause significant error
 Rotational temperatures (Kelvin)      0.03713     0.01194     0.01040
 Rotational constants (GHZ):           0.77367     0.24889     0.21661
 Zero-point vibrational energy    1022307.0 (Joules/Mol)
                                  244.33723 (Kcal/Mol)
 Warning -- explicit consideration of  25 degrees of freedom as
           vibrations may cause significant error
 Vibrational temperatures:     45.56    51.86    94.99   143.62   180.03
          (Kelvin)            196.89   263.80   340.07   354.32   442.89
                              463.88   479.26   513.26   544.00   580.25
                              612.18   644.13   651.02   662.86   701.65
                              725.40   780.67   824.34   865.64   890.62
                              932.17   947.71   985.58   998.90  1043.12
                             1119.94  1163.52  1188.82  1202.56  1216.64
                             1268.19  1295.26  1299.74  1304.41  1322.85
                             1332.76  1342.09  1383.53  1411.97  1422.17
                             1440.47  1506.29  1517.77  1525.50  1555.81
                             1559.68  1569.74  1591.55  1604.01  1623.14
                             1626.53  1643.61  1648.98  1655.85  1672.11
                             1692.78  1731.66  1744.66  1772.30  1805.13
                             1850.91  1855.82  1873.85  1888.33  1913.33
                             1930.23  1936.66  1945.95  1954.73  1961.50
                             1969.94  1973.64  1993.65  1996.96  2007.60
                             2009.88  2025.69  2031.39  2036.52  2045.13
                             2050.00  2078.99  2155.67  2174.68  2180.58
                             2184.22  2187.09  2187.47  2200.59  2206.13
                             2215.18  2233.21  2406.52  3307.88  4337.69
                             4352.73  4357.95  4359.39  4360.91  4368.05
                             4370.47  4371.19  4379.95  4384.11  4391.92
                             4393.84  4402.21  4409.74  4411.02  4412.35
                             4414.31  4417.83  4422.93  4437.08  4442.60
                             4446.34  4451.75  5121.56

 Zero-point correction=                           0.389376 (Hartree/Particle)
 Thermal correction to Energy=                    0.404948
 Thermal correction to Enthalpy=                  0.405893
 Thermal correction to Gibbs Free Energy=         0.346209
 Sum of electronic and zero-point Energies=           -771.483672
 Sum of electronic and thermal Energies=              -771.468100
 Sum of electronic and thermal Enthalpies=            -771.467156
 Sum of electronic and thermal Free Energies=         -771.526840

                     E (Thermal)             CV                S
                      KCal/Mol        Cal/Mol-Kelvin    Cal/Mol-Kelvin
 Total                  254.109             65.409            125.615
 Electronic               0.000              0.000              0.000
 Translational            0.889              2.981             42.522
 Rotational               0.889              2.981             33.310
 Vibrational            252.331             59.448             49.782
 Vibration     1          0.594              1.983              5.722
 Vibration     2          0.594              1.982              5.466
 Vibration     3          0.597              1.970              4.269
 Vibration     4          0.604              1.949              3.458
 Vibration     5          0.610              1.928              3.020
 Vibration     6          0.614              1.917              2.848
 Vibration     7          0.631              1.862              2.294
 Vibration     8          0.655              1.785              1.830
 Vibration     9          0.661              1.769              1.757
 Vibration    10          0.698              1.659              1.374
 Vibration    11          0.707              1.631              1.298
 Vibration    12          0.715              1.609              1.245
 Vibration    13          0.732              1.561              1.136
 Vibration    14          0.748              1.517              1.047
 Vibration    15          0.769              1.463              0.951
 Vibration    16          0.787              1.415              0.874
 Vibration    17          0.807              1.366              0.803
 Vibration    18          0.811              1.355              0.788
 Vibration    19          0.819              1.337              0.764
 Vibration    20          0.844              1.277              0.690
 Vibration    21          0.859              1.241              0.648
 Vibration    22          0.898              1.156              0.560
 Vibration    23          0.929              1.090              0.499
 Vibration    24          0.960              1.028              0.447
 Vibration    25          0.979              0.992              0.418

 Optimization completed.
    -- Stationary point found.
 Normal termination of Gaussian 16 at Mon Dec 14 14:04:33 2020.

 ----------------------------------------------------------------------
 # B3LYP/6-311++G(d,p) empiricaldispersion=gd3bj scf=xqc pop=npa geom=c
 heck
 ----------------------------------------------------------------------

 --------------------------------------
 CID_84092932_JID_9731_Energie_neutraal
 --------------------------------------
 Structure from the checkpoint file:  "JID_9731.chk"
 Charge =  0 Multiplicity = 1

 SCF Done:  E(RB3LYP) =  -772.072680005     A.U. after   15 cycles
 Normal termination of Gaussian 16 at Mon Dec 14 14:18:11 2020.

 ----------------------------------------------------------------------
 # B3LYP/6-311++G(d,p) empiricaldispersion=gd3bj scf=xqc pop=npa geom=c
 heck
 ----------------------------------------------------------------------

 ------------------------------------
 CID_84092932_JID_9731_Energie_kation
 ------------------------------------
 Structure from the checkpoint file:  "JID_9731.chk"
 Charge =  1 Multiplicity = 2

 SCF Done:  E(UB3LYP) =  -771.798231485     A.U. after   21 cycles
 Normal termination of Gaussian 16 at Mon Dec 14 14:45:50 2020.
 Gaussian 16:  ES64L-G16RevA.03 25-Dec-2016

 ----------------------------------------------------------------------
 # B3LYP/6-311++G(d,p) empiricaldispersion=gd3bj scf=xqc pop=npa geom=c
 heck
 ----------------------------------------------------------------------

 -----------------------------------
 CID_84092932_JID_9731_Energie_anion
 -----------------------------------
 Structure from the checkpoint file:  "JID_9731.chk"
 Charge = -1 Multiplicity = 2

                         Standard orientation:
 ---------------------------------------------------------------------
 Center     Atomic      Atomic             Coordinates (Angstroms)
 Number     Number       Type             X           Y           Z
 ---------------------------------------------------------------------
      1          6           0        4.524717   -0.934558    0.044673
      2          6           0        3.441609   -1.922064   -0.391101
      3          6           0        2.121186   -1.635093    0.332703
      4          6           0        1.771990   -0.165431    0.364633
      5          6           0        2.686498    0.788780    0.002571
      6          6           0        4.129879    0.489567   -0.356406
      7          6           0        2.250780    2.140476   -0.027324
      8          7           0        1.835545    3.232413   -0.050137
      9          7           0        0.532597    0.174854    0.855880
     10          6           0       -0.680301   -0.604586    0.606888
     11          6           0       -1.854077   -0.028107    1.426539
     12          6           0       -2.238912    1.377970    0.920027
     13          6           0       -2.635274    1.305082   -0.566645
     14          6           0       -3.844241    0.363462   -0.724875
     15          6           0       -3.476713   -1.044367   -0.218186
     16          6           0       -3.067172   -0.965052    1.265151
     17          6           0       -2.294861   -1.589400   -1.041920
     18          6           0       -1.082372   -0.652870   -0.888676
     19          6           0       -1.447571    0.759572   -1.382864
     20          1           0        4.648255   -0.989499    1.134817
     21          1           0        5.491043   -1.193639   -0.402397
     22          1           0        3.289542   -1.835931   -1.475407
     23          1           0        3.746341   -2.955878   -0.193685
     24          1           0        1.310647   -2.198519   -0.142201
     25          1           0        2.168221   -1.993915    1.371189
     26          1           0        4.789461    1.217609    0.131660
     27          1           0        4.280070    0.622949   -1.438227
     28          1           0        0.372526    1.176112    0.867877
     29          1           0       -0.496131   -1.626179    0.958882
     30          1           0       -1.553208    0.021343    2.479940
     31          1           0       -3.077974    1.756545    1.517925
     32          1           0       -1.421035    2.097420    1.058196
     33          1           0       -2.897072    2.307900   -0.925092
     34          1           0       -4.147939    0.315074   -1.779115
     35          1           0       -4.701700    0.753827   -0.160506
     36          1           0       -4.339616   -1.713638   -0.324717
     37          1           0       -3.903851   -0.589460    1.868169
     38          1           0       -2.823073   -1.966698    1.643833
     39          1           0       -2.575102   -1.666588   -2.100497
     40          1           0       -2.035098   -2.602478   -0.704553
     41          1           0       -0.236247   -1.037780   -1.472533
     42          1           0       -0.586026    1.432980   -1.297136
     43          1           0       -1.710005    0.717292   -2.447746
 ---------------------------------------------------------------------

 SCF Done:  E(UB3LYP) =  -772.065752710     A.U. after   31 cycles

 The electronic state is 2-A.
 Alpha  occ. eigenvalues --  -14.23515 -14.20627 -10.13544 -10.11327 -10.10723
 Alpha  occ. eigenvalues --  -10.09153 -10.09035 -10.08726 -10.08287 -10.08188
 Alpha  occ. eigenvalues --  -10.08029 -10.07941 -10.07832 -10.07710 -10.07476
 Alpha  occ. eigenvalues --  -10.07080 -10.06950 -10.06906 -10.06897  -0.85868
 Alpha  occ. eigenvalues --   -0.80343  -0.77859  -0.74493  -0.68569  -0.68132
 Alpha  occ. eigenvalues --   -0.67845  -0.67048  -0.64309  -0.58001  -0.57693
 Alpha  occ. eigenvalues --   -0.55747  -0.52622  -0.49976  -0.49764  -0.48768
 Alpha  occ. eigenvalues --   -0.46680  -0.44690  -0.43707  -0.39856  -0.38477
 Alpha  occ. eigenvalues --   -0.37129  -0.36328  -0.36033  -0.35349  -0.34735
 Alpha  occ. eigenvalues --   -0.33273  -0.33099  -0.32215  -0.31768  -0.31040
 Alpha  occ. eigenvalues --   -0.30805  -0.30415  -0.30114  -0.29834  -0.26920
 Alpha  occ. eigenvalues --   -0.26518  -0.25938  -0.25465  -0.25243  -0.24416
 Alpha  occ. eigenvalues --   -0.24183  -0.24129  -0.23774  -0.23692  -0.22660
 Alpha  occ. eigenvalues --   -0.21069  -0.19660  -0.19477  -0.19009  -0.11610
 Alpha  occ. eigenvalues --    0.03682
 Alpha virt. eigenvalues --    0.05573   0.06597   0.06927   0.07130   0.07778
 Alpha virt. eigenvalues --    0.08043   0.08279   0.09229   0.09401   0.09777
 Alpha virt. eigenvalues --    0.10328   0.10426   0.10672   0.11338   0.12106

  Beta  occ. eigenvalues --  -14.23512 -14.20606 -10.13495 -10.11315 -10.10718
  Beta  occ. eigenvalues --  -10.09147 -10.09028 -10.08703 -10.08282 -10.08172
  Beta  occ. eigenvalues --  -10.08003 -10.07939 -10.07825 -10.07703 -10.07468
  Beta  occ. eigenvalues --  -10.07061 -10.06935 -10.06898 -10.06877  -0.85830
  Beta  occ. eigenvalues --   -0.80310  -0.77827  -0.74461  -0.68535  -0.68106
  Beta  occ. eigenvalues --   -0.67819  -0.67003  -0.64266  -0.57964  -0.57658
  Beta  occ. eigenvalues --   -0.55690  -0.52569  -0.49946  -0.49735  -0.48736
  Beta  occ. eigenvalues --   -0.46611  -0.44653  -0.43649  -0.39827  -0.38431
  Beta  occ. eigenvalues --   -0.37095  -0.36298  -0.36002  -0.35311  -0.34691
  Beta  occ. eigenvalues --   -0.33240  -0.33066  -0.32186  -0.31747  -0.31003
  Beta  occ. eigenvalues --   -0.30756  -0.30386  -0.30080  -0.29798  -0.26879
  Beta  occ. eigenvalues --   -0.26484  -0.25861  -0.25438  -0.25210  -0.24379
  Beta  occ. eigenvalues --   -0.24158  -0.24100  -0.23751  -0.23660  -0.22635
  Beta  occ. eigenvalues --   -0.21001  -0.19628  -0.19447  -0.18947  -0.11518
  Beta virt. eigenvalues --    0.05722   0.06274   0.07007   0.07526   0.07576
  Beta virt. eigenvalues --    0.08180   0.08395   0.08503   0.09539   0.09719
  Beta virt. eigenvalues --    0.10034   0.10529   0.10663   0.10940   0.11470

 Mulliken charges and spin densities:
               1          2
     1  C   -0.446614   0.160289
     2  C    0.003401  -0.361030
     3  C    1.022607  -1.168199
     4  C   -0.495997   0.445631
     5  C    1.590208   0.109565
     6  C   -0.256603  -0.396556
     7  C   -0.983291  -0.743110
     8  N   -0.220150   0.023903
     9  N    0.306740   0.097579
    10  C   -0.886698  -0.234934
    11  C   -0.247538   0.824842
    12  C   -0.233882  -0.630885
    13  C   -0.059024   0.632290
    14  C    0.594723  -1.257573
    15  C   -0.681917   1.104749
    16  C    0.346923  -1.215158
    17  C    0.595831  -1.467328
    18  C    0.462637   0.446586
    19  C   -0.665323  -0.448770
    20  H    0.056443   0.091140
    21  H   -0.124322   0.295368
    22  H   -0.025052   0.171375
    23  H   -0.416691   0.602767
    24  H   -0.009578   0.184351
    25  H   -0.289955   0.498037
    26  H    0.156900   0.008914
    27  H    0.025925   0.140003
    28  H    0.172634   0.118959
    29  H    0.121107   0.138722
    30  H    0.009859   0.233438
    31  H    0.007496   0.159174
    32  H    0.161024  -0.044131
    33  H    0.147544   0.081563
    34  H   -0.019850   0.161766
    35  H   -0.131582   0.280333
    36  H   -0.286060   0.524758
    37  H   -0.065101   0.233028
    38  H   -0.243534   0.376607
    39  H   -0.175403   0.331660
    40  H   -0.180370   0.331580
    41  H    0.311650  -0.065723
    42  H    0.121182  -0.004330
    43  H   -0.070297   0.228748
 Sum of Mulliken charges =  -1.00000   1.00000

 Dipole moment (field-independent basis, Debye):
    X=              0.4810    Y=              2.0113    Z=             -0.3752  Tot=              2.1018
 Quadrupole moment (field-independent basis, Debye-Ang):
   XX=           -195.0817   YY=           -181.0147   ZZ=           -152.2087
   XY=             -3.4274   XZ=             -0.9252   YZ=              2.7934

 Summary of Natural Population Analysis:

                                       Natural Population
                Natural  -----------------------------------------------
    Atom  No    Charge         Core      Valence    Rydberg      Total
 -----------------------------------------------------------------------
      C    1   -0.18841      0.99963     2.18049    0.00828     3.18841
      C    2   -0.18692      0.99963     2.17905    0.00824     3.18692
      C    3   -0.20956      0.99958     2.20117    0.00881     3.20956
      C    4    0.15851      0.99947     1.83055    0.01147     2.84149
      C    5   -0.14331      0.99936     2.13532    0.00863     3.14331
      C    6   -0.18250      0.99961     2.17384    0.00905     3.18250
      C    7    0.14944      0.99963     1.83261    0.01832     2.85056
      N    8   -0.20390      0.99979     2.69330    0.01081     3.70390
      N    9   -0.31235      0.99965     2.80157    0.01112     3.81235
      C   10   -0.00515      0.99953     1.99127    0.01435     3.00515
      C   11   -0.11157      0.99958     2.09985    0.01214     3.11157
      C   12   -0.18998      0.99960     2.18162    0.00876     3.18998
      C   13   -0.11155      0.99959     2.10118    0.01078     3.11155
      C   14   -0.18742      0.99960     2.17796    0.00985     3.18742
      C   15   -0.11141      0.99959     2.09981    0.01201     3.11141
      C   16   -0.18611      0.99960     2.17661    0.00990     3.18611
      C   17   -0.18776      0.99960     2.17797    0.01019     3.18776
      C   18   -0.11594      0.99957     2.10498    0.01139     3.11594
      C   19   -0.19171      0.99960     2.18303    0.00907     3.19171
      H   20    0.09566      0.00000     0.40313    0.00121     0.40434
      H   21    0.09958      0.00000     0.39955    0.00087     0.40042
      H   22    0.09520      0.00000     0.40341    0.00139     0.40480
      H   23    0.10320      0.00000     0.39532    0.00148     0.39680
      H   24    0.10980      0.00000     0.38860    0.00159     0.39020
      H   25    0.11132      0.00000     0.38670    0.00198     0.38868
      H   26    0.10067      0.00000     0.39822    0.00112     0.39933
      H   27    0.09725      0.00000     0.40154    0.00121     0.40275
      H   28    0.19342      0.00000     0.30370    0.00288     0.30658
      H   29    0.10231      0.00000     0.39545    0.00224     0.39769
      H   30    0.10431      0.00000     0.39418    0.00151     0.39569
      H   31    0.10072      0.00000     0.39834    0.00094     0.39928
      H   32    0.09812      0.00000     0.40073    0.00115     0.40188
      H   33    0.09905      0.00000     0.39966    0.00129     0.40095
      H   34    0.09880      0.00000     0.40015    0.00105     0.40120
      H   35    0.09806      0.00000     0.40089    0.00105     0.40194
      H   36    0.10115      0.00000     0.39717    0.00168     0.39885
      H   37    0.09963      0.00000     0.39924    0.00113     0.40037
      H   38    0.10155      0.00000     0.39715    0.00130     0.39845
      H   39    0.10055      0.00000     0.39827    0.00118     0.39945
      H   40    0.10103      0.00000     0.39756    0.00141     0.39897
      H   41    0.10241      0.00000     0.39597    0.00163     0.39759
      H   42    0.10379      0.00000     0.39452    0.00169     0.39621
      H   43    0.10003      0.00000     0.39904    0.00093     0.39997
 =======================================================================
   * Total *   -0.00000     18.99223    50.77068    0.23709    70.00000

 Normal termination of Gaussian 16 at Mon Dec 14 15:26:00 2020.
