 Gaussian 16, Revision A.03,

 -----------------------------------------------------------
 # opt freq B3LYP/6-31G(d) empiricaldispersion=gd3bj scf=xqc
 -----------------------------------------------------------

 -----------------------------
 CID_55285916_JID_272_neutraal
 -----------------------------
 Symbolic Z-matrix:
 Charge =  0 Multiplicity = 1

 SCF Done:  E(RB3LYP) =  -495.811677967     A.U. after   14 cycles
 SCF Done:  E(RB3LYP) =  -495.814568471     A.U. after   12 cycles
 SCF Done:  E(RB3LYP) =  -495.815222581     A.U. after   12 cycles
 SCF Done:  E(RB3LYP) =  -495.815646152     A.U. after   12 cycles
 SCF Done:  E(RB3LYP) =  -495.815607438     A.U. after   13 cycles
 SCF Done:  E(RB3LYP) =  -495.816214164     A.U. after   12 cycles
 SCF Done:  E(RB3LYP) =  -495.816283769     A.U. after   11 cycles
 SCF Done:  E(RB3LYP) =  -495.816303962     A.U. after   11 cycles
 SCF Done:  E(RB3LYP) =  -495.816314519     A.U. after   10 cycles
 SCF Done:  E(RB3LYP) =  -495.816359894     A.U. after   11 cycles
 SCF Done:  E(RB3LYP) =  -495.820272868     A.U. after   12 cycles
 SCF Done:  E(RB3LYP) =  -495.820287076     A.U. after   10 cycles
 SCF Done:  E(RB3LYP) =  -495.820289023     A.U. after    8 cycles
 SCF Done:  E(RB3LYP) =  -495.820289940     A.U. after    8 cycles
 SCF Done:  E(RB3LYP) =  -495.820290129     A.U. after    8 cycles
 SCF Done:  E(RB3LYP) =  -495.820290162     A.U. after    7 cycles
 Optimization completed.
    -- Stationary point found.
 Normal termination of Gaussian 16 at Tue Dec  8 10:28:42 2020.

 --------------------------------------------------------------------
 #N Geom=AllCheck Guess=TCheck SCRF=Check GenChk RB3LYP/6-31G(d) Freq
 --------------------------------------------------------------------

 Structure from the checkpoint file:  "JID_272.chk"
 -----------------------------
 CID_55285916_JID_272_neutraal
 -----------------------------
 Charge =  0 Multiplicity = 1

 SCF Done:  E(RB3LYP) =  -495.820290162     A.U. after    1 cycles

  Exact polarizability: 106.093   2.260  72.697  -1.975  -1.309  65.784
 Approx polarizability: 155.099   4.811  98.735  -7.594  -0.522  97.409

                      1                      2                      3
                      A                      A                      A
 Frequencies --     57.6774                82.2649               131.0745
 Red. masses --      5.7971                 5.1094                 3.7709
 Frc consts  --      0.0114                 0.0204                 0.0382
 IR Inten    --      0.0689                 0.4568                 0.6975

                      4                      5                      6
                      A                      A                      A
 Frequencies --    132.4463               168.0044               197.4333
 Red. masses --      4.1928                 3.3727                 2.2294
 Frc consts  --      0.0433                 0.0561                 0.0512
 IR Inten    --      2.4774                 2.0685                 6.4772

                      7                      8                      9
                      A                      A                      A
 Frequencies --    204.4025               267.0877               310.9740
 Red. masses --      1.0996                 3.0263                 1.5285
 Frc consts  --      0.0271                 0.1272                 0.0871
 IR Inten    --     40.7264                 1.3099                48.1258

                     10                     11                     12
                      A                      A                      A
 Frequencies --    319.6465               359.9182               431.8524
 Red. masses --      2.2070                 3.2930                 3.4225
 Frc consts  --      0.1329                 0.2513                 0.3761
 IR Inten    --     86.2478                 2.1586                 6.7664

                     13                     14                     15
                      A                      A                      A
 Frequencies --    472.0165               491.1108               515.9673
 Red. masses --      2.1940                 1.9576                 1.7218
 Frc consts  --      0.2880                 0.2782                 0.2701
 IR Inten    --     14.8379                94.5072                67.4702

                     16                     17                     18
                      A                      A                      A
 Frequencies --    573.1788               678.2631               688.8414
 Red. masses --      2.9172                 2.7106                 3.1880
 Frc consts  --      0.5647                 0.7347                 0.8913
 IR Inten    --     78.2357                 3.6498                13.4081

                     19                     20                     21
                      A                      A                      A
 Frequencies --    732.0661               761.4251               836.4053
 Red. masses --      1.4445                 1.3640                 2.2177
 Frc consts  --      0.4561                 0.4659                 0.9141
 IR Inten    --     15.6122                22.3772                 2.1241

                     22                     23                     24
                      A                      A                      A
 Frequencies --    878.8608               884.5506               979.2635
 Red. masses --      2.4962                 2.7220                 2.4688
 Frc consts  --      1.1360                 1.2548                 1.3949
 IR Inten    --     25.0899                28.2495                19.6689

                     25                     26                     27
                      A                      A                      A
 Frequencies --   1003.6545              1014.7590              1056.2203
 Red. masses --      1.2683                 1.9238                 1.6046
 Frc consts  --      0.7527                 1.1672                 1.0547
 IR Inten    --      6.7428               157.4340                 1.7305

                     28                     29                     30
                      A                      A                      A
 Frequencies --   1072.4066              1097.5123              1122.4812
 Red. masses --      2.2327                 3.4975                 1.8342
 Frc consts  --      1.5129                 2.4822                 1.3616
 IR Inten    --     99.8470                 7.9827                 4.4943

                     31                     32                     33
                      A                      A                      A
 Frequencies --   1174.0126              1179.4488              1235.9633
 Red. masses --      2.1979                 1.1106                 1.2697
 Frc consts  --      1.7848                 0.9102                 1.1428
 IR Inten    --      6.0259                12.9927                14.1624

                     34                     35                     36
                      A                      A                      A
 Frequencies --   1268.8012              1304.9125              1312.5280
 Red. masses --      1.2348                 1.3318                 1.1693
 Frc consts  --      1.1712                 1.3361                 1.1868
 IR Inten    --      3.7876                34.0561                 5.7931

                     37                     38                     39
                      A                      A                      A
 Frequencies --   1369.1531              1375.1562              1391.1912
 Red. masses --      2.9517                 1.3000                 1.3502
 Frc consts  --      3.2600                 1.4485                 1.5396
 IR Inten    --     62.1145                 3.5288                11.0247

                     40                     41                     42
                      A                      A                      A
 Frequencies --   1407.3395              1445.3596              1460.4294
 Red. masses --      1.3138                 1.2567                 1.5026
 Frc consts  --      1.5331                 1.5468                 1.8882
 IR Inten    --      2.9403                37.6922                 2.3853

                     43                     44                     45
                      A                      A                      A
 Frequencies --   1516.0412              1546.7489              1668.1657
 Red. masses --      1.0905                 1.0818                 1.2407
 Frc consts  --      1.4768                 1.5249                 2.0342
 IR Inten    --      3.4140                 1.0264                79.2406

                     46                     47                     48
                      A                      A                      A
 Frequencies --   1713.4582              1744.5568              1792.0333
 Red. masses --      1.0855                 6.5615                 8.5733
 Frc consts  --      1.8776                11.7659                16.2215
 IR Inten    --     33.8483                14.2837               320.4929

                     49                     50                     51
                      A                      A                      A
 Frequencies --   3026.0313              3032.1342              3042.7601
 Red. masses --      1.0701                 1.0823                 1.0623
 Frc consts  --      5.7730                 5.8626                 5.7949
 IR Inten    --     44.6831                23.7790                61.7691

                     52                     53                     54
                      A                      A                      A
 Frequencies --   3072.5204              3127.6795              3136.2737
 Red. masses --      1.1022                 1.0945                 1.0847
 Frc consts  --      6.1304                 6.3084                 6.2863
 IR Inten    --     11.8847                27.9122                 9.4126

                     55                     56                     57
                      A                      A                      A
 Frequencies --   3165.3558              3435.2933              3504.2650
 Red. masses --      1.0940                 1.0501                 1.0544
 Frc consts  --      6.4580                 7.3012                 7.6288
 IR Inten    --     34.2838                 6.7606               183.9181

                     58                     59                     60
                      A                      A                      A
 Frequencies --   3513.1170              3664.8896              3744.6737
 Red. masses --      1.0895                 1.0980                 1.0662
 Frc consts  --      7.9227                 8.6888                 8.8090
 IR Inten    --      6.9023                76.6191                17.0675

 - Thermochemistry -
 -------------------
 Temperature   298.150 Kelvin.  Pressure   1.00000 Atm.
 Atom     1 has atomic number  6 and mass  12.00000

 Molecular mass:   144.08988 amu.
 Principal axes and moments of inertia in atomic units:
                           1         2         3
     Eigenvalues --   937.772521947.111852517.29168
           X            0.99993  -0.00809   0.00806
           Y            0.00812   0.99996  -0.00360
           Z           -0.00803   0.00366   0.99996
 This molecule is an asymmetric top.
 Rotational symmetry number  1.
 Warning -- assumption of classical behavior for rotation
           may cause significant error
 Rotational temperatures (Kelvin)      0.09236     0.04448     0.03441
 Rotational constants (GHZ):           1.92450     0.92688     0.71694
 Zero-point vibrational energy     495804.6 (Joules/Mol)
                                  118.50015 (Kcal/Mol)
 Warning -- explicit consideration of  16 degrees of freedom as
           vibrations may cause significant error
 Vibrational temperatures:     82.98   118.36   188.59   190.56   241.72
          (Kelvin)            284.06   294.09   384.28   447.42   459.90
                              517.84   621.34   679.13   706.60   742.36
                              824.68   975.87   991.09  1053.28  1095.52
                             1203.40  1264.48  1272.67  1408.94  1444.04
                             1460.01  1519.67  1542.95  1579.08  1615.00
                             1689.14  1696.96  1778.28  1825.52  1877.48
                             1888.44  1969.91  1978.54  2001.61  2024.85
                             2079.55  2101.23  2181.25  2225.43  2400.12
                             2465.28  2510.03  2578.34  4353.78  4362.56
                             4377.85  4420.67  4500.03  4512.40  4554.24
                             4942.62  5041.86  5054.59  5272.96  5387.75

 Zero-point correction=                           0.188842 (Hartree/Particle)
 Thermal correction to Energy=                    0.200081
 Thermal correction to Enthalpy=                  0.201025
 Thermal correction to Gibbs Free Energy=         0.152101
 Sum of electronic and zero-point Energies=           -495.631448
 Sum of electronic and thermal Energies=              -495.620209
 Sum of electronic and thermal Enthalpies=            -495.619265
 Sum of electronic and thermal Free Energies=         -495.668189

                     E (Thermal)             CV                S
                      KCal/Mol        Cal/Mol-Kelvin    Cal/Mol-Kelvin
 Total                  125.553             41.282            102.969
 Electronic               0.000              0.000              0.000
 Translational            0.889              2.981             40.807
 Rotational               0.889              2.981             29.909
 Vibrational            123.775             35.321             32.253
 Vibration     1          0.596              1.974              4.535
 Vibration     2          0.600              1.961              3.836
 Vibration     3          0.612              1.922              2.930
 Vibration     4          0.613              1.921              2.910
 Vibration     5          0.625              1.882              2.458
 Vibration     6          0.637              1.843              2.157
 Vibration     7          0.640              1.834              2.093
 Vibration     8          0.672              1.734              1.615
 Vibration     9          0.700              1.653              1.357
 Vibration    10          0.706              1.636              1.312
 Vibration    11          0.734              1.555              1.122
 Vibration    12          0.793              1.401              0.853
 Vibration    13          0.829              1.312              0.732
 Vibration    14          0.847              1.270              0.681
 Vibration    15          0.871              1.215              0.619
 Vibration    16          0.929              1.089              0.498

                           ! Non-Optimized Parameters !
 Normal termination of Gaussian 16 at Tue Dec  8 10:32:47 2020.

 ----------------------------------------------------------------------
 # B3LYP/6-311++G(d,p) empiricaldispersion=gd3bj scf=xqc pop=npa geom=c
 heck
 ----------------------------------------------------------------------

 -------------------------------------
 CID_55285916_JID_272_Energie_neutraal
 -------------------------------------
 Structure from the checkpoint file:  "JID_272.chk"
 Charge =  0 Multiplicity = 1

 SCF Done:  E(RB3LYP) =  -495.992339311     A.U. after   14 cycles
 Normal termination of Gaussian 16 at Tue Dec  8 10:37:01 2020.

 ----------------------------------------------------------------------
 # B3LYP/6-311++G(d,p) empiricaldispersion=gd3bj scf=xqc pop=npa geom=c
 heck
 ----------------------------------------------------------------------

 -----------------------------------
 CID_55285916_JID_272_Energie_kation
 -----------------------------------
 Structure from the checkpoint file:  "JID_272.chk"
 Charge =  1 Multiplicity = 2

 SCF Done:  E(UB3LYP) =  -495.673589949     A.U. after   25 cycles
 Normal termination of Gaussian 16 at Tue Dec  8 10:42:22 2020.
 Gaussian 16:  ES64L-G16RevA.03 25-Dec-2016

 ----------------------------------------------------------------------
 # B3LYP/6-311++G(d,p) empiricaldispersion=gd3bj scf=xqc pop=npa geom=c
 heck
 ----------------------------------------------------------------------

 ----------------------------------
 CID_55285916_JID_272_Energie_anion
 ----------------------------------
 Structure from the checkpoint file:  "JID_272.chk"
 Charge = -1 Multiplicity = 2

                         Standard orientation:
 ---------------------------------------------------------------------
 Center     Atomic      Atomic             Coordinates (Angstroms)
 Number     Number       Type             X           Y           Z
 ---------------------------------------------------------------------
      1          6           0       -2.076289   -1.049759   -0.433844
      2          6           0       -2.186753    0.423067   -0.867791
      3          8           0       -2.295911    1.334821    0.227705
      4          6           0       -1.190905   -1.288458    0.771822
      5          6           0        0.132805   -1.125689    0.843528
      6          6           0        1.048274   -0.649510   -0.247790
      7          6           0        1.553033    0.804807    0.008923
      8          8           0        2.712877    1.108084   -0.248635
      9          7           0        0.639353    1.689304    0.479112
     10          7           0        2.165591   -1.575216   -0.435339
     11          1           0       -1.722062   -1.627604   -1.298246
     12          1           0       -3.081002   -1.429419   -0.208809
     13          1           0       -1.284216    0.738927   -1.396406
     14          1           0       -3.033655    0.546356   -1.558302
     15          1           0       -2.993757    1.016374    0.821061
     16          1           0       -1.702042   -1.618445    1.674846
     17          1           0        0.628410   -1.332356    1.793156
     18          1           0        0.493640   -0.603790   -1.195517
     19          1           0       -0.338979    1.462716    0.639609
     20          1           0        0.926175    2.655987    0.548766
     21          1           0        2.905721   -1.036918   -0.891502
     22          1           0        2.550451   -1.800430    0.483293
 ---------------------------------------------------------------------

 SCF Done:  E(UB3LYP) =  -495.985322588     A.U. after   30 cycles

 The electronic state is 2-A.
 Alpha  occ. eigenvalues --  -19.01581 -18.99390 -14.22723 -14.19497 -10.17314
 Alpha  occ. eigenvalues --  -10.11047 -10.10962 -10.06549 -10.06451 -10.06418
 Alpha  occ. eigenvalues --   -0.94251  -0.91579  -0.80401  -0.79201  -0.69472
 Alpha  occ. eigenvalues --   -0.63271  -0.58330  -0.52719  -0.48410  -0.45572
 Alpha  occ. eigenvalues --   -0.43482  -0.39772  -0.39096  -0.36740  -0.35460
 Alpha  occ. eigenvalues --   -0.34596  -0.33293  -0.32368  -0.32185  -0.29060
 Alpha  occ. eigenvalues --   -0.27868  -0.26017  -0.23036  -0.22620  -0.18044
 Alpha  occ. eigenvalues --   -0.17698  -0.17575  -0.15707  -0.13990   0.04651
 Alpha virt. eigenvalues --    0.07960   0.08106   0.08545   0.09563   0.10352
 Alpha virt. eigenvalues --    0.10590   0.10924   0.11933   0.12295   0.13400
 Alpha virt. eigenvalues --    0.13866   0.15422   0.15594   0.16152   0.16984

  Beta  occ. eigenvalues --  -19.01505 -18.99386 -14.22709 -14.19487 -10.17305
  Beta  occ. eigenvalues --  -10.11042 -10.10927 -10.06511 -10.06401 -10.06384
  Beta  occ. eigenvalues --   -0.94239  -0.91422  -0.80377  -0.79179  -0.69368
  Beta  occ. eigenvalues --   -0.63164  -0.58259  -0.52586  -0.48372  -0.45496
  Beta  occ. eigenvalues --   -0.43447  -0.39684  -0.39000  -0.36689  -0.35383
  Beta  occ. eigenvalues --   -0.34526  -0.33231  -0.32322  -0.32153  -0.29016
  Beta  occ. eigenvalues --   -0.27823  -0.25943  -0.22973  -0.22530  -0.17956
  Beta  occ. eigenvalues --   -0.17682  -0.17499  -0.15650  -0.13880
  Beta virt. eigenvalues --    0.07440   0.08537   0.08826   0.09021   0.09927
  Beta virt. eigenvalues --    0.10999   0.11234   0.11440   0.12144   0.12907
  Beta virt. eigenvalues --    0.13815   0.14093   0.15692   0.15733   0.16204

 Mulliken charges and spin densities:
               1          2
     1  C   -0.273474  -0.130202
     2  C    1.604949  -2.013475
     3  O   -0.242345  -0.028220
     4  C   -0.435041   0.183058
     5  C    0.565831  -0.471858
     6  C    0.588225  -0.815522
     7  C   -0.154205   0.109349
     8  O   -0.405674   0.007139
     9  N   -0.412370  -0.020423
    10  N   -0.384317   0.083683
    11  H   -0.078502   0.229146
    12  H   -0.621830   0.817987
    13  H    0.124325   0.023332
    14  H   -0.734521   0.910016
    15  H   -0.390508   0.670226
    16  H   -0.928185   1.132066
    17  H    0.074870   0.073007
    18  H    0.087773   0.151671
    19  H    0.516794  -0.164644
    20  H    0.115646   0.182656
    21  H    0.215183   0.021370
    22  H    0.167376   0.049638
 Sum of Mulliken charges =  -1.00000   1.00000

 Dipole moment (field-independent basis, Debye):
    X=              7.7955    Y=              0.6894    Z=             -1.0994  Tot=              7.9028
 Quadrupole moment (field-independent basis, Debye-Ang):
   XX=           -135.3977   YY=            -92.1297   ZZ=            -87.5307
   XY=             -2.6211   XZ=              7.6809   YZ=              0.5534

 Summary of Natural Population Analysis:

                                       Natural Population
                Natural  -----------------------------------------------
    Atom  No    Charge         Core      Valence    Rydberg      Total
 -----------------------------------------------------------------------
      C    1   -0.23133      0.99961     2.22081    0.01091     3.23133
      C    2   -0.00617      0.99960     1.99338    0.01319     3.00617
      O    3   -0.38252      0.99990     3.37496    0.00767     4.38252
      C    4   -0.07674      0.99951     2.06411    0.01312     3.07674
      C    5   -0.09574      0.99950     2.08415    0.01209     3.09574
      C    6   -0.06803      0.99955     2.05678    0.01170     3.06803
      C    7    0.33536      0.99969     1.64120    0.02376     2.66464
      O    8   -0.33841      0.99987     3.33197    0.00656     4.33841
      N    9   -0.40413      0.99969     2.89702    0.00743     3.90413
      N   10   -0.41276      0.99978     2.90393    0.00905     3.91276
      H   11    0.10660      0.00000     0.39211    0.00130     0.39340
      H   12    0.10979      0.00000     0.38577    0.00444     0.39021
      H   13    0.07954      0.00000     0.41820    0.00226     0.42046
      H   14    0.08457      0.00000     0.41303    0.00240     0.41543
      H   15    0.24478      0.00000     0.22895    0.02627     0.25522
      H   16    0.10122      0.00000     0.39670    0.00209     0.39878
      H   17    0.09326      0.00000     0.40558    0.00115     0.40674
      H   18    0.10180      0.00000     0.39558    0.00262     0.39820
      H   19    0.21674      0.00000     0.28022    0.00304     0.28326
      H   20    0.19141      0.00000     0.30671    0.00189     0.30859
      H   21    0.18188      0.00000     0.31615    0.00197     0.31812
      H   22    0.16891      0.00000     0.32923    0.00187     0.33109
 =======================================================================
   * Total *   -0.00000      9.99671    28.83651    0.16679    39.00000

 Normal termination of Gaussian 16 at Tue Dec  8 10:50:25 2020.
