 Gaussian 16, Revision A.03,

 -----------------------------------------------------------
 # opt freq B3LYP/6-31G(d) empiricaldispersion=gd3bj scf=xqc
 -----------------------------------------------------------

 ------------------------------
 CID_80559431_JID_6675_neutraal
 ------------------------------
 Symbolic Z-matrix:
 Charge =  0 Multiplicity = 1

 SCF Done:  E(RB3LYP) =  -655.064741986     A.U. after   13 cycles
 SCF Done:  E(RB3LYP) =  -655.077562979     A.U. after   12 cycles
 SCF Done:  E(RB3LYP) =  -655.078596128     A.U. after   11 cycles
 SCF Done:  E(RB3LYP) =  -655.079100093     A.U. after   11 cycles
 SCF Done:  E(RB3LYP) =  -655.079201157     A.U. after   10 cycles
 SCF Done:  E(RB3LYP) =  -655.079242274     A.U. after   10 cycles
 SCF Done:  E(RB3LYP) =  -655.079267327     A.U. after   10 cycles
 SCF Done:  E(RB3LYP) =  -655.079273778     A.U. after    9 cycles
 SCF Done:  E(RB3LYP) =  -655.079283645     A.U. after    9 cycles
 SCF Done:  E(RB3LYP) =  -655.079287276     A.U. after    9 cycles
 SCF Done:  E(RB3LYP) =  -655.079287809     A.U. after    8 cycles
 SCF Done:  E(RB3LYP) =  -655.079287897     A.U. after    7 cycles
 Optimization completed.
    -- Stationary point found.
 Normal termination of Gaussian 16 at Fri Dec 11 00:12:16 2020.

 --------------------------------------------------------------------
 #N Geom=AllCheck Guess=TCheck SCRF=Check GenChk RB3LYP/6-31G(d) Freq
 --------------------------------------------------------------------

 Structure from the checkpoint file:  "JID_6675.chk"
 ------------------------------
 CID_80559431_JID_6675_neutraal
 ------------------------------
 Charge =  0 Multiplicity = 1

 SCF Done:  E(RB3LYP) =  -655.079287897     A.U. after    1 cycles

  Exact polarizability: 187.154   1.450 165.819  18.790   3.023 109.053
 Approx polarizability: 251.503   2.296 251.945  36.642   3.960 172.306

                      1                      2                      3
                      A                      A                      A
 Frequencies --     32.3310                43.7801                51.4179
 Red. masses --      2.8030                 3.9195                 3.5804
 Frc consts  --      0.0017                 0.0044                 0.0056
 IR Inten    --      0.7376                 0.0883                 0.1603

                      4                      5                      6
                      A                      A                      A
 Frequencies --     96.7452               114.8822               144.0273
 Red. masses --      2.8120                 2.6167                 3.3189
 Frc consts  --      0.0155                 0.0203                 0.0406
 IR Inten    --      0.3563                 0.5647                 1.1477

                      7                      8                      9
                      A                      A                      A
 Frequencies --    214.6854               248.8218               267.8653
 Red. masses --      3.5673                 2.9170                 2.4117
 Frc consts  --      0.0969                 0.1064                 0.1020
 IR Inten    --      0.3548                 8.8679                 1.4625

                     10                     11                     12
                      A                      A                      A
 Frequencies --    273.9736               309.2061               324.5037
 Red. masses --      1.3124                 3.4150                 1.8429
 Frc consts  --      0.0580                 0.1924                 0.1143
 IR Inten    --     44.7448                 0.8597                 1.4237

                     13                     14                     15
                      A                      A                      A
 Frequencies --    371.7395               403.6665               431.9308
 Red. masses --      3.0320                 2.2453                 3.1849
 Frc consts  --      0.2469                 0.2156                 0.3501
 IR Inten    --     14.8329                 6.9569                 0.6461

                     16                     17                     18
                      A                      A                      A
 Frequencies --    450.7838               453.5325               486.5447
 Red. masses --      2.2950                 2.2778                 2.9770
 Frc consts  --      0.2748                 0.2760                 0.4152
 IR Inten    --      1.5052                 1.5861                 2.1199

                     19                     20                     21
                      A                      A                      A
 Frequencies --    517.0400               556.8736               588.3628
 Red. masses --      3.7776                 3.4543                 2.5178
 Frc consts  --      0.5950                 0.6311                 0.5135
 IR Inten    --      1.1660                 2.6174                 0.2877

                     22                     23                     24
                      A                      A                      A
 Frequencies --    611.4560               662.3567               701.0783
 Red. masses --      3.6813                 3.6017                 3.7187
 Frc consts  --      0.8109                 0.9310                 1.0769
 IR Inten    --      0.4322                 3.3962                 2.2651

                     25                     26                     27
                      A                      A                      A
 Frequencies --    735.7656               791.7127               806.7664
 Red. masses --      1.9462                 1.6775                 2.4183
 Frc consts  --      0.6208                 0.6195                 0.9274
 IR Inten    --      9.7839                 5.4074                30.8826

                     28                     29                     30
                      A                      A                      A
 Frequencies --    816.1557               825.2544               831.4238
 Red. masses --      1.5711                 2.3453                 1.9839
 Frc consts  --      0.6166                 0.9411                 0.8080
 IR Inten    --     39.4532                52.1706                 7.8938

                     31                     32                     33
                      A                      A                      A
 Frequencies --    854.3533               882.4252               885.1383
 Red. masses --      1.6312                 1.7657                 1.8526
 Frc consts  --      0.7015                 0.8101                 0.8552
 IR Inten    --      6.9483                 2.8864                 3.0912

                     34                     35                     36
                      A                      A                      A
 Frequencies --    891.8193               922.4960               931.8449
 Red. masses --      1.7404                 2.4366                 2.0896
 Frc consts  --      0.8155                 1.2217                 1.0691
 IR Inten    --     82.2676                 3.6604                18.6582

                     37                     38                     39
                      A                      A                      A
 Frequencies --    937.5837               951.3994               957.5840
 Red. masses --      1.4558                 1.3604                 1.2799
 Frc consts  --      0.7540                 0.7255                 0.6915
 IR Inten    --      6.8685                33.6188                 0.3699

                     40                     41                     42
                      A                      A                      A
 Frequencies --    982.6101               992.0005              1009.2105
 Red. masses --      2.1946                 2.2536                 3.1371
 Frc consts  --      1.2485                 1.3066                 1.8825
 IR Inten    --      6.7814                 2.7626                34.9803

                     43                     44                     45
                      A                      A                      A
 Frequencies --   1055.1361              1082.5906              1092.8973
 Red. masses --      2.8688                 1.4763                 1.8690
 Frc consts  --      1.8817                 1.0194                 1.3153
 IR Inten    --     11.7363                15.6533                 5.7400

                     46                     47                     48
                      A                      A                      A
 Frequencies --   1115.6312              1117.5476              1137.5592
 Red. masses --      1.8676                 1.9118                 1.5421
 Frc consts  --      1.3695                 1.4068                 1.1758
 IR Inten    --      3.1353                 1.1467                17.9690

                     49                     50                     51
                      A                      A                      A
 Frequencies --   1151.1690              1168.0016              1191.8871
 Red. masses --      1.9041                 1.1666                 1.4047
 Frc consts  --      1.4867                 0.9377                 1.1757
 IR Inten    --      4.9528                 0.8393                12.9084

                     52                     53                     54
                      A                      A                      A
 Frequencies --   1204.3048              1206.6342              1215.8592
 Red. masses --      1.6986                 1.4748                 2.1052
 Frc consts  --      1.4515                 1.2651                 1.8336
 IR Inten    --     15.8410                 8.8985                 6.2929

                     55                     56                     57
                      A                      A                      A
 Frequencies --   1226.1613              1250.6937              1275.3844
 Red. masses --      1.5398                 1.7648                 1.4676
 Frc consts  --      1.3640                 1.6265                 1.4065
 IR Inten    --      4.8510                 7.0277                 8.8761

                     58                     59                     60
                      A                      A                      A
 Frequencies --   1278.1132              1285.8832              1294.5089
 Red. masses --      1.5203                 1.5612                 1.3078
 Frc consts  --      1.4633                 1.5209                 1.2912
 IR Inten    --      6.0197                22.7423                14.8887

                     61                     62                     63
                      A                      A                      A
 Frequencies --   1299.9328              1312.8937              1315.9518
 Red. masses --      2.2272                 1.5361                 1.3407
 Frc consts  --      2.2174                 1.5600                 1.3679
 IR Inten    --     61.7028                 5.9123                 5.6899

                     64                     65                     66
                      A                      A                      A
 Frequencies --   1342.1514              1379.9194              1385.2709
 Red. masses --      2.9409                 1.6555                 1.5150
 Frc consts  --      3.1213                 1.8573                 1.7129
 IR Inten    --      7.2667                 6.6295                 1.0412

                     67                     68                     69
                      A                      A                      A
 Frequencies --   1394.5251              1398.9265              1406.2092
 Red. masses --      1.4890                 1.3715                 1.5916
 Frc consts  --      1.7061                 1.5814                 1.8543
 IR Inten    --      1.9134                 8.3520                 5.4448

                     70                     71                     72
                      A                      A                      A
 Frequencies --   1433.0506              1482.8086              1493.7304
 Red. masses --      1.3316                 1.8846                 1.0973
 Frc consts  --      1.6112                 2.4413                 1.4426
 IR Inten    --     15.6194                38.4932                 2.3035

                     73                     74                     75
                      A                      A                      A
 Frequencies --   1507.2684              1510.6608              1516.2440
 Red. masses --      1.1589                 2.3126                 1.0977
 Frc consts  --      1.5513                 3.1095                 1.4868
 IR Inten    --     24.2246                29.0073                 1.2808

                     76                     77                     78
                      A                      A                      A
 Frequencies --   1519.4909              1522.1439              1533.6208
 Red. masses --      1.1380                 1.0948                 1.1110
 Frc consts  --      1.5481                 1.4945                 1.5396
 IR Inten    --      2.8594                 3.6367                 1.1252

                     79                     80                     81
                      A                      A                      A
 Frequencies --   1551.4507              1644.6098              1657.7119
 Red. masses --      1.6942                 6.3348                 5.2726
 Frc consts  --      2.4027                10.0950                 8.5368
 IR Inten    --     14.3054                37.7268                 8.1650

                     82                     83                     84
                      A                      A                      A
 Frequencies --   1697.4428              3001.4728              3016.4530
 Red. masses --      1.0904                 1.0717                 1.0690
 Frc consts  --      1.8511                 5.6885                 5.7311
 IR Inten    --     25.1679                34.8334                22.2278

                     85                     86                     87
                      A                      A                      A
 Frequencies --   3030.7623              3037.6064              3047.7758
 Red. masses --      1.0672                 1.0611                 1.0612
 Frc consts  --      5.7754                 5.7687                 5.8079
 IR Inten    --     20.3030                34.0842                35.3316

                     88                     89                     90
                      A                      A                      A
 Frequencies --   3063.3587              3068.2674              3078.9021
 Red. masses --      1.0925                 1.0636                 1.0894
 Frc consts  --      6.0405                 5.8994                 6.0846
 IR Inten    --     40.0769                21.3383                14.7838

                     91                     92                     93
                      A                      A                      A
 Frequencies --   3081.7030              3084.8049              3085.1574
 Red. masses --      1.0961                 1.0881                 1.1012
 Frc consts  --      6.1332                 6.1007                 6.1755
 IR Inten    --     72.3711                72.8396                34.4389

                     94                     95                     96
                      A                      A                      A
 Frequencies --   3101.2180              3115.7480              3130.9616
 Red. masses --      1.0977                 1.0969                 1.1021
 Frc consts  --      6.2200                 6.2741                 6.3654
 IR Inten    --      9.8399                25.5138                38.3998

                     97                     98                     99
                      A                      A                      A
 Frequencies --   3168.0607              3175.6373              3199.6364
 Red. masses --      1.0864                 1.0897                 1.0962
 Frc consts  --      6.4244                 6.4744                 6.6122
 IR Inten    --      6.2834                26.9989                32.1562

                    100                    101                    102
                      A                      A                      A
 Frequencies --   3450.6307              3495.0878              3535.6557
 Red. masses --      1.0492                 1.0736                 1.0922
 Frc consts  --      7.3605                 7.7272                 8.0446
 IR Inten    --      2.0508                 0.0571                 1.7653

 - Thermochemistry -
 -------------------
 Temperature   298.150 Kelvin.  Pressure   1.00000 Atm.
 Atom     1 has atomic number  6 and mass  12.00000

 Molecular mass:   216.16265 amu.
 Principal axes and moments of inertia in atomic units:
                           1         2         3
     Eigenvalues --  2054.346315713.161866887.93404
           X            0.99994  -0.01000   0.00470
           Y            0.00998   0.99994   0.00444
           Z           -0.00474  -0.00439   0.99998
 This molecule is an asymmetric top.
 Rotational symmetry number  1.
 Warning -- assumption of classical behavior for rotation
           may cause significant error
 Rotational temperatures (Kelvin)      0.04216     0.01516     0.01257
 Rotational constants (GHZ):           0.87850     0.31589     0.26201
 Zero-point vibrational energy     843295.7 (Joules/Mol)
                                  201.55250 (Kcal/Mol)
 Warning -- explicit consideration of  22 degrees of freedom as
           vibrations may cause significant error
 Vibrational temperatures:     46.52    62.99    73.98   139.19   165.29
          (Kelvin)            207.22   308.88   358.00   385.40   394.19
                              444.88   466.89   534.85   580.79   621.45
                              648.58   652.53   700.03   743.91   801.22
                              846.52   879.75   952.98  1008.70  1058.60
                             1139.10  1160.76  1174.27  1187.36  1196.23
                             1229.22  1269.61  1273.52  1283.13  1327.27
                             1340.72  1348.97  1368.85  1377.75  1413.76
                             1427.27  1452.03  1518.11  1557.61  1572.44
                             1605.14  1607.90  1636.69  1656.28  1680.49
                             1714.86  1732.73  1736.08  1749.35  1764.17
                             1799.47  1834.99  1838.92  1850.10  1862.51
                             1870.31  1888.96  1893.36  1931.06  1985.40
                             1993.10  2006.41  2012.74  2023.22  2061.84
                             2133.43  2149.14  2168.62  2173.50  2181.54
                             2186.21  2190.03  2206.54  2232.19  2366.23
                             2385.08  2442.24  4318.45  4340.00  4360.59
                             4370.44  4385.07  4407.49  4414.55  4429.85
                             4433.88  4438.35  4438.85  4461.96  4482.87
                             4504.76  4558.13  4569.03  4603.56  4964.69
                             5028.65  5087.02

 Zero-point correction=                           0.321194 (Hartree/Particle)
 Thermal correction to Energy=                    0.335580
 Thermal correction to Enthalpy=                  0.336524
 Thermal correction to Gibbs Free Energy=         0.279000
 Sum of electronic and zero-point Energies=           -654.758094
 Sum of electronic and thermal Energies=              -654.743708
 Sum of electronic and thermal Enthalpies=            -654.742764
 Sum of electronic and thermal Free Energies=         -654.800288

                     E (Thermal)             CV                S
                      KCal/Mol        Cal/Mol-Kelvin    Cal/Mol-Kelvin
 Total                  210.580             57.855            121.070
 Electronic               0.000              0.000              0.000
 Translational            0.889              2.981             42.016
 Rotational               0.889              2.981             32.758
 Vibrational            208.802             51.893             46.296
 Vibration     1          0.594              1.983              5.681
 Vibration     2          0.595              1.980              5.080
 Vibration     3          0.596              1.977              4.762
 Vibration     4          0.603              1.951              3.519
 Vibration     5          0.608              1.937              3.185
 Vibration     6          0.616              1.909              2.750
 Vibration     7          0.645              1.819              2.003
 Vibration     8          0.662              1.765              1.739
 Vibration     9          0.673              1.732              1.610
 Vibration    10          0.676              1.721              1.571
 Vibration    11          0.699              1.656              1.367
 Vibration    12          0.709              1.626              1.287
 Vibration    13          0.743              1.530              1.073
 Vibration    14          0.769              1.462              0.949
 Vibration    15          0.793              1.401              0.852
 Vibration    16          0.810              1.359              0.793
 Vibration    17          0.812              1.353              0.785
 Vibration    18          0.843              1.280              0.693
 Vibration    19          0.872              1.212              0.617
 Vibration    20          0.912              1.125              0.530
 Vibration    21          0.946              1.057              0.470
 Vibration    22          0.971              1.008              0.430

 Optimization completed.
    -- Stationary point found.
 Normal termination of Gaussian 16 at Fri Dec 11 00:24:02 2020.

 ----------------------------------------------------------------------
 # B3LYP/6-311++G(d,p) empiricaldispersion=gd3bj scf=xqc pop=npa geom=c
 heck
 ----------------------------------------------------------------------

 --------------------------------------
 CID_80559431_JID_6675_Energie_neutraal
 --------------------------------------
 Structure from the checkpoint file:  "JID_6675.chk"
 Charge =  0 Multiplicity = 1

 SCF Done:  E(RB3LYP) =  -655.259682878     A.U. after   14 cycles
 Normal termination of Gaussian 16 at Fri Dec 11 00:28:56 2020.

 ----------------------------------------------------------------------
 # B3LYP/6-311++G(d,p) empiricaldispersion=gd3bj scf=xqc pop=npa geom=c
 heck
 ----------------------------------------------------------------------

 ------------------------------------
 CID_80559431_JID_6675_Energie_kation
 ------------------------------------
 Structure from the checkpoint file:  "JID_6675.chk"
 Charge =  1 Multiplicity = 2

 SCF Done:  E(UB3LYP) =  -654.983682896     A.U. after   27 cycles
 Normal termination of Gaussian 16 at Fri Dec 11 00:41:41 2020.
 Gaussian 16:  ES64L-G16RevA.03 25-Dec-2016

 ----------------------------------------------------------------------
 # B3LYP/6-311++G(d,p) empiricaldispersion=gd3bj scf=xqc pop=npa geom=c
 heck
 ----------------------------------------------------------------------

 -----------------------------------
 CID_80559431_JID_6675_Energie_anion
 -----------------------------------
 Structure from the checkpoint file:  "JID_6675.chk"
 Charge = -1 Multiplicity = 2

                         Standard orientation:
 ---------------------------------------------------------------------
 Center     Atomic      Atomic             Coordinates (Angstroms)
 Number     Number       Type             X           Y           Z
 ---------------------------------------------------------------------
      1          6           0        3.123199   -2.039204    0.567165
      2          6           0        2.280309   -2.283398   -0.685815
      3          6           0        0.984470   -1.473227   -0.599705
      4          6           0        1.220553   -0.014489   -0.265130
      5          6           0        2.427247    0.409246    0.316218
      6          6           0        3.546162   -0.569350    0.631433
      7          6           0        2.646426    1.770932    0.562722
      8          6           0        1.685871    2.717683    0.228134
      9          6           0        0.480727    2.305674   -0.336025
     10          6           0        0.236322    0.950379   -0.581121
     11          7           0       -0.982994    0.553407   -1.198722
     12          6           0       -1.959934   -0.117374   -0.352642
     13          6           0       -3.349706   -0.371674   -0.978254
     14          6           0       -3.994223   -0.044475    0.409815
     15          6           0       -2.662392    0.639686    0.816394
     16          7           0       -4.323578   -1.166199    1.285333
     17          1           0        2.528005   -2.296007    1.454709
     18          1           0        4.010342   -2.683107    0.582166
     19          1           0        2.850652   -1.981823   -1.575286
     20          1           0        2.045983   -3.348165   -0.801535
     21          1           0        0.412327   -1.530787   -1.533045
     22          1           0        0.349338   -1.935031    0.171988
     23          1           0        3.967795   -0.333924    1.616914
     24          1           0        4.361349   -0.403691   -0.088734
     25          1           0        3.587223    2.082982    1.010294
     26          1           0        1.864726    3.772567    0.417573
     27          1           0       -0.285505    3.036322   -0.585920
     28          1           0       -1.426018    1.367082   -1.620225
     29          1           0       -1.520844   -1.049307    0.009456
     30          1           0       -3.589094    0.393468   -1.727761
     31          1           0       -3.545107   -1.358442   -1.411755
     32          1           0       -4.871017    0.609338    0.368092
     33          1           0       -2.314327    0.458299    1.837749
     34          1           0       -2.681535    1.719916    0.635523
     35          1           0       -5.067341   -1.722516    0.864291
     36          1           0       -3.521125   -1.790091    1.370102
 ---------------------------------------------------------------------

 SCF Done:  E(UB3LYP) =  -655.246527476     A.U. after   33 cycles
 SCF Done:  E(UB3LYP) =  -655.246527476     a.u. after    1 cycles

 The electronic state is 2-A.
 Alpha  occ. eigenvalues --  -14.21526 -14.19521 -10.10866 -10.10411 -10.10046
 Alpha  occ. eigenvalues --  -10.08381 -10.07941 -10.07856 -10.07741 -10.07249
 Alpha  occ. eigenvalues --  -10.07210 -10.07120 -10.07044 -10.07018 -10.06540
 Alpha  occ. eigenvalues --  -10.06389  -0.83569  -0.79574  -0.76187  -0.71888
 Alpha  occ. eigenvalues --   -0.70410  -0.66198  -0.64576  -0.61471  -0.56617
 Alpha  occ. eigenvalues --   -0.54458  -0.53497  -0.51756  -0.49394  -0.46125
 Alpha  occ. eigenvalues --   -0.45345  -0.41667  -0.40698  -0.39161  -0.38038
 Alpha  occ. eigenvalues --   -0.37760  -0.36346  -0.35571  -0.33685  -0.33245
 Alpha  occ. eigenvalues --   -0.32013  -0.31090  -0.29836  -0.29546  -0.29169
 Alpha  occ. eigenvalues --   -0.28471  -0.27948  -0.27151  -0.26095  -0.24783
 Alpha  occ. eigenvalues --   -0.24071  -0.23298  -0.22443  -0.21778  -0.20917
 Alpha  occ. eigenvalues --   -0.17273  -0.14538  -0.14169  -0.11859   0.04220
 Alpha virt. eigenvalues --    0.05901   0.06233   0.07352   0.07642   0.07909
 Alpha virt. eigenvalues --    0.08371   0.08708   0.09090   0.09351   0.09768
 Alpha virt. eigenvalues --    0.10481   0.10682   0.11153   0.11535   0.12301

  Beta  occ. eigenvalues --  -14.21515 -14.19481 -10.10863 -10.10403 -10.10033
  Beta  occ. eigenvalues --  -10.08378 -10.07924 -10.07845 -10.07725 -10.07238
  Beta  occ. eigenvalues --  -10.07190 -10.07117 -10.07029 -10.07006 -10.06515
  Beta  occ. eigenvalues --  -10.06375  -0.83544  -0.79516  -0.76160  -0.71857
  Beta  occ. eigenvalues --   -0.70367  -0.66167  -0.64541  -0.61444  -0.56566
  Beta  occ. eigenvalues --   -0.54417  -0.53453  -0.51715  -0.49362  -0.46069
  Beta  occ. eigenvalues --   -0.45292  -0.41631  -0.40647  -0.39121  -0.38005
  Beta  occ. eigenvalues --   -0.37724  -0.36318  -0.35525  -0.33655  -0.33216
  Beta  occ. eigenvalues --   -0.31987  -0.31039  -0.29801  -0.29516  -0.29139
  Beta  occ. eigenvalues --   -0.28440  -0.27921  -0.27127  -0.26065  -0.24750
  Beta  occ. eigenvalues --   -0.24036  -0.23262  -0.22412  -0.21752  -0.20883
  Beta  occ. eigenvalues --   -0.17243  -0.14484  -0.14124  -0.11834
  Beta virt. eigenvalues --    0.06173   0.06771   0.06957   0.07837   0.07943
  Beta virt. eigenvalues --    0.08190   0.08607   0.08911   0.09384   0.09806
  Beta virt. eigenvalues --    0.09929   0.10755   0.11016   0.11392   0.11765

 Mulliken charges and spin densities:
               1          2
     1  C   -0.272329  -0.109302
     2  C   -0.213198  -0.365015
     3  C    0.942823  -1.105743
     4  C   -0.431460   0.551487
     5  C   -0.432886   0.781390
     6  C    0.793192  -1.311501
     7  C   -0.175040  -0.091920
     8  C    0.246417  -0.607831
     9  C   -0.393676   0.217184
    10  C    0.228828  -0.063500
    11  N    0.185485  -0.052161
    12  C   -1.969968   1.596687
    13  C    1.420754  -1.901265
    14  C   -0.494792   0.578405
    15  C    0.737037  -1.323908
    16  N   -0.195822  -0.126992
    17  H    0.014434   0.135210
    18  H   -0.249405   0.419527
    19  H    0.116944   0.011515
    20  H   -0.349395   0.529473
    21  H    0.217044  -0.010756
    22  H   -0.194954   0.288595
    23  H    0.062579   0.079105
    24  H    0.039726   0.133172
    25  H   -0.066987   0.209052
    26  H    0.000624   0.154262
    27  H   -0.455732   0.584160
    28  H    0.184518   0.054521
    29  H    0.352154  -0.183114
    30  H   -0.167626   0.260864
    31  H   -0.206738   0.402917
    32  H   -0.332891   0.553231
    33  H    0.129445   0.078072
    34  H    0.064476   0.056209
    35  H   -0.065803   0.290731
    36  H   -0.067777   0.287239
 Sum of Mulliken charges =  -1.00000   1.00000

 Dipole moment (field-independent basis, Debye):
    X=              4.3179    Y=              2.6229    Z=             -0.6810  Tot=              5.0978
 Quadrupole moment (field-independent basis, Debye-Ang):
   XX=           -183.6822   YY=           -150.4103   ZZ=           -130.8173
   XY=              1.0281   XZ=              2.4899   YZ=              2.7532

 Summary of Natural Population Analysis:

                                       Natural Population
                Natural  -----------------------------------------------
    Atom  No    Charge         Core      Valence    Rydberg      Total
 -----------------------------------------------------------------------
      C    1   -0.18832      0.99963     2.18065    0.00803     3.18832
      C    2   -0.18643      0.99963     2.17813    0.00866     3.18643
      C    3   -0.20149      0.99960     2.19263    0.00926     3.20149
      C    4   -0.02133      0.99943     2.01326    0.00864     3.02133
      C    5   -0.00842      0.99948     2.00070    0.00823     3.00842
      C    6   -0.19564      0.99960     2.18705    0.00900     3.19564
      C    7   -0.11062      0.99952     2.10229    0.00881     3.11062
      C    8   -0.09572      0.99956     2.08663    0.00952     3.09572
      C    9   -0.12070      0.99951     2.11108    0.01011     3.12070
      C   10    0.08837      0.99943     1.90083    0.01137     2.91163
      N   11   -0.32427      0.99969     2.81312    0.01146     3.82427
      C   12   -0.01274      0.99956     2.00020    0.01297     3.01274
      C   13   -0.19645      0.99961     2.18742    0.00942     3.19645
      C   14   -0.01376      0.99963     1.99962    0.01451     3.01376
      C   15   -0.19747      0.99961     2.19059    0.00726     3.19747
      N   16   -0.41877      0.99977     2.90816    0.01084     3.91877
      H   17    0.09478      0.00000     0.40384    0.00137     0.40522
      H   18    0.09853      0.00000     0.40033    0.00114     0.40147
      H   19    0.09218      0.00000     0.40663    0.00119     0.40782
      H   20    0.10105      0.00000     0.39781    0.00115     0.39895
      H   21    0.11123      0.00000     0.38735    0.00142     0.38877
      H   22    0.10114      0.00000     0.39705    0.00180     0.39886
      H   23    0.10220      0.00000     0.39678    0.00102     0.39780
      H   24    0.09970      0.00000     0.39911    0.00120     0.40030
      H   25    0.09608      0.00000     0.40270    0.00122     0.40392
      H   26    0.09824      0.00000     0.40093    0.00083     0.40176
      H   27    0.09949      0.00000     0.39921    0.00130     0.40051
      H   28    0.17591      0.00000     0.32105    0.00304     0.32409
      H   29    0.09612      0.00000     0.40145    0.00244     0.40388
      H   30    0.09796      0.00000     0.40030    0.00175     0.40204
      H   31    0.10015      0.00000     0.39816    0.00169     0.39985
      H   32    0.08950      0.00000     0.40931    0.00119     0.41050
      H   33    0.10175      0.00000     0.39715    0.00109     0.39825
      H   34    0.10069      0.00000     0.39783    0.00148     0.39931
      H   35    0.17519      0.00000     0.32255    0.00226     0.32481
      H   36    0.17186      0.00000     0.32572    0.00242     0.32814
 =======================================================================
   * Total *    0.00000     15.99328    42.81762    0.18909    59.00000

 Normal termination of Gaussian 16 at Fri Dec 11 00:57:06 2020.
