 Gaussian 16, Revision A.03,

 -----------------------------------------------------------
 # opt freq B3LYP/6-31G(d) empiricaldispersion=gd3bj scf=xqc
 -----------------------------------------------------------

 -------------------------------
 CID_131173580_JID_3410_neutraal
 -------------------------------
 Symbolic Z-matrix:
 Charge =  0 Multiplicity = 1

 SCF Done:  E(RB3LYP) =  -607.532534494     A.U. after   14 cycles
 SCF Done:  E(RB3LYP) =  -607.537591896     A.U. after   11 cycles
 SCF Done:  E(RB3LYP) =  -607.538307101     A.U. after   11 cycles
 SCF Done:  E(RB3LYP) =  -607.538515102     A.U. after   11 cycles
 SCF Done:  E(RB3LYP) =  -607.538571352     A.U. after   10 cycles
 SCF Done:  E(RB3LYP) =  -607.538601758     A.U. after   10 cycles
 SCF Done:  E(RB3LYP) =  -607.538611395     A.U. after    9 cycles
 SCF Done:  E(RB3LYP) =  -607.538613042     A.U. after    8 cycles
 SCF Done:  E(RB3LYP) =  -607.538613952     A.U. after    8 cycles
 SCF Done:  E(RB3LYP) =  -607.538614571     A.U. after    8 cycles
 SCF Done:  E(RB3LYP) =  -607.538622189     A.U. after    8 cycles
 SCF Done:  E(RB3LYP) =  -607.538622776     A.U. after    8 cycles
 SCF Done:  E(RB3LYP) =  -607.538623257     A.U. after    8 cycles
 SCF Done:  E(RB3LYP) =  -607.538623680     A.U. after    8 cycles
 SCF Done:  E(RB3LYP) =  -607.538623798     A.U. after    7 cycles
 Optimization completed.
    -- Stationary point found.
 Normal termination of Gaussian 16 at Wed Dec  9 23:14:13 2020.

 --------------------------------------------------------------------
 #N Geom=AllCheck Guess=TCheck SCRF=Check GenChk RB3LYP/6-31G(d) Freq
 --------------------------------------------------------------------

 Structure from the checkpoint file:  "JID_3410.chk"
 -------------------------------
 CID_131173580_JID_3410_neutraal
 -------------------------------
 Charge =  0 Multiplicity = 1

 SCF Done:  E(RB3LYP) =  -607.538623798     A.U. after    1 cycles

  Exact polarizability: 114.249 -17.101  96.465  -1.709   1.255 104.628
 Approx polarizability: 146.057 -29.070 141.601  -0.057   3.283 172.480

                      1                      2                      3
                      A                      A                      A
 Frequencies --     26.4388                29.8951                38.6552
 Red. masses --      5.0817                 5.1764                 3.6659
 Frc consts  --      0.0021                 0.0027                 0.0032
 IR Inten    --      2.2774                 2.4329                 3.0786

                      4                      5                      6
                      A                      A                      A
 Frequencies --     61.6228               137.8866               159.8514
 Red. masses --      2.9168                 3.1760                 3.0169
 Frc consts  --      0.0065                 0.0356                 0.0454
 IR Inten    --      0.5491                 0.3440                 2.7887

                      7                      8                      9
                      A                      A                      A
 Frequencies --    198.8823               261.5831               290.3578
 Red. masses --      2.7457                 2.7986                 1.3833
 Frc consts  --      0.0640                 0.1128                 0.0687
 IR Inten    --      4.1275                 5.6007                25.6475

                     10                     11                     12
                      A                      A                      A
 Frequencies --    326.3046               353.0059               419.6149
 Red. masses --      2.1211                 3.4999                 1.8987
 Frc consts  --      0.1331                 0.2570                 0.1970
 IR Inten    --      4.0624                10.6807                 0.1268

                     13                     14                     15
                      A                      A                      A
 Frequencies --    434.4353               459.0515               501.3390
 Red. masses --      2.3203                 2.0858                 2.1675
 Frc consts  --      0.2580                 0.2590                 0.3210
 IR Inten    --     51.3741                38.2723                22.1610

                     16                     17                     18
                      A                      A                      A
 Frequencies --    574.3316               629.7097               649.4690
 Red. masses --      2.6114                 2.0512                 2.1261
 Frc consts  --      0.5075                 0.4792                 0.5284
 IR Inten    --      0.8166               201.9854                57.7688

                     19                     20                     21
                      A                      A                      A
 Frequencies --    674.8494               709.2624               764.5749
 Red. masses --      3.0752                 2.6977                 8.0792
 Frc consts  --      0.8251                 0.7996                 2.7826
 IR Inten    --      2.9857                53.0052                26.8794

                     22                     23                     24
                      A                      A                      A
 Frequencies --    792.9767               822.7244               882.3499
 Red. masses --      3.1429                 2.7444                 1.7662
 Frc consts  --      1.1644                 1.0945                 0.8102
 IR Inten    --     29.6220                18.8685                 3.1731

                     25                     26                     27
                      A                      A                      A
 Frequencies --    922.0854               928.4260               957.5935
 Red. masses --      2.0671                 3.0130                 1.8726
 Frc consts  --      1.0355                 1.5302                 1.0117
 IR Inten    --      0.3537                18.8843                 7.5745

                     28                     29                     30
                      A                      A                      A
 Frequencies --    974.7636               987.3066              1017.8905
 Red. masses --      2.5739                 1.3267                 2.5364
 Frc consts  --      1.4409                 0.7620                 1.5483
 IR Inten    --     13.0084                 0.6143                 4.1931

                     31                     32                     33
                      A                      A                      A
 Frequencies --   1031.9321              1076.8609              1091.6708
 Red. masses --      4.5058                 3.8979                 3.2136
 Frc consts  --      2.8270                 2.6632                 2.2564
 IR Inten    --      9.3645                 6.4435                46.8990

                     34                     35                     36
                      A                      A                      A
 Frequencies --   1102.1906              1124.0776              1140.6403
 Red. masses --      1.8549                 3.1737                 2.8818
 Frc consts  --      1.3276                 2.3627                 2.2091
 IR Inten    --     27.9737                47.4092                34.9194

                     37                     38                     39
                      A                      A                      A
 Frequencies --   1144.2105              1183.5270              1199.1550
 Red. masses --      1.9190                 4.3512                 1.2928
 Frc consts  --      1.4803                 3.5910                 1.0953
 IR Inten    --      1.6551                 5.9488                 6.6398

                     40                     41                     42
                      A                      A                      A
 Frequencies --   1214.8792              1244.4500              1251.7661
 Red. masses --      1.3755                 1.2496                 1.3138
 Frc consts  --      1.1961                 1.1402                 1.2129
 IR Inten    --      2.6518                 1.8621                13.7094

                     43                     44                     45
                      A                      A                      A
 Frequencies --   1290.7488              1298.9953              1326.1999
 Red. masses --      1.3171                 1.4105                 1.3401
 Frc consts  --      1.2928                 1.4023                 1.3887
 IR Inten    --      2.8509                 0.7560                 1.9802

                     46                     47                     48
                      A                      A                      A
 Frequencies --   1346.6973              1380.7102              1384.0742
 Red. masses --      1.1993                 1.3147                 1.3184
 Frc consts  --      1.2815                 1.4767                 1.4880
 IR Inten    --      0.9192                 2.4617                12.8831

                     49                     50                     51
                      A                      A                      A
 Frequencies --   1396.8362              1416.1927              1432.3188
 Red. masses --      1.4091                 1.6277                 2.2163
 Frc consts  --      1.6198                 1.9234                 2.6789
 IR Inten    --     25.7724                11.5325                27.2637

                     52                     53                     54
                      A                      A                      A
 Frequencies --   1437.4790              1494.5435              1510.7849
 Red. masses --      1.8085                 2.2979                 1.1963
 Frc consts  --      2.2017                 3.0242                 1.6087
 IR Inten    --      6.9625                71.3465                 8.3801

                     55                     56                     57
                      A                      A                      A
 Frequencies --   1518.6786              1518.8232              1551.8737
 Red. masses --      1.2039                 1.1736                 1.0870
 Frc consts  --      1.6360                 1.5951                 1.5424
 IR Inten    --     19.4880                 5.0878                 3.1514

                     58                     59                     60
                      A                      A                      A
 Frequencies --   1564.1143              1585.3286              1607.0778
 Red. masses --      1.0965                 3.2811                 4.2468
 Frc consts  --      1.5804                 4.8586                 6.4623
 IR Inten    --      0.0852                31.1993               114.1057

                     61                     62                     63
                      A                      A                      A
 Frequencies --   1678.1801              2998.3126              3007.7710
 Red. masses --      1.4872                 1.0710                 1.0700
 Frc consts  --      2.4677                 5.6728                 5.7031
 IR Inten    --    193.4019               102.0250                23.7065

                     64                     65                     66
                      A                      A                      A
 Frequencies --   3040.8030              3044.6065              3052.0294
 Red. masses --      1.0703                 1.0663                 1.0659
 Frc consts  --      5.8311                 5.8236                 5.8499
 IR Inten    --      6.6859                21.5403                12.0217

                     67                     68                     69
                      A                      A                      A
 Frequencies --   3055.2860              3071.5863              3084.6000
 Red. masses --      1.0694                 1.0957                 1.1030
 Frc consts  --      5.8818                 6.0909                 6.1836
 IR Inten    --     39.9518                51.4613                12.2071

                     70                     71                     72
                      A                      A                      A
 Frequencies --   3091.2387              3101.3893              3111.0947
 Red. masses --      1.0925                 1.1014                 1.1016
 Frc consts  --      6.1509                 6.2416                 6.2818
 IR Inten    --     50.0737                41.1269                47.7461

                     73                     74                     75
                      A                      A                      A
 Frequencies --   3563.0100              3662.6035              3668.9606
 Red. masses --      1.0473                 1.0816                 1.0987
 Frc consts  --      7.8335                 8.5486                 8.7143
 IR Inten    --     20.4020                50.6979                23.2147

 - Thermochemistry -
 -------------------
 Temperature   298.150 Kelvin.  Pressure   1.00000 Atm.
 Atom     1 has atomic number  6 and mass  12.00000

 Molecular mass:   182.11676 amu.
 Principal axes and moments of inertia in atomic units:
                           1         2         3
     Eigenvalues --  1177.528674541.095754651.39859
           X            0.99993  -0.01007  -0.00651
           Y            0.01017   0.99984   0.01491
           Z            0.00636  -0.01498   0.99987
 This molecule is an asymmetric top.
 Rotational symmetry number  1.
 Warning -- assumption of classical behavior for rotation
           may cause significant error
 Rotational temperatures (Kelvin)      0.07356     0.01907     0.01862
 Rotational constants (GHZ):           1.53265     0.39742     0.38800
 Zero-point vibrational energy     610607.2 (Joules/Mol)
                                  145.93862 (Kcal/Mol)
 Warning -- explicit consideration of  16 degrees of freedom as
           vibrations may cause significant error
 Vibrational temperatures:     38.04    43.01    55.62    88.66   198.39
          (Kelvin)            229.99   286.15   376.36   417.76   469.48
                              507.90   603.73   625.06   660.47   721.32
                              826.34   906.01   934.44   970.96  1020.47
                             1100.05  1140.92  1183.72  1269.50  1326.68
                             1335.80  1377.76  1402.47  1420.51  1464.52
                             1484.72  1549.36  1570.67  1585.81  1617.30
                             1641.13  1646.26  1702.83  1725.32  1747.94
                             1790.49  1801.01  1857.10  1868.96  1908.11
                             1937.60  1986.53  1991.37  2009.74  2037.59
                             2060.79  2068.21  2150.31  2173.68  2185.04
                             2185.25  2232.80  2250.41  2280.93  2312.23
                             2414.53  4313.90  4327.51  4375.04  4380.51
                             4391.19  4395.88  4419.33  4438.05  4447.60
                             4462.21  4476.17  5126.38  5269.67  5278.82

 Zero-point correction=                           0.232568 (Hartree/Particle)
 Thermal correction to Energy=                    0.244998
 Thermal correction to Enthalpy=                  0.245942
 Thermal correction to Gibbs Free Energy=         0.191183
 Sum of electronic and zero-point Energies=           -607.306056
 Sum of electronic and thermal Energies=              -607.293626
 Sum of electronic and thermal Enthalpies=            -607.292682
 Sum of electronic and thermal Free Energies=         -607.347441

                     E (Thermal)             CV                S
                      KCal/Mol        Cal/Mol-Kelvin    Cal/Mol-Kelvin
 Total                  153.739             45.941            115.251
 Electronic               0.000              0.000              0.000
 Translational            0.889              2.981             41.505
 Rotational               0.889              2.981             31.587
 Vibrational            151.961             39.979             42.159
 Vibration     1          0.593              1.985              6.080
 Vibration     2          0.594              1.984              5.836
 Vibration     3          0.594              1.981              5.327
 Vibration     4          0.597              1.973              4.405
 Vibration     5          0.614              1.915              2.833
 Vibration     6          0.622              1.892              2.552
 Vibration     7          0.637              1.841              2.143
 Vibration     8          0.669              1.743              1.651
 Vibration     9          0.686              1.692              1.472
 Vibration    10          0.710              1.623              1.278
 Vibration    11          0.729              1.569              1.153
 Vibration    12          0.782              1.428              0.893
 Vibration    13          0.795              1.395              0.844
 Vibration    14          0.817              1.341              0.769
 Vibration    15          0.857              1.247              0.655
 Vibration    16          0.931              1.087              0.496

                           ! Non-Optimized Parameters !
 Normal termination of Gaussian 16 at Wed Dec  9 23:20:24 2020.

 ----------------------------------------------------------------------
 # B3LYP/6-311++G(d,p) empiricaldispersion=gd3bj scf=xqc pop=npa geom=c
 heck
 ----------------------------------------------------------------------

 ---------------------------------------
 CID_131173580_JID_3410_Energie_neutraal
 ---------------------------------------
 Structure from the checkpoint file:  "JID_3410.chk"
 Charge =  0 Multiplicity = 1

 SCF Done:  E(RB3LYP) =  -607.718009564     A.U. after   14 cycles
 Normal termination of Gaussian 16 at Wed Dec  9 23:23:00 2020.

 ----------------------------------------------------------------------
 # B3LYP/6-311++G(d,p) empiricaldispersion=gd3bj scf=xqc pop=npa geom=c
 heck
 ----------------------------------------------------------------------

 -------------------------------------
 CID_131173580_JID_3410_Energie_kation
 -------------------------------------
 Structure from the checkpoint file:  "JID_3410.chk"
 Charge =  1 Multiplicity = 2

 SCF Done:  E(UB3LYP) =  -607.419286100     A.U. after   25 cycles
 Normal termination of Gaussian 16 at Wed Dec  9 23:30:02 2020.
 Gaussian 16:  ES64L-G16RevA.03 25-Dec-2016

 ----------------------------------------------------------------------
 # B3LYP/6-311++G(d,p) empiricaldispersion=gd3bj scf=xqc pop=npa geom=c
 heck
 ----------------------------------------------------------------------

 ------------------------------------
 CID_131173580_JID_3410_Energie_anion
 ------------------------------------
 Structure from the checkpoint file:  "JID_3410.chk"
 Charge = -1 Multiplicity = 2

                         Standard orientation:
 ---------------------------------------------------------------------
 Center     Atomic      Atomic             Coordinates (Angstroms)
 Number     Number       Type             X           Y           Z
 ---------------------------------------------------------------------
      1          6           0       -2.140133    0.283086    1.018897
      2          6           0       -3.105754   -0.898226    1.112801
      3          8           0       -3.593052   -1.113369   -0.212542
      4          6           0       -2.709463   -0.500504   -1.155397
      5          6           0       -1.512711    0.057881   -0.366176
      6          6           0       -0.873693    1.285189   -1.013888
      7          6           0        0.284576    1.881887   -0.193957
      8          6           0        1.372617    0.887674    0.053748
      9          7           0        2.006473    0.169107   -0.865772
     10          6           0        2.872119   -0.590962   -0.125413
     11          7           0        2.814564   -0.404183    1.190422
     12          7           0        1.837274    0.555304    1.275745
     13          7           0        3.775972   -1.449274   -0.722689
     14          1           0       -2.690213    1.233232    1.036651
     15          1           0       -1.406147    0.293938    1.830899
     16          1           0       -2.583555   -1.798268    1.474677
     17          1           0       -3.963059   -0.714875    1.769168
     18          1           0       -3.248232    0.306400   -1.675602
     19          1           0       -2.404968   -1.241037   -1.905090
     20          1           0       -0.752139   -0.728421   -0.278337
     21          1           0       -0.490618    1.015457   -2.004674
     22          1           0       -1.635968    2.062019   -1.159527
     23          1           0        0.700793    2.742329   -0.731772
     24          1           0       -0.086182    2.258250    0.767164
     25          1           0        1.579335    0.924205    2.178663
     26          1           0        3.458271   -1.793196   -1.619779
     27          1           0        4.101768   -2.185909   -0.109722
 ---------------------------------------------------------------------

 SCF Done:  E(UB3LYP) =  -607.707501490     A.U. after   33 cycles
 SCF Done:  E(UB3LYP) =  -607.707501490     a.u. after    1 cycles

 The electronic state is 2-A.
 Alpha  occ. eigenvalues --  -19.02189 -14.28014 -14.22424 -14.22077 -14.19529
 Alpha  occ. eigenvalues --  -10.14903 -10.14084 -10.11683 -10.11524 -10.08518
 Alpha  occ. eigenvalues --  -10.07840 -10.07712 -10.06742  -0.96740  -0.93807
 Alpha  occ. eigenvalues --   -0.82846  -0.78321  -0.72888  -0.70496  -0.65603
 Alpha  occ. eigenvalues --   -0.63803  -0.55884  -0.51846  -0.50272  -0.49773
 Alpha  occ. eigenvalues --   -0.47629  -0.44833  -0.40892  -0.40028  -0.39062
 Alpha  occ. eigenvalues --   -0.37139  -0.36180  -0.34949  -0.34135  -0.32246
 Alpha  occ. eigenvalues --   -0.32044  -0.30453  -0.28965  -0.27144  -0.25032
 Alpha  occ. eigenvalues --   -0.24193  -0.23786  -0.22937  -0.22475  -0.21440
 Alpha  occ. eigenvalues --   -0.17974  -0.17888  -0.15663  -0.12220   0.04417
 Alpha virt. eigenvalues --    0.06202   0.07446   0.07754   0.08739   0.09480
 Alpha virt. eigenvalues --    0.09936   0.10685   0.10919   0.11331   0.11670
 Alpha virt. eigenvalues --    0.12412   0.13111   0.13726   0.14171   0.14832

  Beta  occ. eigenvalues --  -19.02189 -14.27959 -14.22400 -14.22067 -14.19516
  Beta  occ. eigenvalues --  -10.14903 -10.14084 -10.11675 -10.11510 -10.08483
  Beta  occ. eigenvalues --  -10.07834 -10.07700 -10.06702  -0.96706  -0.93801
  Beta  occ. eigenvalues --   -0.82804  -0.78288  -0.72841  -0.70448  -0.65555
  Beta  occ. eigenvalues --   -0.63766  -0.55833  -0.51762  -0.50232  -0.49721
  Beta  occ. eigenvalues --   -0.47576  -0.44763  -0.40853  -0.39988  -0.39026
  Beta  occ. eigenvalues --   -0.37084  -0.36136  -0.34923  -0.34107  -0.32220
  Beta  occ. eigenvalues --   -0.32013  -0.30421  -0.28907  -0.27105  -0.24991
  Beta  occ. eigenvalues --   -0.24163  -0.23747  -0.22903  -0.22442  -0.21417
  Beta  occ. eigenvalues --   -0.17954  -0.17870  -0.15652  -0.12186
  Beta virt. eigenvalues --    0.06605   0.07301   0.08126   0.08500   0.09197
  Beta virt. eigenvalues --    0.09996   0.10326   0.11119   0.11280   0.11464
  Beta virt. eigenvalues --    0.11968   0.12759   0.13539   0.14160   0.14439

 Mulliken charges and spin densities:
               1          2
     1  C    0.893703  -1.324545
     2  C    0.532349  -0.913375
     3  O   -0.199371   0.045926
     4  C   -0.533977   0.130607
     5  C   -0.665755   1.262193
     6  C    0.152497  -0.835871
     7  C    2.471695  -3.228911
     8  C    0.000020  -0.094605
     9  N   -0.232402   0.126861
    10  C   -1.170553   1.390701
    11  N    0.106611  -0.238401
    12  N   -0.270985   0.227621
    13  N   -0.385227   0.057980
    14  H   -0.247234   0.425549
    15  H   -0.364393   0.510829
    16  H   -0.010886   0.145327
    17  H   -0.067524   0.235038
    18  H    0.032733   0.120840
    19  H    0.026910   0.128311
    20  H    0.168950   0.066921
    21  H    0.110956   0.060592
    22  H   -0.045779   0.182249
    23  H   -0.211619   0.410749
    24  H   -0.701824   0.882111
    25  H   -0.393025   0.730693
    26  H    0.042988   0.201630
    27  H   -0.038859   0.292980
 Sum of Mulliken charges =  -1.00000   1.00000

 Dipole moment (field-independent basis, Debye):
    X=             -0.8931    Y=             -2.6096    Z=             -4.5074  Tot=              5.2843
 Quadrupole moment (field-independent basis, Debye-Ang):
   XX=           -141.2130   YY=           -116.2288   ZZ=           -118.6508
   XY=              0.2951   XZ=              0.1835   YZ=             -6.9464

 Summary of Natural Population Analysis:

                                       Natural Population
                Natural  -----------------------------------------------
    Atom  No    Charge         Core      Valence    Rydberg      Total
 -----------------------------------------------------------------------
      C    1   -0.20580      0.99962     2.19668    0.00950     3.20580
      C    2   -0.00679      0.99960     1.99441    0.01279     3.00679
      O    3   -0.30666      0.99989     3.29831    0.00845     4.30666
      C    4   -0.00091      0.99957     1.99073    0.01061     3.00091
      C    5   -0.12852      0.99959     2.11906    0.00987     3.12852
      C    6   -0.18061      0.99960     2.17111    0.00989     3.18061
      C    7   -0.21176      0.99959     2.20167    0.01050     3.21176
      C    8    0.20306      0.99962     1.78028    0.01704     2.79694
      N    9   -0.29076      0.99967     2.78261    0.00848     3.79076
      C   10    0.25468      0.99966     1.72690    0.01876     2.74532
      N   11   -0.19591      0.99969     2.68372    0.01250     3.69591
      N   12   -0.17707      0.99964     2.66496    0.01247     3.67707
      N   13   -0.40487      0.99971     2.89529    0.00988     3.90487
      H   14    0.09810      0.00000     0.40003    0.00187     0.40190
      H   15    0.11021      0.00000     0.38702    0.00277     0.38979
      H   16    0.07779      0.00000     0.42080    0.00142     0.42221
      H   17    0.08753      0.00000     0.41115    0.00132     0.41247
      H   18    0.07875      0.00000     0.41970    0.00156     0.42125
      H   19    0.08433      0.00000     0.41433    0.00134     0.41567
      H   20    0.10129      0.00000     0.39626    0.00246     0.39871
      H   21    0.10312      0.00000     0.39547    0.00141     0.39688
      H   22    0.09850      0.00000     0.40029    0.00121     0.40150
      H   23    0.11161      0.00000     0.38717    0.00122     0.38839
      H   24    0.11135      0.00000     0.38456    0.00409     0.38865
      H   25    0.21008      0.00000     0.27992    0.01000     0.28992
      H   26    0.18963      0.00000     0.30857    0.00180     0.31037
      H   27    0.18962      0.00000     0.30850    0.00187     0.31038
 =======================================================================
   * Total *    0.00000     12.99547    35.81946    0.18507    49.00000

 Normal termination of Gaussian 16 at Wed Dec  9 23:38:48 2020.
