 Gaussian 16, Revision A.03,

 -----------------------------------------------------------
 # opt freq B3LYP/6-31G(d) empiricaldispersion=gd3bj scf=xqc
 -----------------------------------------------------------

 -------------------------------
 CID_104285300_JID_3239_neutraal
 -------------------------------
 Symbolic Z-matrix:
 Charge =  0 Multiplicity = 1

 SCF Done:  E(RB3LYP) =  -576.659291245     A.U. after   14 cycles
 SCF Done:  E(RB3LYP) =  -576.663032004     A.U. after   12 cycles
 SCF Done:  E(RB3LYP) =  -576.659935767     A.U. after   14 cycles
 SCF Done:  E(RB3LYP) =  -576.663663486     A.U. after   11 cycles
 SCF Done:  E(RB3LYP) =  -576.663550393     A.U. after   12 cycles
 SCF Done:  E(RB3LYP) =  -576.663811904     A.U. after   11 cycles
 SCF Done:  E(RB3LYP) =  -576.663819591     A.U. after    9 cycles
 SCF Done:  E(RB3LYP) =  -576.663824718     A.U. after    9 cycles
 SCF Done:  E(RB3LYP) =  -576.663828187     A.U. after    9 cycles
 SCF Done:  E(RB3LYP) =  -576.663832557     A.U. after   10 cycles
 SCF Done:  E(RB3LYP) =  -576.663834034     A.U. after    9 cycles
 SCF Done:  E(RB3LYP) =  -576.663834115     A.U. after    7 cycles
 Optimization completed.
    -- Stationary point found.
 Normal termination of Gaussian 16 at Sat Feb 27 18:18:34 2021.

 --------------------------------------------------------------------
 #N Geom=AllCheck Guess=TCheck SCRF=Check GenChk RB3LYP/6-31G(d) Freq
 --------------------------------------------------------------------

 Structure from the checkpoint file:  "JID_3239.chk"
 -------------------------------
 CID_104285300_JID_3239_neutraal
 -------------------------------
 Charge =  0 Multiplicity = 1

 SCF Done:  E(RB3LYP) =  -576.663834115     A.U. after    1 cycles

  Exact polarizability: 149.289   4.582 107.793  -3.373  -1.722  93.307
 Approx polarizability: 177.798   8.947 150.258  -9.838  -4.556 148.788

                      1                      2                      3
                      A                      A                      A
 Frequencies --     20.6550                43.5283                57.4428
 Red. masses --      3.7047                 2.6499                 4.7643
 Frc consts  --      0.0009                 0.0030                 0.0093
 IR Inten    --      4.8197                 2.4836                 2.4148

                      4                      5                      6
                      A                      A                      A
 Frequencies --     94.6985               109.7582               131.0183
 Red. masses --      2.6087                 3.0154                 3.4542
 Frc consts  --      0.0138                 0.0214                 0.0349
 IR Inten    --      2.3198                 1.4967                 2.7242

                      7                      8                      9
                      A                      A                      A
 Frequencies --    163.9233               195.8219               231.7069
 Red. masses --      3.2090                 3.0092                 3.5283
 Frc consts  --      0.0508                 0.0680                 0.1116
 IR Inten    --      2.1357                 0.2693                 3.8441

                     10                     11                     12
                      A                      A                      A
 Frequencies --    290.8013               310.7760               327.4101
 Red. masses --      2.3577                 1.5467                 1.8402
 Frc consts  --      0.1175                 0.0880                 0.1162
 IR Inten    --     30.8131                23.2345                 2.8524

                     13                     14                     15
                      A                      A                      A
 Frequencies --    346.7562               389.0130               396.5586
 Red. masses --      2.6863                 3.5274                 2.6715
 Frc consts  --      0.1903                 0.3145                 0.2475
 IR Inten    --      6.1021                 0.5972                 4.1630

                     16                     17                     18
                      A                      A                      A
 Frequencies --    429.5829               463.4305               479.5691
 Red. masses --      3.4619                 3.3708                 3.4514
 Frc consts  --      0.3764                 0.4265                 0.4677
 IR Inten    --      0.6396                 4.9510                 4.6583

                     19                     20                     21
                      A                      A                      A
 Frequencies --    535.6767               563.4084               600.3358
 Red. masses --      4.4117                 2.5005                 2.9704
 Frc consts  --      0.7459                 0.4677                 0.6307
 IR Inten    --      5.1699                 5.7137                 6.3169

                     22                     23                     24
                      A                      A                      A
 Frequencies --    767.7911               801.3834               855.9382
 Red. masses --      1.1149                 1.8299                 1.8135
 Frc consts  --      0.3872                 0.6924                 0.7828
 IR Inten    --      2.1475                 1.3213                14.6334

                     25                     26                     27
                      A                      A                      A
 Frequencies --    864.6380               881.0596               896.2629
 Red. masses --      1.8090                 1.2839                 1.8307
 Frc consts  --      0.7968                 0.5872                 0.8664
 IR Inten    --     15.6318                 0.4087                27.7533

                     28                     29                     30
                      A                      A                      A
 Frequencies --    938.7542               940.2688               954.6074
 Red. masses --      1.7813                 1.9845                 2.4552
 Frc consts  --      0.9249                 1.0337                 1.3182
 IR Inten    --     31.1977                32.3899                 4.5126

                     31                     32                     33
                      A                      A                      A
 Frequencies --    966.4350              1033.4663              1042.5428
 Red. masses --      2.1091                 3.5253                 1.7196
 Frc consts  --      1.1606                 2.2184                 1.1012
 IR Inten    --     20.7174                 5.2185                 4.1956

                     34                     35                     36
                      A                      A                      A
 Frequencies --   1057.9973              1071.9818              1091.9480
 Red. masses --      2.4438                 1.6936                 2.3160
 Frc consts  --      1.6117                 1.1467                 1.6271
 IR Inten    --     14.0349                 5.4941                 3.0870

                     37                     38                     39
                      A                      A                      A
 Frequencies --   1099.7861              1120.7895              1138.5612
 Red. masses --      2.5380                 2.4312                 1.5930
 Frc consts  --      1.8087                 1.7993                 1.2167
 IR Inten    --      5.0674                 9.7672                 0.7841

                     40                     41                     42
                      A                      A                      A
 Frequencies --   1144.1893              1153.8142              1177.2617
 Red. masses --      1.6883                 5.7304                 2.2064
 Frc consts  --      1.3022                 4.4948                 1.8017
 IR Inten    --     14.3320               267.3846                 2.8214

                     43                     44                     45
                      A                      A                      A
 Frequencies --   1230.2805              1233.9261              1281.5882
 Red. masses --      1.5230                 1.2453                 1.3433
 Frc consts  --      1.3582                 1.1172                 1.2999
 IR Inten    --      6.1871                 2.0322                 7.2578

                     46                     47                     48
                      A                      A                      A
 Frequencies --   1285.5319              1288.8389              1296.5434
 Red. masses --      1.2449                 1.2453                 1.3311
 Frc consts  --      1.2121                 1.2187                 1.3184
 IR Inten    --      2.0703                 0.6623                 1.8069

                     49                     50                     51
                      A                      A                      A
 Frequencies --   1317.7006              1331.5738              1349.8986
 Red. masses --      1.1573                 1.0675                 1.3236
 Frc consts  --      1.1840                 1.1152                 1.4210
 IR Inten    --      0.1013                 0.2866                 0.6948

                     52                     53                     54
                      A                      A                      A
 Frequencies --   1358.9632              1368.7888              1389.0143
 Red. masses --      1.2637                 1.2318                 1.4247
 Frc consts  --      1.3750                 1.3597                 1.6195
 IR Inten    --      9.4381                10.6299                16.4971

                     55                     56                     57
                      A                      A                      A
 Frequencies --   1390.7560              1399.2958              1407.4450
 Red. masses --      1.4269                 1.4140                 1.5165
 Frc consts  --      1.6261                 1.6312                 1.7699
 IR Inten    --      3.3964                 7.9325                 8.5388

                     58                     59                     60
                      A                      A                      A
 Frequencies --   1422.8989              1445.9736              1468.2713
 Red. masses --      1.5972                 1.5492                 1.4984
 Frc consts  --      1.9053                 1.9084                 1.9032
 IR Inten    --      2.3496                13.2312                 5.6431

                     61                     62                     63
                      A                      A                      A
 Frequencies --   1502.2859              1516.7334              1517.5276
 Red. masses --      1.0836                 1.1026                 1.0932
 Frc consts  --      1.4409                 1.4945                 1.4833
 IR Inten    --      2.5421                 0.2778                 2.6831

                     64                     65                     66
                      A                      A                      A
 Frequencies --   1523.0615              1529.5125              1535.1914
 Red. masses --      1.0873                 1.0868                 1.1006
 Frc consts  --      1.4861                 1.4979                 1.5283
 IR Inten    --      7.2617                 2.6669                 3.0463

                     67                     68                     69
                      A                      A                      A
 Frequencies --   1558.0091              1681.6225              2374.0655
 Red. masses --      1.0888                 1.0923                12.6048
 Frc consts  --      1.5572                 1.8199                41.8572
 IR Inten    --      4.1609                42.2111                11.5056

                     70                     71                     72
                      A                      A                      A
 Frequencies --   2932.2480              2977.4435              2996.9700
 Red. masses --      1.0807                 1.0565                 1.0824
 Frc consts  --      5.4744                 5.5184                 5.7278
 IR Inten    --     47.6391                32.2081                40.1378

                     73                     74                     75
                      A                      A                      A
 Frequencies --   3007.6751              3027.8252              3032.8999
 Red. masses --      1.1048                 1.0695                 1.0634
 Frc consts  --      5.8883                 5.7770                 5.7630
 IR Inten    --     39.3242                16.5535                27.6329

                     76                     77                     78
                      A                      A                      A
 Frequencies --   3038.2253              3043.9392              3050.8329
 Red. masses --      1.0611                 1.0615                 1.0586
 Frc consts  --      5.7710                 5.7950                 5.8054
 IR Inten    --     38.0517                27.9773                 5.2645

                     79                     80                     81
                      A                      A                      A
 Frequencies --   3074.4947              3078.3200              3080.2980
 Red. masses --      1.1007                 1.0600                 1.0928
 Frc consts  --      6.1300                 5.9180                 6.1094
 IR Inten    --     44.5426                13.5756                56.4159

                     82                     83                     84
                      A                      A                      A
 Frequencies --   3083.1385              3085.3828              3089.2662
 Red. masses --      1.1021                 1.1030                 1.1044
 Frc consts  --      6.1727                 6.1864                 6.2097
 IR Inten    --     29.2168                 1.4986                85.9519

                     85                     86                     87
                      A                      A                      A
 Frequencies --   3125.7971              3470.0386              3556.8795
 Red. masses --      1.1065                 1.0497                 1.0918
 Frc consts  --      6.3695                 7.4473                 8.1382
 IR Inten    --     23.8735                 4.3819                 0.2358

 - Thermochemistry -
 -------------------
 Temperature   298.150 Kelvin.  Pressure   1.00000 Atm.
 Atom     1 has atomic number  8 and mass  15.99491

 Molecular mass:   182.14191 amu.
 Principal axes and moments of inertia in atomic units:
                           1         2         3
     Eigenvalues --   873.231366581.563037219.45303
           X            0.99999  -0.00065   0.00448
           Y            0.00070   0.99995  -0.01002
           Z           -0.00448   0.01002   0.99994
 This molecule is an asymmetric top.
 Rotational symmetry number  1.
 Warning -- assumption of classical behavior for rotation
           may cause significant error
 Rotational temperatures (Kelvin)      0.09919     0.01316     0.01200
 Rotational constants (GHZ):           2.06674     0.27421     0.24998
 Zero-point vibrational energy     729353.1 (Joules/Mol)
                                  174.31958 (Kcal/Mol)
 Warning -- explicit consideration of  21 degrees of freedom as
           vibrations may cause significant error
 Vibrational temperatures:     29.72    62.63    82.65   136.25   157.92
          (Kelvin)            188.51   235.85   281.74   333.37   418.40
                              447.14   471.07   498.90   559.70   570.56
                              618.07   666.77   689.99   770.72   810.62
                              863.75  1104.68  1153.01  1231.50  1244.02
                             1267.65  1289.52  1350.66  1352.84  1373.47
                             1390.48  1486.93  1499.99  1522.22  1542.34
                             1571.07  1582.35  1612.57  1638.14  1646.23
                             1660.08  1693.82  1770.10  1775.34  1843.92
                             1849.59  1854.35  1865.44  1895.88  1915.84
                             1942.20  1955.24  1969.38  1998.48  2000.99
                             2013.27  2025.00  2047.23  2080.43  2112.51
                             2161.45  2182.24  2183.38  2191.35  2200.63
                             2208.80  2241.63  2419.48  3415.75  4218.85
                             4283.88  4311.97  4327.37  4356.37  4363.67
                             4371.33  4379.55  4389.47  4423.51  4429.02
                             4431.86  4435.95  4439.18  4444.77  4497.32
                             4992.61  5117.56

 Zero-point correction=                           0.277796 (Hartree/Particle)
 Thermal correction to Energy=                    0.291633
 Thermal correction to Enthalpy=                  0.292577
 Thermal correction to Gibbs Free Energy=         0.235587
 Sum of electronic and zero-point Energies=           -576.386038
 Sum of electronic and thermal Energies=              -576.372201
 Sum of electronic and thermal Enthalpies=            -576.371257
 Sum of electronic and thermal Free Energies=         -576.428248

                     E (Thermal)             CV                S
                      KCal/Mol        Cal/Mol-Kelvin    Cal/Mol-Kelvin
 Total                  183.002             51.271            119.946
 Electronic               0.000              0.000              0.000
 Translational            0.889              2.981             41.505
 Rotational               0.889              2.981             32.095
 Vibrational            181.225             45.309             46.346
 Vibration     1          0.593              1.986              6.570
 Vibration     2          0.595              1.980              5.092
 Vibration     3          0.596              1.975              4.543
 Vibration     4          0.603              1.953              3.561
 Vibration     5          0.606              1.941              3.273
 Vibration     6          0.612              1.922              2.931
 Vibration     7          0.623              1.887              2.504
 Vibration     8          0.636              1.846              2.172
 Vibration     9          0.653              1.792              1.866
 Vibration    10          0.687              1.691              1.469
 Vibration    11          0.700              1.653              1.358
 Vibration    12          0.711              1.621              1.273
 Vibration    13          0.725              1.582              1.181
 Vibration    14          0.757              1.494              1.004
 Vibration    15          0.763              1.478              0.975
 Vibration    16          0.791              1.406              0.860
 Vibration    17          0.821              1.331              0.756
 Vibration    18          0.836              1.295              0.711
 Vibration    19          0.891              1.171              0.575
 Vibration    20          0.919              1.110              0.517
 Vibration    21          0.958              1.031              0.449

 Optimization completed.
    -- Stationary point found.
 Normal termination of Gaussian 16 at Sat Feb 27 18:25:15 2021.

 ----------------------------------------------------------------------
 # B3LYP/6-311++G(d,p) empiricaldispersion=gd3bj scf=xqc pop=npa geom=c
 heck
 ----------------------------------------------------------------------

 ---------------------------------------
 CID_104285300_JID_3239_Energie_neutraal
 ---------------------------------------
 Structure from the checkpoint file:  "JID_3239.chk"
 Charge =  0 Multiplicity = 1

 SCF Done:  E(RB3LYP) =  -576.834621665     A.U. after   14 cycles
 Normal termination of Gaussian 16 at Sat Feb 27 18:27:58 2021.

 ----------------------------------------------------------------------
 # B3LYP/6-311++G(d,p) empiricaldispersion=gd3bj scf=xqc pop=npa geom=c
 heck
 ----------------------------------------------------------------------

 -------------------------------------
 CID_104285300_JID_3239_Energie_kation
 -------------------------------------
 Structure from the checkpoint file:  "JID_3239.chk"
 Charge =  1 Multiplicity = 2

 SCF Done:  E(UB3LYP) =  -576.507458465     A.U. after   22 cycles
 Normal termination of Gaussian 16 at Sat Feb 27 18:33:33 2021.
 Gaussian 16:  ES64L-G16RevA.03 25-Dec-2016

 ----------------------------------------------------------------------
 # B3LYP/6-311++G(d,p) empiricaldispersion=gd3bj scf=xqc pop=npa geom=c
 heck
 ----------------------------------------------------------------------

 ------------------------------------
 CID_104285300_JID_3239_Energie_anion
 ------------------------------------
 Structure from the checkpoint file:  "JID_3239.chk"
 Charge = -1 Multiplicity = 2

                         Standard orientation:
 ---------------------------------------------------------------------
 Center     Atomic      Atomic             Coordinates (Angstroms)
 Number     Number       Type             X           Y           Z
 ---------------------------------------------------------------------
      1          8           0        0.185630    0.201295   -0.309650
      2          7           0       -1.521336    2.309904    0.307591
      3          7           0        6.032671    0.317804   -0.479360
      4          6           0       -1.124437   -0.084575    0.192086
      5          6           0       -2.026272    1.061605   -0.267636
      6          6           0       -1.638687   -1.441068   -0.298406
      7          6           0       -3.469966    0.815624    0.186143
      8          6           0       -3.086239   -1.681367    0.152031
      9          6           0       -4.001450   -0.536889   -0.302166
     10          6           0        1.239333   -0.428729    0.387243
     11          6           0        2.550082    0.086081   -0.192791
     12          6           0        3.762641   -0.553041    0.508766
     13          6           0        5.034772   -0.073903   -0.034988
     14          1           0       -1.095406   -0.066508    1.293853
     15          1           0       -2.003719    1.054352   -1.374365
     16          1           0       -0.988479   -2.245630    0.065261
     17          1           0       -1.578736   -1.453121   -1.394826
     18          1           0       -4.107897    1.632953   -0.175231
     19          1           0       -3.495290    0.859891    1.283043
     20          1           0       -3.118325   -1.755866    1.248489
     21          1           0       -3.445893   -2.641065   -0.237629
     22          1           0       -4.058908   -0.534294   -1.399970
     23          1           0       -5.022216   -0.696102    0.065228
     24          1           0       -2.041818    3.097356   -0.076034
     25          1           0       -0.554087    2.424012    0.009531
     26          1           0        1.177940   -0.198318    1.464504
     27          1           0        1.187009   -1.524902    0.284999
     28          1           0        2.580751   -0.134069   -1.264799
     29          1           0        2.588846    1.175061   -0.085302
     30          1           0        3.741313   -0.335253    1.584069
     31          1           0        3.731873   -1.645250    0.407086
 ---------------------------------------------------------------------

 SCF Done:  E(UB3LYP) =  -576.824326255     A.U. after   32 cycles

 The electronic state is 2-A.
 Alpha  occ. eigenvalues --  -19.03334 -14.22172 -14.19983 -10.12625 -10.12449
 Alpha  occ. eigenvalues --  -10.12314 -10.12268 -10.10388 -10.09396 -10.07354
 Alpha  occ. eigenvalues --  -10.07331 -10.07268 -10.07026  -0.94817  -0.81942
 Alpha  occ. eigenvalues --   -0.79921  -0.73017  -0.72065  -0.65637  -0.63723
 Alpha  occ. eigenvalues --   -0.60729  -0.53431  -0.50938  -0.50548  -0.46874
 Alpha  occ. eigenvalues --   -0.43152  -0.40856  -0.40370  -0.39234  -0.38623
 Alpha  occ. eigenvalues --   -0.36353  -0.35760  -0.34266  -0.33736  -0.31532
 Alpha  occ. eigenvalues --   -0.30874  -0.29825  -0.28865  -0.28014  -0.26734
 Alpha  occ. eigenvalues --   -0.26433  -0.26004  -0.24443  -0.24031  -0.23823
 Alpha  occ. eigenvalues --   -0.23578  -0.22442  -0.21488  -0.17057  -0.15364
 Alpha  occ. eigenvalues --    0.04088
 Alpha virt. eigenvalues --    0.05713   0.06522   0.07482   0.08224   0.08302
 Alpha virt. eigenvalues --    0.08942   0.09909   0.10513   0.10652   0.11090
 Alpha virt. eigenvalues --    0.11300   0.11577   0.12053   0.12523   0.13098

  Beta  occ. eigenvalues --  -19.03320 -14.22163 -14.19970 -10.12589 -10.12446
  Beta  occ. eigenvalues --  -10.12276 -10.12238 -10.10385 -10.09385 -10.07335
  Beta  occ. eigenvalues --  -10.07312 -10.07253 -10.07010  -0.94786  -0.81913
  Beta  occ. eigenvalues --   -0.79902  -0.72981  -0.72019  -0.65594  -0.63683
  Beta  occ. eigenvalues --   -0.60672  -0.53366  -0.50871  -0.50493  -0.46834
  Beta  occ. eigenvalues --   -0.43098  -0.40813  -0.40297  -0.39204  -0.38572
  Beta  occ. eigenvalues --   -0.36322  -0.35732  -0.34232  -0.33688  -0.31498
  Beta  occ. eigenvalues --   -0.30805  -0.29786  -0.28839  -0.27994  -0.26696
  Beta  occ. eigenvalues --   -0.26403  -0.25965  -0.24398  -0.23992  -0.23792
  Beta  occ. eigenvalues --   -0.23547  -0.22393  -0.21456  -0.17035  -0.15345
  Beta virt. eigenvalues --    0.06238   0.07004   0.07043   0.07841   0.08732
  Beta virt. eigenvalues --    0.09153   0.09350   0.10185   0.10678   0.10962
  Beta virt. eigenvalues --    0.11246   0.11446   0.11796   0.12148   0.12768

 Mulliken charges and spin densities:
               1          2
     1  O   -0.061984   0.028069
     2  N   -0.227386  -0.035780
     3  N   -0.325379   0.019553
     4  C   -0.505229   0.255930
     5  C   -0.358181   0.216419
     6  C    0.535133  -0.713579
     7  C   -0.464714   0.173785
     8  C   -0.175838  -0.193503
     9  C    0.861786  -1.267238
    10  C   -0.135524  -0.396146
    11  C    0.320303  -0.340013
    12  C    0.785720  -0.698259
    13  C    0.372127  -0.707068
    14  H    0.037145   0.134937
    15  H   -0.026813   0.220180
    16  H   -0.469868   0.627624
    17  H    0.125766   0.035390
    18  H   -0.311579   0.469977
    19  H    0.130647   0.037113
    20  H    0.125187   0.001339
    21  H   -0.339243   0.515937
    22  H    0.102082   0.014332
    23  H   -0.440282   0.615674
    24  H    0.112656   0.105561
    25  H    0.187507   0.050053
    26  H   -0.197735   0.347141
    27  H    0.029882   0.124947
    28  H    0.078780   0.087382
    29  H    0.088647   0.052401
    30  H   -0.338711   0.517101
    31  H   -0.514901   0.700740
 Sum of Mulliken charges =  -1.00000   1.00000

 Dipole moment (field-independent basis, Debye):
    X=             -2.9597    Y=              2.9216    Z=             -1.1733  Tot=              4.3211
 Quadrupole moment (field-independent basis, Debye-Ang):
   XX=           -199.3026   YY=           -123.0393   ZZ=           -109.3222
   XY=              0.0879   XZ=             -0.2337   YZ=             -0.8953

 Summary of Natural Population Analysis:

                                       Natural Population
                Natural  -----------------------------------------------
    Atom  No    Charge         Core      Valence    Rydberg      Total
 -----------------------------------------------------------------------
      O    1   -0.30735      0.99987     3.29838    0.00910     4.30735
      N    2   -0.42372      0.99976     2.91392    0.01005     3.92372
      N    3   -0.19314      0.99979     2.68193    0.01143     3.69314
      C    4    0.06754      0.99949     1.91909    0.01388     2.93246
      C    5   -0.01764      0.99955     2.00693    0.01115     3.01764
      C    6   -0.20230      0.99960     2.19300    0.00970     3.20230
      C    7   -0.19230      0.99961     2.18280    0.00990     3.19230
      C    8   -0.18883      0.99963     2.18103    0.00817     3.18883
      C    9   -0.18952      0.99963     2.18154    0.00835     3.18952
      C   10   -0.00452      0.99956     1.99322    0.01174     3.00452
      C   11   -0.18773      0.99962     2.17795    0.01017     3.18773
      C   12   -0.24812      0.99954     2.24022    0.00836     3.24812
      C   13    0.16876      0.99966     1.81506    0.01652     2.83124
      H   14    0.08334      0.00000     0.41426    0.00240     0.41666
      H   15    0.08036      0.00000     0.41731    0.00233     0.41964
      H   16    0.10433      0.00000     0.39423    0.00145     0.39567
      H   17    0.09746      0.00000     0.40109    0.00144     0.40254
      H   18    0.09893      0.00000     0.39991    0.00116     0.40107
      H   19    0.09864      0.00000     0.39996    0.00140     0.40136
      H   20    0.09360      0.00000     0.40512    0.00129     0.40640
      H   21    0.10137      0.00000     0.39741    0.00122     0.39863
      H   22    0.09322      0.00000     0.40545    0.00133     0.40678
      H   23    0.10031      0.00000     0.39849    0.00121     0.39969
      H   24    0.17211      0.00000     0.32648    0.00141     0.32789
      H   25    0.18058      0.00000     0.31745    0.00197     0.31942
      H   26    0.08040      0.00000     0.41773    0.00186     0.41960
      H   27    0.08342      0.00000     0.41405    0.00253     0.41658
      H   28    0.10298      0.00000     0.39547    0.00155     0.39702
      H   29    0.10083      0.00000     0.39760    0.00157     0.39917
      H   30    0.12235      0.00000     0.37495    0.00270     0.37765
      H   31    0.12466      0.00000     0.37179    0.00355     0.37534
 =======================================================================
   * Total *   -0.00000     12.99531    36.83380    0.17089    50.00000

 Normal termination of Gaussian 16 at Sat Feb 27 18:41:38 2021.
