 Gaussian 16, Revision A.03,

 -----------------------------------------------------------
 # opt freq B3LYP/6-31G(d) empiricaldispersion=gd3bj scf=xqc
 -----------------------------------------------------------

 -------------------------------
 CID_152575403_JID_5216_neutraal
 -------------------------------
 Symbolic Z-matrix:
 Charge =  0 Multiplicity = 1

 SCF Done:  E(RB3LYP) =  -705.052113362     A.U. after   15 cycles
 SCF Done:  E(RB3LYP) =  -705.056817212     A.U. after   14 cycles
 SCF Done:  E(RB3LYP) =  -705.052822570     A.U. after   14 cycles
 SCF Done:  E(RB3LYP) =  -705.058452952     A.U. after   13 cycles
 SCF Done:  E(RB3LYP) =  -705.058322733     A.U. after   12 cycles
 SCF Done:  E(RB3LYP) =  -705.058684718     A.U. after   12 cycles
 SCF Done:  E(RB3LYP) =  -705.058722231     A.U. after   11 cycles
 SCF Done:  E(RB3LYP) =  -705.058735708     A.U. after   11 cycles
 SCF Done:  E(RB3LYP) =  -705.058739035     A.U. after   10 cycles
 SCF Done:  E(RB3LYP) =  -705.058740500     A.U. after    9 cycles
 SCF Done:  E(RB3LYP) =  -705.058740785     A.U. after    8 cycles
 SCF Done:  E(RB3LYP) =  -705.058740824     A.U. after    7 cycles
 Optimization completed.
    -- Stationary point found.
 Normal termination of Gaussian 16 at Thu Dec 10 14:48:54 2020.

 --------------------------------------------------------------------
 #N Geom=AllCheck Guess=TCheck SCRF=Check GenChk RB3LYP/6-31G(d) Freq
 --------------------------------------------------------------------

 Structure from the checkpoint file:  "JID_5216.chk"
 -------------------------------
 CID_152575403_JID_5216_neutraal
 -------------------------------
 Charge =  0 Multiplicity = 1

 SCF Done:  E(RB3LYP) =  -705.058740824     A.U. after    1 cycles

  Exact polarizability: 182.977 -10.664 137.894   9.409   4.085  57.303
 Approx polarizability: 277.738 -24.693 235.486  18.301   6.337  86.738

                      1                      2                      3
                      A                      A                      A
 Frequencies --     32.0935                48.7257                73.3926
 Red. masses --      7.3902                 5.9267                 6.5989
 Frc consts  --      0.0045                 0.0083                 0.0209
 IR Inten    --      1.5390                 0.8756                 2.7447

                      4                      5                      6
                      A                      A                      A
 Frequencies --    110.0486               136.5607               167.6585
 Red. masses --      6.2680                 4.8027                 2.4763
 Frc consts  --      0.0447                 0.0528                 0.0410
 IR Inten    --      0.1667                 2.1339                 6.0733

                      7                      8                      9
                      A                      A                      A
 Frequencies --    228.5283               264.5376               291.1045
 Red. masses --      4.1433                 4.3158                 3.9840
 Frc consts  --      0.1275                 0.1779                 0.1989
 IR Inten    --      4.8844                 4.4829                 8.9113

                     10                     11                     12
                      A                      A                      A
 Frequencies --    327.3732               379.5813               395.5398
 Red. masses --      6.4832                 4.6391                 6.9860
 Frc consts  --      0.4094                 0.3938                 0.6440
 IR Inten    --      3.9301                15.4701                22.2772

                     13                     14                     15
                      A                      A                      A
 Frequencies --    430.7948               498.8655               558.7001
 Red. masses --      3.0824                 5.0854                 7.1288
 Frc consts  --      0.3370                 0.7457                 1.3111
 IR Inten    --      3.1253                 2.9213                 6.5706

                     16                     17                     18
                      A                      A                      A
 Frequencies --    577.8685               597.0979               616.7371
 Red. masses --      3.9919                 3.7357                 5.9724
 Frc consts  --      0.7854                 0.7847                 1.3384
 IR Inten    --      0.0567                 0.2963                 1.9092

                     19                     20                     21
                      A                      A                      A
 Frequencies --    659.4739               723.3028               741.3161
 Red. masses --      6.4240                 1.4851                 1.7027
 Frc consts  --      1.6461                 0.4578                 0.5513
 IR Inten    --      1.8101                 4.5092                22.3549

                     22                     23                     24
                      A                      A                      A
 Frequencies --    751.8180               761.2986               789.6603
 Red. masses --     10.5624                 1.2940                 5.5794
 Frc consts  --      3.5175                 0.4419                 2.0498
 IR Inten    --     17.2056                55.0581                10.7764

                     25                     26                     27
                      A                      A                      A
 Frequencies --    792.8503               838.9056               874.1207
 Red. masses --      2.1777                 4.1457                 1.4357
 Frc consts  --      0.8066                 1.7190                 0.6464
 IR Inten    --     20.1914                 2.7839                 1.2550

                     28                     29                     30
                      A                      A                      A
 Frequencies --    891.5102               898.8825               936.1556
 Red. masses --      1.3133                 4.6899                 1.3479
 Frc consts  --      0.6150                 2.2326                 0.6960
 IR Inten    --      1.0852                 6.2429                 1.7988

                     31                     32                     33
                      A                      A                      A
 Frequencies --    978.6207              1017.1306              1048.4621
 Red. masses --      1.2451                 5.0741                 4.3305
 Frc consts  --      0.7025                 3.0929                 2.8047
 IR Inten    --      0.0045                 2.1465                68.1045

                     34                     35                     36
                      A                      A                      A
 Frequencies --   1054.9934              1067.6458              1107.4262
 Red. masses --      2.1174                 2.7778                 1.6268
 Frc consts  --      1.3885                 1.8655                 1.1755
 IR Inten    --      4.3185                59.2983                28.4114

                     37                     38                     39
                      A                      A                      A
 Frequencies --   1113.1190              1156.4922              1188.5212
 Red. masses --      2.0924                 1.5242                 2.6276
 Frc consts  --      1.5275                 1.2011                 2.1869
 IR Inten    --     23.9781                60.4023                76.4003

                     40                     41                     42
                      A                      A                      A
 Frequencies --   1194.1657              1243.2747              1279.2033
 Red. masses --      1.1423                 2.6358                 2.1211
 Frc consts  --      0.9598                 2.4005                 2.0450
 IR Inten    --      0.1243                31.1622               164.0221

                     43                     44                     45
                      A                      A                      A
 Frequencies --   1292.3301              1334.5674              1358.3660
 Red. masses --      1.1953                 3.2654                 1.4662
 Frc consts  --      1.1762                 3.4267                 1.5940
 IR Inten    --     98.9094                 9.2247                78.8970

                     46                     47                     48
                      A                      A                      A
 Frequencies --   1380.8018              1393.4517              1424.5686
 Red. masses --      2.0231                 3.2536                 1.3371
 Frc consts  --      2.2726                 3.7222                 1.5987
 IR Inten    --     17.4843               233.0607                21.5426

                     49                     50                     51
                      A                      A                      A
 Frequencies --   1444.6713              1482.2990              1499.6685
 Red. masses --      3.3742                 1.2164                 2.5653
 Frc consts  --      4.1491                 1.5747                 3.3992
 IR Inten    --    191.3917                46.2369               234.3167

                     52                     53                     54
                      A                      A                      A
 Frequencies --   1525.4378              1603.0374              1644.9481
 Red. masses --      2.7944                 4.9999                 6.2729
 Frc consts  --      3.8311                 7.5700                10.0005
 IR Inten    --      3.7086                17.6781                 0.6288

                     55                     56                     57
                      A                      A                      A
 Frequencies --   1669.8494              1810.7121              1849.1074
 Red. masses --      6.7383                12.1198                10.4370
 Frc consts  --     11.0702                23.4124                21.0258
 IR Inten    --      0.6715               538.1752               155.8677

                     58                     59                     60
                      A                      A                      A
 Frequencies --   2941.8550              3096.6569              3153.4608
 Red. masses --      1.0869                 1.0570                 1.1087
 Frc consts  --      5.5421                 5.9718                 6.4959
 IR Inten    --     81.3536                15.4049                 2.3557

                     61                     62                     63
                      A                      A                      A
 Frequencies --   3189.2765              3200.0160              3212.5281
 Red. masses --      1.0859                 1.0908                 1.0962
 Frc consts  --      6.5076                 6.5810                 6.6654
 IR Inten    --      0.5589                17.3755                28.0822

                     64                     65                     66
                      A                      A                      A
 Frequencies --   3266.5201              3266.7272              3312.8875
 Red. masses --      1.0938                 1.0920                 1.1008
 Frc consts  --      6.8762                 6.8657                 7.1180
 IR Inten    --      3.6304                 4.0321                 5.9602

 - Thermochemistry -
 -------------------
 Temperature   298.150 Kelvin.  Pressure   1.00000 Atm.
 Atom     1 has atomic number  6 and mass  12.00000

 Molecular mass:   203.05824 amu.
 Principal axes and moments of inertia in atomic units:
                           1         2         3
     Eigenvalues --  1279.546305184.458536274.58640
           X            0.99999   0.00078   0.00376
           Y           -0.00082   0.99996   0.00913
           Z           -0.00376  -0.00913   0.99995
 This molecule is an asymmetric top.
 Rotational symmetry number  1.
 Warning -- assumption of classical behavior for rotation
           may cause significant error
 Rotational temperatures (Kelvin)      0.06769     0.01671     0.01380
 Rotational constants (GHZ):           1.41045     0.34811     0.28763
 Zero-point vibrational energy     479686.4 (Joules/Mol)
                                  114.64780 (Kcal/Mol)
 Warning -- explicit consideration of  18 degrees of freedom as
           vibrations may cause significant error
 Vibrational temperatures:     46.18    70.11   105.60   158.34   196.48
          (Kelvin)            241.22   328.80   380.61   418.83   471.02
                              546.13   569.09   619.82   717.76   803.84
                              831.42   859.09   887.35   948.84  1040.67
                             1066.59  1081.70  1095.34  1136.15  1140.73
                             1207.00  1257.66  1282.68  1293.29  1346.92
                             1408.02  1463.42  1508.50  1517.90  1536.10
                             1593.34  1601.53  1663.93  1710.02  1718.14
                             1788.79  1840.49  1859.37  1920.14  1954.39
                             1986.67  2004.87  2049.64  2078.56  2132.70
                             2157.69  2194.76  2306.41  2366.71  2402.54
                             2605.21  2660.45  4232.67  4455.40  4537.13
                             4588.66  4604.11  4622.11  4699.79  4700.09
                             4766.51

 Zero-point correction=                           0.182703 (Hartree/Particle)
 Thermal correction to Energy=                    0.194986
 Thermal correction to Enthalpy=                  0.195930
 Thermal correction to Gibbs Free Energy=         0.142565
 Sum of electronic and zero-point Energies=           -704.876038
 Sum of electronic and thermal Energies=              -704.863755
 Sum of electronic and thermal Enthalpies=            -704.862811
 Sum of electronic and thermal Free Energies=         -704.916176

                     E (Thermal)             CV                S
                      KCal/Mol        Cal/Mol-Kelvin    Cal/Mol-Kelvin
 Total                  122.356             46.652            112.316
 Electronic               0.000              0.000              0.000
 Translational            0.889              2.981             41.829
 Rotational               0.889              2.981             32.098
 Vibrational            120.578             40.690             38.388
 Vibration     1          0.594              1.983              5.696
 Vibration     2          0.595              1.978              4.868
 Vibration     3          0.599              1.967              4.060
 Vibration     4          0.606              1.941              3.268
 Vibration     5          0.614              1.917              2.852
 Vibration     6          0.624              1.882              2.462
 Vibration     7          0.651              1.797              1.890
 Vibration     8          0.671              1.738              1.632
 Vibration     9          0.687              1.690              1.468
 Vibration    10          0.711              1.621              1.273
 Vibration    11          0.750              1.514              1.041
 Vibration    12          0.762              1.480              0.979
 Vibration    13          0.792              1.403              0.856
 Vibration    14          0.854              1.253              0.661
 Vibration    15          0.914              1.121              0.526
 Vibration    16          0.934              1.079              0.489
 Vibration    17          0.955              1.038              0.455
 Vibration    18          0.976              0.997              0.422

 Optimization completed.
    -- Stationary point found.
 Normal termination of Gaussian 16 at Thu Dec 10 14:55:51 2020.

 ----------------------------------------------------------------------
 # B3LYP/6-311++G(d,p) empiricaldispersion=gd3bj scf=xqc pop=npa geom=c
 heck
 ----------------------------------------------------------------------

 ---------------------------------------
 CID_152575403_JID_5216_Energie_neutraal
 ---------------------------------------
 Structure from the checkpoint file:  "JID_5216.chk"
 Charge =  0 Multiplicity = 1

 SCF Done:  E(RB3LYP) =  -705.254330695     A.U. after   14 cycles
 Normal termination of Gaussian 16 at Thu Dec 10 14:58:41 2020.

 ----------------------------------------------------------------------
 # B3LYP/6-311++G(d,p) empiricaldispersion=gd3bj scf=xqc pop=npa geom=c
 heck
 ----------------------------------------------------------------------

 -------------------------------------
 CID_152575403_JID_5216_Energie_kation
 -------------------------------------
 Structure from the checkpoint file:  "JID_5216.chk"
 Charge =  1 Multiplicity = 2

 SCF Done:  E(UB3LYP) =  -704.951536743     A.U. after   26 cycles
 Normal termination of Gaussian 16 at Thu Dec 10 15:06:26 2020.
 Gaussian 16:  ES64L-G16RevA.03 25-Dec-2016

 ----------------------------------------------------------------------
 # B3LYP/6-311++G(d,p) empiricaldispersion=gd3bj scf=xqc pop=npa geom=c
 heck
 ----------------------------------------------------------------------

 ------------------------------------
 CID_152575403_JID_5216_Energie_anion
 ------------------------------------
 Structure from the checkpoint file:  "JID_5216.chk"
 Charge = -1 Multiplicity = 2

                         Standard orientation:
 ---------------------------------------------------------------------
 Center     Atomic      Atomic             Coordinates (Angstroms)
 Number     Number       Type             X           Y           Z
 ---------------------------------------------------------------------
      1          6           0        3.710104   -1.370031    0.160406
      2          6           0        2.525489   -2.104325   -0.010259
      3          6           0        1.285945   -1.475646   -0.116044
      4          6           0        1.264351   -0.082737   -0.046052
      5          6           0        2.450309    0.676216    0.125847
      6          6           0        3.681866    0.018506    0.229412
      7          6           0        2.074251    2.071480    0.156128
      8          6           0        0.728636    2.141662    0.009309
      9          7           0        0.200147    0.843320   -0.117097
     10          6           0       -1.159875    0.646144   -0.278599
     11          8           0       -1.975669    1.543808   -0.334021
     12          8           0       -1.473597   -0.666656   -0.364092
     13          6           0       -2.870805   -0.913047   -0.574830
     14          6           0       -3.712722   -0.518658    0.631202
     15          8           0       -4.918902   -0.520380    0.598896
     16          1           0        4.657746   -1.894580    0.239131
     17          1           0        2.571014   -3.188140   -0.061570
     18          1           0        0.378438   -2.047846   -0.246946
     19          1           0        4.597032    0.588482    0.361349
     20          1           0        2.742141    2.913369    0.274438
     21          1           0        0.050033    2.978999   -0.023363
     22          1           0       -3.233156   -0.385299   -1.460694
     23          1           0       -2.946125   -1.991824   -0.736161
     24          1           0       -3.138104   -0.267955    1.548107
 ---------------------------------------------------------------------

 SCF Done:  E(UB3LYP) =  -705.252248154     A.U. after   33 cycles
 SCF Done:  E(UB3LYP) =  -705.252248154     a.u. after    1 cycles

 The electronic state is 2-A.
 Alpha  occ. eigenvalues --  -19.05101 -18.97902 -18.97516 -14.24608 -10.19362
 Alpha  occ. eigenvalues --  -10.11481 -10.11036 -10.08373 -10.06332 -10.04861
 Alpha  occ. eigenvalues --  -10.04560 -10.04475 -10.04386 -10.03895 -10.03576
 Alpha  occ. eigenvalues --   -0.99815  -0.91501  -0.90196  -0.85586  -0.72437
 Alpha  occ. eigenvalues --   -0.67672  -0.62911  -0.61817  -0.59439  -0.52234
 Alpha  occ. eigenvalues --   -0.49802  -0.47291  -0.45988  -0.43601  -0.42300
 Alpha  occ. eigenvalues --   -0.37047  -0.36811  -0.36160  -0.34976  -0.33556
 Alpha  occ. eigenvalues --   -0.32308  -0.31360  -0.31180  -0.30797  -0.29351
 Alpha  occ. eigenvalues --   -0.27361  -0.27013  -0.26492  -0.24249  -0.23535
 Alpha  occ. eigenvalues --   -0.21794  -0.21638  -0.19977  -0.16798  -0.16246
 Alpha  occ. eigenvalues --   -0.12657  -0.11296  -0.09771   0.05628
 Alpha virt. eigenvalues --    0.07723   0.08142   0.09136   0.09513   0.10462
 Alpha virt. eigenvalues --    0.10713   0.11381   0.11421   0.12713   0.13185
 Alpha virt. eigenvalues --    0.14052   0.14098   0.15883   0.16470   0.16631

  Beta  occ. eigenvalues --  -19.05088 -18.97646 -18.97332 -14.24647 -10.19176
  Beta  occ. eigenvalues --  -10.11512 -10.10714 -10.08353 -10.06022 -10.04916
  Beta  occ. eigenvalues --  -10.04537 -10.04355 -10.04277 -10.03698 -10.03547
  Beta  occ. eigenvalues --   -0.99644  -0.91004  -0.89961  -0.85454  -0.72231
  Beta  occ. eigenvalues --   -0.67373  -0.62677  -0.61625  -0.59086  -0.52034
  Beta  occ. eigenvalues --   -0.49393  -0.46827  -0.45703  -0.43363  -0.42156
  Beta  occ. eigenvalues --   -0.36831  -0.36650  -0.35699  -0.34809  -0.33233
  Beta  occ. eigenvalues --   -0.31966  -0.31128  -0.30936  -0.30612  -0.29215
  Beta  occ. eigenvalues --   -0.26843  -0.26702  -0.26162  -0.23810  -0.22736
  Beta  occ. eigenvalues --   -0.21637  -0.21132  -0.19340  -0.16627  -0.15502
  Beta  occ. eigenvalues --   -0.12430  -0.10707  -0.08655
  Beta virt. eigenvalues --    0.08097   0.09086   0.09478   0.10068   0.10533
  Beta virt. eigenvalues --    0.10659   0.11064   0.11406   0.11550   0.12732
  Beta virt. eigenvalues --    0.13227   0.14054   0.14602   0.16173   0.16427

 Mulliken charges and spin densities:
               1          2
     1  C   -0.430447  -0.038804
     2  C   -0.308355   0.163283
     3  C   -0.458807   0.010803
     4  C    0.251029   0.000728
     5  C    0.203611   0.055870
     6  C   -0.649147   0.124166
     7  C   -0.032466   0.019271
     8  C   -0.075621   0.242875
     9  N    0.006715  -0.019232
    10  C    0.110789   0.064236
    11  O   -0.282413   0.059379
    12  O   -0.059678  -0.000072
    13  C   -0.115440  -0.003736
    14  C   -0.032823   0.201043
    15  O   -0.338188   0.075458
    16  H    0.100098   0.003081
    17  H    0.129444  -0.012554
    18  H    0.178322  -0.000793
    19  H    0.110536  -0.005953
    20  H    0.127313  -0.002503
    21  H    0.185727  -0.019893
    22  H    0.189748   0.030539
    23  H    0.134087   0.013805
    24  H    0.055969   0.039001
 Sum of Mulliken charges =  -1.00000   1.00000

 Dipole moment (field-independent basis, Debye):
    X=              4.4871    Y=             -1.0723    Z=             -1.0021  Tot=              4.7210
 Quadrupole moment (field-independent basis, Debye-Ang):
   XX=           -153.4032   YY=            -99.4473   ZZ=            -96.6312
   XY=              4.2515   XZ=              5.6470   YZ=              2.2587

 Summary of Natural Population Analysis:

                                       Natural Population
                Natural  -----------------------------------------------
    Atom  No    Charge         Core      Valence    Rydberg      Total
 -----------------------------------------------------------------------
      C    1   -0.12878      0.99958     2.11958    0.00962     3.12878
      C    2   -0.07844      0.99959     2.06913    0.00973     3.07844
      C    3   -0.11352      0.99953     2.10586    0.00813     3.11352
      C    4    0.08738      0.99946     1.90238    0.01077     2.91262
      C    5   -0.02685      0.99950     2.01903    0.00831     3.02685
      C    6   -0.08012      0.99953     2.07176    0.00882     3.08012
      C    7   -0.14047      0.99953     2.13246    0.00848     3.14047
      C    8    0.06455      0.99957     1.92524    0.01064     2.93545
      N    9   -0.23908      0.99959     2.73023    0.00925     3.73908
      C   10    0.49261      0.99969     1.48422    0.02348     2.50739
      O   11   -0.30500      0.99987     3.30008    0.00505     4.30500
      O   12   -0.28348      0.99986     3.27414    0.00947     4.28348
      C   13   -0.06129      0.99957     2.05062    0.01110     3.06129
      C   14    0.25705      0.99976     1.72121    0.02198     2.74295
      O   15   -0.26973      0.99988     3.26153    0.00832     4.26973
      H   16    0.09107      0.00000     0.40789    0.00104     0.40893
      H   17    0.08958      0.00000     0.40943    0.00099     0.41042
      H   18    0.10965      0.00000     0.38941    0.00094     0.39035
      H   19    0.09097      0.00000     0.40760    0.00144     0.40903
      H   20    0.09802      0.00000     0.40111    0.00087     0.40198
      H   21    0.10425      0.00000     0.39483    0.00092     0.39575
      H   22    0.10152      0.00000     0.39720    0.00128     0.39848
      H   23    0.09803      0.00000     0.40092    0.00105     0.40197
      H   24    0.04207      0.00000     0.45600    0.00193     0.45793
 =======================================================================
   * Total *    0.00000     14.99451    37.83187    0.17362    53.00000

 Normal termination of Gaussian 16 at Thu Dec 10 15:15:59 2020.
