 Gaussian 16, Revision A.03,

 -----------------------------------------------------------
 # opt freq B3LYP/6-31G(d) empiricaldispersion=gd3bj scf=xqc
 -----------------------------------------------------------

 ------------------------------
 CID_61483624_JID_3229_neutraal
 ------------------------------
 Symbolic Z-matrix:
 Charge =  0 Multiplicity = 1

 SCF Done:  E(RB3LYP) =  -564.244034614     A.U. after   13 cycles
 SCF Done:  E(RB3LYP) =  -564.246357869     A.U. after   11 cycles
 SCF Done:  E(RB3LYP) =  -564.246214820     A.U. after   11 cycles
 SCF Done:  E(RB3LYP) =  -564.247128253     A.U. after   11 cycles
 SCF Done:  E(RB3LYP) =  -564.247340802     A.U. after   10 cycles
 SCF Done:  E(RB3LYP) =  -564.247522665     A.U. after   11 cycles
 SCF Done:  E(RB3LYP) =  -564.247614879     A.U. after   11 cycles
 SCF Done:  E(RB3LYP) =  -564.247694668     A.U. after   10 cycles
 SCF Done:  E(RB3LYP) =  -564.247778833     A.U. after   11 cycles
 SCF Done:  E(RB3LYP) =  -564.247698649     A.U. after   10 cycles
 SCF Done:  E(RB3LYP) =  -564.253437580     A.U. after    8 cycles
 SCF Done:  E(RB3LYP) =  -564.253439366     A.U. after    8 cycles
 SCF Done:  E(RB3LYP) =  -564.253439976     A.U. after    7 cycles
 SCF Done:  E(RB3LYP) =  -564.253440345     A.U. after    7 cycles
 SCF Done:  E(RB3LYP) =  -564.253440615     A.U. after    7 cycles
 SCF Done:  E(RB3LYP) =  -564.253440692     A.U. after    6 cycles
 Optimization completed.
    -- Stationary point found.
 Normal termination of Gaussian 16 at Wed Dec  9 22:55:29 2020.

 --------------------------------------------------------------------
 #N Geom=AllCheck Guess=TCheck SCRF=Check GenChk RB3LYP/6-31G(d) Freq
 --------------------------------------------------------------------

 Structure from the checkpoint file:  "JID_3229.chk"
 ------------------------------
 CID_61483624_JID_3229_neutraal
 ------------------------------
 Charge =  0 Multiplicity = 1

 SCF Done:  E(RB3LYP) =  -564.253440692     A.U. after    1 cycles

  Exact polarizability: 140.428  -0.826 131.870  -1.435  -0.584 112.606
 Approx polarizability: 172.164   0.610 171.775  -1.522   0.376 167.785

                      1                      2                      3
                      A                      A                      A
 Frequencies --     14.6894                30.0588                37.1005
 Red. masses --      3.2748                 2.8624                 2.6510
 Frc consts  --      0.0004                 0.0015                 0.0021
 IR Inten    --      0.0621                 0.1352                 0.0223

                      4                      5                      6
                      A                      A                      A
 Frequencies --     59.3020                72.5428                92.1858
 Red. masses --      3.2882                 3.3611                 2.9299
 Frc consts  --      0.0068                 0.0104                 0.0147
 IR Inten    --      0.0566                 0.2652                 0.4464

                      7                      8                      9
                      A                      A                      A
 Frequencies --    129.7392               180.5899               189.1873
 Red. masses --      4.0949                 1.8026                 2.5108
 Frc consts  --      0.0406                 0.0346                 0.0529
 IR Inten    --      5.5737                 0.9584                 2.8683

                     10                     11                     12
                      A                      A                      A
 Frequencies --    221.3865               225.7702               247.2873
 Red. masses --      2.1437                 1.2972                 1.1826
 Frc consts  --      0.0619                 0.0390                 0.0426
 IR Inten    --      2.8532                 0.2085                 0.2451

                     13                     14                     15
                      A                      A                      A
 Frequencies --    264.3120               278.0429               292.4262
 Red. masses --      2.0915                 1.9377                 1.9279
 Frc consts  --      0.0861                 0.0883                 0.0971
 IR Inten    --      0.0935                 2.9459                 1.9069

                     16                     17                     18
                      A                      A                      A
 Frequencies --    299.1587               322.9813               343.9863
 Red. masses --      1.3654                 2.3480                 1.9729
 Frc consts  --      0.0720                 0.1443                 0.1375
 IR Inten    --      1.2635                 0.1239                 0.2504

                     19                     20                     21
                      A                      A                      A
 Frequencies --    390.9581               411.7949               427.8227
 Red. masses --      2.1386                 2.2047                 1.9396
 Frc consts  --      0.1926                 0.2203                 0.2092
 IR Inten    --      0.2574                 0.0947                 0.1870

                     22                     23                     24
                      A                      A                      A
 Frequencies --    519.3869               556.1946               584.3789
 Red. masses --      2.3855                 2.6923                 2.4821
 Frc consts  --      0.3792                 0.4907                 0.4994
 IR Inten    --      1.8434                 2.3885                 4.3261

                     25                     26                     27
                      A                      A                      A
 Frequencies --    753.6624               774.6832               787.3273
 Red. masses --      1.2800                 1.8049                 1.6091
 Frc consts  --      0.4284                 0.6382                 0.5877
 IR Inten    --      7.7867                16.8703                63.8533

                     28                     29                     30
                      A                      A                      A
 Frequencies --    816.2340               834.3211               867.0318
 Red. masses --      2.0118                 1.9422                 1.4688
 Frc consts  --      0.7897                 0.7965                 0.6505
 IR Inten    --      2.6176                 2.2387                 3.6774

                     31                     32                     33
                      A                      A                      A
 Frequencies --    900.9269               925.1350               936.2280
 Red. masses --      1.4650                 2.2089                 1.9005
 Frc consts  --      0.7006                 1.1139                 0.9815
 IR Inten    --     10.5163                 8.6389                 4.8826

                     34                     35                     36
                      A                      A                      A
 Frequencies --    943.5765               976.6099               978.7249
 Red. masses --      1.2199                 1.8343                 1.4609
 Frc consts  --      0.6399                 1.0308                 0.8245
 IR Inten    --      2.8115                 3.5478                 0.8543

                     37                     38                     39
                      A                      A                      A
 Frequencies --    990.3797              1005.9795              1036.6567
 Red. masses --      1.5430                 1.7783                 1.5446
 Frc consts  --      0.8917                 1.0603                 0.9780
 IR Inten    --      1.1896                12.2252                 1.2314

                     40                     41                     42
                      A                      A                      A
 Frequencies --   1048.0805              1078.0714              1095.6069
 Red. masses --      1.5642                 2.9937                 2.5451
 Frc consts  --      1.0123                 2.0500                 1.8000
 IR Inten    --     14.2384                23.2406                 4.5004

                     43                     44                     45
                      A                      A                      A
 Frequencies --   1109.7258              1153.8013              1163.9022
 Red. masses --      1.5244                 2.9253                 2.4593
 Frc consts  --      1.1060                 2.2945                 1.9629
 IR Inten    --      7.3682                87.8515                32.1726

                     46                     47                     48
                      A                      A                      A
 Frequencies --   1171.2272              1178.6821              1190.7639
 Red. masses --      2.4082                 2.5530                 2.3430
 Frc consts  --      1.9464                 2.0897                 1.9574
 IR Inten    --     14.9549                52.9479                15.6513

                     49                     50                     51
                      A                      A                      A
 Frequencies --   1197.8750              1209.5737              1255.1631
 Red. masses --      2.1307                 1.7699                 1.2613
 Frc consts  --      1.8014                 1.5257                 1.1707
 IR Inten    --      8.9492                13.9524                 2.2888

                     52                     53                     54
                      A                      A                      A
 Frequencies --   1264.9360              1278.2666              1284.0150
 Red. masses --      1.1537                 1.2416                 1.2376
 Frc consts  --      1.0876                 1.1953                 1.2022
 IR Inten    --      1.2991                10.3151                 5.9258

                     55                     56                     57
                      A                      A                      A
 Frequencies --   1298.4974              1320.4506              1351.9706
 Red. masses --      1.3454                 1.2062                 1.2041
 Frc consts  --      1.3365                 1.2391                 1.2967
 IR Inten    --      3.4213                 1.0577                 5.0802

                     58                     59                     60
                      A                      A                      A
 Frequencies --   1352.6221              1384.8737              1390.6913
 Red. masses --      1.2138                 1.3394                 1.3253
 Frc consts  --      1.3084                 1.5134                 1.5102
 IR Inten    --      3.2695                 9.3537                13.5698

                     61                     62                     63
                      A                      A                      A
 Frequencies --   1398.6388              1403.9860              1413.5631
 Red. masses --      1.3754                 1.3613                 1.3900
 Frc consts  --      1.5852                 1.5810                 1.6364
 IR Inten    --     21.8347                23.2172                 5.1678

                     64                     65                     66
                      A                      A                      A
 Frequencies --   1415.0915              1430.3843              1433.3568
 Red. masses --      1.3852                 1.3034                 1.3456
 Frc consts  --      1.6343                 1.5713                 1.6289
 IR Inten    --      6.9080                 4.1352                 7.0694

                     67                     68                     69
                      A                      A                      A
 Frequencies --   1446.7606              1449.2658              1459.7744
 Red. masses --      1.2534                 1.2506                 1.4309
 Frc consts  --      1.5458                 1.5476                 1.7966
 IR Inten    --      1.6879                 4.5137                 5.1574

                     70                     71                     72
                      A                      A                      A
 Frequencies --   1500.6928              1504.6511              1506.9578
 Red. masses --      1.0886                 1.0888                 1.0900
 Frc consts  --      1.4445                 1.4523                 1.4584
 IR Inten    --      1.8838                 2.6751                 1.8256

                     73                     74                     75
                      A                      A                      A
 Frequencies --   1519.2031              1521.3970              1525.4934
 Red. masses --      1.0490                 1.1160                 1.0540
 Frc consts  --      1.4265                 1.5220                 1.4451
 IR Inten    --      2.1409                10.3942                 1.6828

                     76                     77                     78
                      A                      A                      A
 Frequencies --   1534.6559              1535.0801              1537.4038
 Red. masses --      1.0551                 1.0553                 1.0659
 Frc consts  --      1.4640                 1.4652                 1.4844
 IR Inten    --      1.2407                 4.0453                 6.7883

                     79                     80                     81
                      A                      A                      A
 Frequencies --   1539.3233              1545.8444              1549.2448
 Red. masses --      1.0788                 1.0741                 1.1144
 Frc consts  --      1.5060                 1.5123                 1.5759
 IR Inten    --     10.7014                13.9815                 8.9973

                     82                     83                     84
                      A                      A                      A
 Frequencies --   1557.2771              1565.7695              2961.0962
 Red. masses --      1.0767                 1.0884                 1.0709
 Frc consts  --      1.5384                 1.5722                 5.5325
 IR Inten    --     15.8967                 4.1925                43.7994

                     85                     86                     87
                      A                      A                      A
 Frequencies --   2980.2629              2991.0043              3009.8868
 Red. masses --      1.0563                 1.0583                 1.1032
 Frc consts  --      5.5279                 5.5779                 5.8887
 IR Inten    --      6.0394                97.4227                61.2008

                     88                     89                     90
                      A                      A                      A
 Frequencies --   3015.9876              3030.7677              3033.3762
 Red. masses --      1.1023                 1.0612                 1.0660
 Frc consts  --      5.9075                 5.7430                 5.7792
 IR Inten    --     34.6840                23.9703                13.7232

                     91                     92                     93
                      A                      A                      A
 Frequencies --   3034.8866              3036.7657              3039.6864
 Red. masses --      1.0389                 1.0635                 1.0454
 Frc consts  --      5.6380                 5.7787                 5.6911
 IR Inten    --     37.1335                20.5651                24.3845

                     94                     95                     96
                      A                      A                      A
 Frequencies --   3043.6825              3046.5829              3050.6066
 Red. masses --      1.0382                 1.0661                 1.0816
 Frc consts  --      5.6669                 5.8300                 5.9305
 IR Inten    --     29.7959                41.9420                85.3317

                     97                     98                     99
                      A                      A                      A
 Frequencies --   3052.7265              3067.3935              3077.4936
 Red. masses --      1.0768                 1.0963                 1.1004
 Frc consts  --      5.9124                 6.0772                 6.1406
 IR Inten    --     15.9076                44.5314                44.8243

                    100                    101                    102
                      A                      A                      A
 Frequencies --   3084.8435              3090.5923              3097.6676
 Red. masses --      1.1020                 1.1056                 1.1004
 Frc consts  --      6.1785                 6.2221                 6.2210
 IR Inten    --     46.0237                42.3991                13.8196

                    103                    104                    105
                      A                      A                      A
 Frequencies --   3105.0533              3106.0789              3110.0270
 Red. masses --      1.1005                 1.1013                 1.1017
 Frc consts  --      6.2516                 6.2601                 6.2782
 IR Inten    --     62.6327                53.1718                51.6298

                    106                    107                    108
                      A                      A                      A
 Frequencies --   3120.0846              3123.5310              3511.9728
 Red. masses --      1.1009                 1.1013                 1.0725
 Frc consts  --      6.3141                 6.3307                 7.7935
 IR Inten    --     39.0048                27.1231                 0.2987

 - Thermochemistry -
 -------------------
 Temperature   298.150 Kelvin.  Pressure   1.00000 Atm.
 Atom     1 has atomic number  6 and mass  12.00000

 Molecular mass:   187.19361 amu.
 Principal axes and moments of inertia in atomic units:
                           1         2         3
     Eigenvalues --  1832.252004495.030965546.23849
           X            0.99998   0.00196  -0.00668
           Y           -0.00194   0.99999   0.00400
           Z            0.00668  -0.00398   0.99997
 This molecule is an asymmetric top.
 Rotational symmetry number  1.
 Warning -- assumption of classical behavior for rotation
           may cause significant error
 Rotational temperatures (Kelvin)      0.04727     0.01927     0.01562
 Rotational constants (GHZ):           0.98499     0.40150     0.32540
 Zero-point vibrational energy     936756.3 (Joules/Mol)
                                  223.89014 (Kcal/Mol)
 Warning -- explicit consideration of  24 degrees of freedom as
           vibrations may cause significant error
 Vibrational temperatures:     21.13    43.25    53.38    85.32   104.37
          (Kelvin)            132.63   186.67   259.83   272.20   318.53
                              324.83   355.79   380.29   400.04   420.74
                              430.42   464.70   494.92   562.50   592.48
                              615.54   747.28   800.24   840.79  1084.35
                             1114.60  1132.79  1174.38  1200.40  1247.47
                             1296.23  1331.06  1347.02  1357.60  1405.12
                             1408.17  1424.94  1447.38  1491.52  1507.95
                             1551.10  1576.33  1596.65  1660.06  1674.60
                             1685.13  1695.86  1713.24  1723.47  1740.31
                             1805.90  1819.96  1839.14  1847.41  1868.25
                             1899.83  1945.18  1946.12  1992.52  2000.89
                             2012.33  2020.02  2033.80  2036.00  2058.00
                             2062.28  2081.57  2085.17  2100.29  2159.16
                             2164.86  2168.18  2185.79  2188.95  2194.84
                             2208.03  2208.64  2211.98  2214.74  2224.13
                             2229.02  2240.57  2252.79  4260.36  4287.93
                             4303.39  4330.56  4339.33  4360.60  4364.35
                             4366.52  4369.23  4373.43  4379.18  4383.35
                             4389.14  4392.19  4413.30  4427.83  4438.40
                             4446.67  4456.85  4467.48  4468.95  4474.64
                             4489.11  4494.06  5052.95

 Zero-point correction=                           0.356792 (Hartree/Particle)
 Thermal correction to Energy=                    0.373315
 Thermal correction to Enthalpy=                  0.374259
 Thermal correction to Gibbs Free Energy=         0.310667
 Sum of electronic and zero-point Energies=           -563.896649
 Sum of electronic and thermal Energies=              -563.880126
 Sum of electronic and thermal Enthalpies=            -563.879181
 Sum of electronic and thermal Free Energies=         -563.942774

                     E (Thermal)             CV                S
                      KCal/Mol        Cal/Mol-Kelvin    Cal/Mol-Kelvin
 Total                  234.259             60.161            133.842
 Electronic               0.000              0.000              0.000
 Translational            0.889              2.981             41.587
 Rotational               0.889              2.981             32.191
 Vibrational            232.481             54.199             60.064
 Vibration     1          0.593              1.986              7.247
 Vibration     2          0.594              1.984              5.826
 Vibration     3          0.594              1.982              5.408
 Vibration     4          0.597              1.974              4.480
 Vibration     5          0.599              1.967              4.083
 Vibration     6          0.602              1.955              3.613
 Vibration     7          0.612              1.924              2.950
 Vibration     8          0.630              1.866              2.322
 Vibration     9          0.633              1.855              2.236
 Vibration    10          0.648              1.809              1.948
 Vibration    11          0.650              1.802              1.912
 Vibration    12          0.661              1.767              1.750
 Vibration    13          0.671              1.738              1.633
 Vibration    14          0.679              1.714              1.546
 Vibration    15          0.688              1.688              1.460
 Vibration    16          0.692              1.675              1.422
 Vibration    17          0.708              1.629              1.295
 Vibration    18          0.723              1.587              1.194
 Vibration    19          0.759              1.490              0.996
 Vibration    20          0.776              1.445              0.920
 Vibration    21          0.789              1.410              0.866
 Vibration    22          0.874              1.207              0.611
 Vibration    23          0.912              1.126              0.531
 Vibration    24          0.941              1.065              0.477

 Optimization completed.
    -- Stationary point found.
 Normal termination of Gaussian 16 at Wed Dec  9 23:07:18 2020.

 ----------------------------------------------------------------------
 # B3LYP/6-311++G(d,p) empiricaldispersion=gd3bj scf=xqc pop=npa geom=c
 heck
 ----------------------------------------------------------------------

 --------------------------------------
 CID_61483624_JID_3229_Energie_neutraal
 --------------------------------------
 Structure from the checkpoint file:  "JID_3229.chk"
 Charge =  0 Multiplicity = 1

 SCF Done:  E(RB3LYP) =  -564.418497392     A.U. after   13 cycles
 Normal termination of Gaussian 16 at Wed Dec  9 23:13:01 2020.

 ----------------------------------------------------------------------
 # B3LYP/6-311++G(d,p) empiricaldispersion=gd3bj scf=xqc pop=npa geom=c
 heck
 ----------------------------------------------------------------------

 ------------------------------------
 CID_61483624_JID_3229_Energie_kation
 ------------------------------------
 Structure from the checkpoint file:  "JID_3229.chk"
 Charge =  1 Multiplicity = 2

 SCF Done:  E(UB3LYP) =  -564.115577835     A.U. after   18 cycles
 Normal termination of Gaussian 16 at Wed Dec  9 23:24:21 2020.
 Gaussian 16:  ES64L-G16RevA.03 25-Dec-2016

 ----------------------------------------------------------------------
 # B3LYP/6-311++G(d,p) empiricaldispersion=gd3bj scf=xqc pop=npa geom=c
 heck
 ----------------------------------------------------------------------

 -----------------------------------
 CID_61483624_JID_3229_Energie_anion
 -----------------------------------
 Structure from the checkpoint file:  "JID_3229.chk"
 Charge = -1 Multiplicity = 2

                         Standard orientation:
 ---------------------------------------------------------------------
 Center     Atomic      Atomic             Coordinates (Angstroms)
 Number     Number       Type             X           Y           Z
 ---------------------------------------------------------------------
      1          6           0       -1.520836   -2.193704    0.702120
      2          6           0       -2.571616   -2.035293   -0.402674
      3          6           0       -3.588525   -0.908739   -0.148220
      4          6           0       -2.960504    0.455095    0.151678
      5          7           0       -2.116845    0.904476   -0.953784
      6          6           0       -1.411929    2.156867   -0.705991
      7          6           0       -0.416640    2.126636    0.458642
      8          8           0        0.432299    1.009106    0.263795
      9          6           0        1.434543    0.875124    1.257313
     10          6           0        2.221691   -0.401318    0.991202
     11          6           0        2.800902   -0.514152   -0.429676
     12          6           0        3.722660    0.660605   -0.777544
     13          6           0        3.531189   -1.851840   -0.594645
     14          1           0       -0.875250   -1.311428    0.767154
     15          1           0       -0.878681   -3.060962    0.510338
     16          1           0       -1.993620   -2.338545    1.681594
     17          1           0       -2.066652   -1.863553   -1.362845
     18          1           0       -3.121789   -2.977158   -0.524431
     19          1           0       -4.244409   -0.814109   -1.022208
     20          1           0       -4.223624   -1.184392    0.704891
     21          1           0       -3.756788    1.198865    0.289782
     22          1           0       -2.422557    0.393805    1.114322
     23          1           0       -1.407633    0.195935   -1.129421
     24          1           0       -0.867058    2.418324   -1.621029
     25          1           0       -2.145654    2.953231   -0.524804
     26          1           0        0.168782    3.061040    0.481563
     27          1           0       -0.932747    2.039413    1.428051
     28          1           0        2.094711    1.757386    1.241164
     29          1           0        0.971843    0.834908    2.257358
     30          1           0        3.036346   -0.457687    1.727857
     31          1           0        1.567455   -1.262435    1.177971
     32          1           0        1.954286   -0.495181   -1.127426
     33          1           0        4.552738    0.735905   -0.062443
     34          1           0        4.155873    0.532564   -1.776169
     35          1           0        3.181951    1.612629   -0.772073
     36          1           0        2.870652   -2.697401   -0.368634
     37          1           0        3.901257   -1.977886   -1.618684
     38          1           0        4.394485   -1.913131    0.081029
 ---------------------------------------------------------------------

 SCF Done:  E(UB3LYP) =  -564.402743927     A.U. after   27 cycles

 The electronic state is 2-A.
 Alpha  occ. eigenvalues --  -19.02830 -14.19584 -10.11494 -10.11489 -10.09529
 Alpha  occ. eigenvalues --  -10.08907 -10.07295 -10.07089 -10.06830 -10.06584
 Alpha  occ. eigenvalues --  -10.06039 -10.05744 -10.05708  -0.94265  -0.80798
 Alpha  occ. eigenvalues --   -0.71461  -0.69556  -0.65503  -0.62349  -0.59669
 Alpha  occ. eigenvalues --   -0.58619  -0.54454  -0.52696  -0.50345  -0.46763
 Alpha  occ. eigenvalues --   -0.45670  -0.40283  -0.39687  -0.39241  -0.37210
 Alpha  occ. eigenvalues --   -0.36420  -0.35646  -0.34356  -0.34046  -0.32352
 Alpha  occ. eigenvalues --   -0.30996  -0.30136  -0.29458  -0.28982  -0.28501
 Alpha  occ. eigenvalues --   -0.27824  -0.27012  -0.26460  -0.25803  -0.24414
 Alpha  occ. eigenvalues --   -0.23503  -0.23044  -0.22876  -0.22723  -0.22380
 Alpha  occ. eigenvalues --   -0.21392  -0.16672  -0.12960   0.04419
 Alpha virt. eigenvalues --    0.06400   0.06612   0.07361   0.08134   0.08396
 Alpha virt. eigenvalues --    0.08780   0.09562   0.09598   0.10388   0.10512
 Alpha virt. eigenvalues --    0.10944   0.11399   0.11838   0.12441   0.12825

  Beta  occ. eigenvalues --  -19.02822 -14.19582 -10.11471 -10.11465 -10.09517
  Beta  occ. eigenvalues --  -10.08890 -10.07291 -10.07081 -10.06819 -10.06569
  Beta  occ. eigenvalues --  -10.06017 -10.05719 -10.05678  -0.94252  -0.80788
  Beta  occ. eigenvalues --   -0.71438  -0.69531  -0.65471  -0.62314  -0.59628
  Beta  occ. eigenvalues --   -0.58566  -0.54408  -0.52641  -0.50291  -0.46722
  Beta  occ. eigenvalues --   -0.45615  -0.40244  -0.39644  -0.39219  -0.37185
  Beta  occ. eigenvalues --   -0.36387  -0.35615  -0.34323  -0.34022  -0.32324
  Beta  occ. eigenvalues --   -0.30964  -0.30106  -0.29424  -0.28952  -0.28473
  Beta  occ. eigenvalues --   -0.27792  -0.26985  -0.26423  -0.25781  -0.24370
  Beta  occ. eigenvalues --   -0.23477  -0.23016  -0.22850  -0.22684  -0.22355
  Beta  occ. eigenvalues --   -0.21346  -0.16653  -0.12951
  Beta virt. eigenvalues --    0.06418   0.07057   0.07342   0.07827   0.08598
  Beta virt. eigenvalues --    0.08805   0.09146   0.09832   0.09938   0.10707
  Beta virt. eigenvalues --    0.11008   0.11164   0.11742   0.12118   0.12689

 Mulliken charges and spin densities:
               1          2
     1  C    0.179294  -0.669270
     2  C   -0.777398   0.618690
     3  C    0.799812  -1.255353
     4  C   -0.380797   0.130429
     5  N    0.004761   0.017619
     6  C   -0.675944   0.021338
     7  C    0.673139  -0.728947
     8  O   -0.033041   0.019839
     9  C    0.420175  -0.839414
    10  C   -0.189317  -0.170035
    11  C   -0.757115   1.210837
    12  C    0.863633  -1.465359
    13  C    0.061460  -0.691893
    14  H    1.020166  -0.915015
    15  H   -0.256511   0.396923
    16  H   -0.219140   0.356048
    17  H    0.042885   0.098583
    18  H   -0.137855   0.289947
    19  H    0.157448  -0.010357
    20  H   -0.185344   0.326988
    21  H   -0.267686   0.425238
    22  H    0.032480   0.057880
    23  H    0.277142  -0.068001
    24  H    0.003971   0.177540
    25  H   -0.090787   0.239048
    26  H   -0.449326   0.592301
    27  H   -0.034868   0.196982
    28  H   -0.079591   0.249421
    29  H   -0.300121   0.438529
    30  H   -0.268925   0.426798
    31  H   -0.036972   0.189252
    32  H    0.088203   0.049098
    33  H   -0.205852   0.344695
    34  H   -0.098977   0.232659
    35  H    0.025851   0.118706
    36  H   -0.070107   0.193785
    37  H   -0.074222   0.202317
    38  H   -0.060524   0.192153
 Sum of Mulliken charges =  -1.00000   1.00000

 Dipole moment (field-independent basis, Debye):
    X=             -1.5044    Y=             -0.4229    Z=             -2.0442  Tot=              2.5731
 Quadrupole moment (field-independent basis, Debye-Ang):
   XX=           -163.1364   YY=           -139.1436   ZZ=           -123.0398
   XY=             -1.7872   XZ=              2.1285   YZ=              0.5511

 Summary of Natural Population Analysis:

                                       Natural Population
                Natural  -----------------------------------------------
    Atom  No    Charge         Core      Valence    Rydberg      Total
 -----------------------------------------------------------------------
      C    1   -0.29284      0.99966     2.28715    0.00603     3.29284
      C    2   -0.19337      0.99964     2.18566    0.00807     3.19337
      C    3   -0.19043      0.99963     2.18190    0.00891     3.19043
      C    4   -0.09070      0.99962     2.07978    0.01130     3.09070
      N    5   -0.34119      0.99975     2.83067    0.01078     3.84119
      C    6   -0.09345      0.99963     2.08140    0.01242     3.09345
      C    7   -0.01623      0.99959     2.00530    0.01135     3.01623
      O    8   -0.31033      0.99988     3.30086    0.00960     4.31033
      C    9   -0.00429      0.99958     1.99295    0.01176     3.00429
      C   10   -0.19579      0.99960     2.18665    0.00954     3.19579
      C   11   -0.11759      0.99961     2.10809    0.00989     3.11759
      C   12   -0.28661      0.99965     2.28097    0.00599     3.28661
      C   13   -0.28080      0.99965     2.27644    0.00470     3.28080
      H   14    0.10164      0.00000     0.39608    0.00228     0.39836
      H   15    0.09907      0.00000     0.39989    0.00104     0.40093
      H   16    0.09555      0.00000     0.40333    0.00112     0.40445
      H   17    0.09166      0.00000     0.40710    0.00124     0.40834
      H   18    0.09538      0.00000     0.40365    0.00097     0.40462
      H   19    0.09656      0.00000     0.40230    0.00114     0.40344
      H   20    0.09560      0.00000     0.40341    0.00099     0.40440
      H   21    0.09116      0.00000     0.40755    0.00129     0.40884
      H   22    0.08121      0.00000     0.41683    0.00195     0.41879
      H   23    0.17499      0.00000     0.32090    0.00411     0.32501
      H   24    0.09389      0.00000     0.40497    0.00114     0.40611
      H   25    0.09232      0.00000     0.40663    0.00105     0.40768
      H   26    0.08280      0.00000     0.41545    0.00175     0.41720
      H   27    0.07905      0.00000     0.41920    0.00175     0.42095
      H   28    0.07994      0.00000     0.41826    0.00180     0.42006
      H   29    0.08184      0.00000     0.41677    0.00139     0.41816
      H   30    0.09789      0.00000     0.40097    0.00114     0.40211
      H   31    0.10000      0.00000     0.39837    0.00164     0.40000
      H   32    0.09713      0.00000     0.40030    0.00257     0.40287
      H   33    0.09543      0.00000     0.40350    0.00107     0.40457
      H   34    0.09762      0.00000     0.40148    0.00091     0.40238
      H   35    0.10189      0.00000     0.39689    0.00122     0.39811
      H   36    0.09920      0.00000     0.39974    0.00106     0.40080
      H   37    0.09679      0.00000     0.40232    0.00089     0.40321
      H   38    0.09502      0.00000     0.40392    0.00106     0.40498
 =======================================================================
   * Total *   -0.00000     12.99549    39.84764    0.15687    53.00000

 Normal termination of Gaussian 16 at Wed Dec  9 23:41:09 2020.
