 Gaussian 16, Revision A.03,

 -----------------------------------------------------------
 # opt freq B3LYP/6-31G(d) empiricaldispersion=gd3bj scf=xqc
 -----------------------------------------------------------

 -----------------------------
 CID_130124877_JID_85_neutraal
 -----------------------------
 Symbolic Z-matrix:
 Charge =  0 Multiplicity = 1

 SCF Done:  E(RB3LYP) =  -859.751560729     A.U. after   14 cycles
 SCF Done:  E(RB3LYP) =  -859.754764390     A.U. after   13 cycles
 SCF Done:  E(RB3LYP) =  -859.754043093     A.U. after   12 cycles
 SCF Done:  E(RB3LYP) =  -859.755057517     A.U. after   12 cycles
 SCF Done:  E(RB3LYP) =  -859.755597473     A.U. after   12 cycles
 SCF Done:  E(RB3LYP) =  -859.756225676     A.U. after   11 cycles
 SCF Done:  E(RB3LYP) =  -859.756733345     A.U. after   12 cycles
 SCF Done:  E(RB3LYP) =  -859.756234325     A.U. after   13 cycles
 SCF Done:  E(RB3LYP) =  -859.757057863     A.U. after   12 cycles
 SCF Done:  E(RB3LYP) =  -859.757133788     A.U. after   10 cycles
 SCF Done:  E(RB3LYP) =  -859.757641861     A.U. after   10 cycles
 SCF Done:  E(RB3LYP) =  -859.757641545     A.U. after   10 cycles
 SCF Done:  E(RB3LYP) =  -859.757642265     A.U. after   10 cycles
 SCF Done:  E(RB3LYP) =  -859.757642270     A.U. after    8 cycles
 SCF Done:  E(RB3LYP) =  -859.757642315     A.U. after    7 cycles
 Optimization completed.
    -- Stationary point found.
 Normal termination of Gaussian 16 at Tue Dec  8 10:20:05 2020.

 --------------------------------------------------------------------
 #N Geom=AllCheck Guess=TCheck SCRF=Check GenChk RB3LYP/6-31G(d) Freq
 --------------------------------------------------------------------

 Structure from the checkpoint file:  "JID_85.chk"
 -----------------------------
 CID_130124877_JID_85_neutraal
 -----------------------------
 Charge =  0 Multiplicity = 1

 SCF Done:  E(RB3LYP) =  -859.757642315     A.U. after    1 cycles

  Exact polarizability: 104.988  -5.274  86.546   1.354   1.632  75.695
 Approx polarizability: 126.411 -11.589 129.989  -0.916   8.903 121.643

                      1                      2                      3
                      A                      A                      A
 Frequencies --     27.2926                40.0973                57.7426
 Red. masses --      2.8010                 3.4593                 5.9631
 Frc consts  --      0.0012                 0.0033                 0.0117
 IR Inten    --      0.0486                 0.0578                 2.1406

                      4                      5                      6
                      A                      A                      A
 Frequencies --     65.1135                91.4645               128.2118
 Red. masses --      4.9398                 6.3034                 3.3909
 Frc consts  --      0.0123                 0.0311                 0.0328
 IR Inten    --      1.9742                 3.4989                 6.2541

                      7                      8                      9
                      A                      A                      A
 Frequencies --    208.1024               221.1979               259.4074
 Red. masses --      1.6919                 1.7927                 3.1387
 Frc consts  --      0.0432                 0.0517                 0.1244
 IR Inten    --      1.5111                 0.5497                 1.1046

                     10                     11                     12
                      A                      A                      A
 Frequencies --    271.9910               343.6018               381.4746
 Red. masses --      3.2843                 2.5159                 3.0793
 Frc consts  --      0.1432                 0.1750                 0.2640
 IR Inten    --      5.3730                12.9981                 6.1151

                     13                     14                     15
                      A                      A                      A
 Frequencies --    452.0818               479.0066               488.2220
 Red. masses --      1.4924                 2.2088                 2.5484
 Frc consts  --      0.1797                 0.2986                 0.3579
 IR Inten    --    161.3754                27.7438                66.8487

                     16                     17                     18
                      A                      A                      A
 Frequencies --    628.1573               667.4633               710.4496
 Red. masses --      4.1833                 3.8633                 5.1996
 Frc consts  --      0.9725                 1.0140                 1.5463
 IR Inten    --      1.4743                 3.2599                23.7656

                     19                     20                     21
                      A                      A                      A
 Frequencies --    743.2819               801.1508               831.5272
 Red. masses --      3.9770                 1.7039                 1.6885
 Frc consts  --      1.2945                 0.6443                 0.6879
 IR Inten    --     25.7422                 3.4527                 7.3664

                     22                     23                     24
                      A                      A                      A
 Frequencies --    848.2573               941.9406               967.9333
 Red. masses --      2.0606                 2.2423                 2.2863
 Frc consts  --      0.8736                 1.1722                 1.2621
 IR Inten    --     11.2390                14.0166                 4.0318

                     25                     26                     27
                      A                      A                      A
 Frequencies --    987.1235              1031.3855              1054.9081
 Red. masses --      1.6863                 4.1169                 1.7284
 Frc consts  --      0.9681                 2.5802                 1.1332
 IR Inten    --     13.3308                98.6392                38.6394

                     28                     29                     30
                      A                      A                      A
 Frequencies --   1086.6508              1092.0262              1110.5760
 Red. masses --      2.2716                 3.5252                 1.7208
 Frc consts  --      1.5804                 2.4768                 1.2505
 IR Inten    --    154.7829                82.3062                35.2144

                     31                     32                     33
                      A                      A                      A
 Frequencies --   1200.1817              1234.5082              1240.6486
 Red. masses --      1.1457                 1.9717                 1.4055
 Frc consts  --      0.9724                 1.7705                 1.2746
 IR Inten    --      7.9874               165.2938                44.2322

                     34                     35                     36
                      A                      A                      A
 Frequencies --   1309.8978              1316.4389              1330.3997
 Red. masses --      1.2094                 1.1647                 1.2924
 Frc consts  --      1.2226                 1.1892                 1.3477
 IR Inten    --     39.5336                49.4145                16.6106

                     37                     38                     39
                      A                      A                      A
 Frequencies --   1363.2085              1378.1317              1414.9243
 Red. masses --      1.4471                 1.3685                 1.2072
 Frc consts  --      1.5844                 1.5313                 1.4240
 IR Inten    --      6.8734                18.0618                 2.5685

                     40                     41                     42
                      A                      A                      A
 Frequencies --   1433.3287              1437.1742              1487.4906
 Red. masses --      1.2346                 1.2194                 1.0990
 Frc consts  --      1.4944                 1.4839                 1.4327
 IR Inten    --     49.2488                 1.5063                25.7682

                     43                     44                     45
                      A                      A                      A
 Frequencies --   1496.3347              1506.4521              1527.6899
 Red. masses --      1.0876                 1.0829                 1.0397
 Frc consts  --      1.4347                 1.4480                 1.4296
 IR Inten    --      0.2667                 3.9623                 7.4190

                     46                     47                     48
                      A                      A                      A
 Frequencies --   1528.4212              1537.8106              1840.5627
 Red. masses --      1.0909                 1.0628                11.0832
 Frc consts  --      1.5015                 1.4809                22.1217
 IR Inten    --      0.1957                13.2463               203.8503

                     49                     50                     51
                      A                      A                      A
 Frequencies --   3018.8575              3063.6928              3073.1764
 Red. masses --      1.0682                 1.0351                 1.0633
 Frc consts  --      5.7359                 5.7245                 5.9167
 IR Inten    --     58.7372                16.9549                12.0665

                     52                     53                     54
                      A                      A                      A
 Frequencies --   3080.2942              3098.0984              3123.3257
 Red. masses --      1.0623                 1.0938                 1.0553
 Frc consts  --      5.9384                 6.1858                 6.0655
 IR Inten    --      7.4928                36.4951                 7.9410

                     55                     56                     57
                      A                      A                      A
 Frequencies --   3128.2607              3135.0666              3136.5723
 Red. masses --      1.1005                 1.1041                 1.1065
 Frc consts  --      6.3452                 6.3935                 6.4137
 IR Inten    --      4.1125                22.6074                 9.5256

                     58                     59                     60
                      A                      A                      A
 Frequencies --   3150.0732              3198.8796              3709.2319
 Red. masses --      1.1029                 1.1139                 1.0654
 Frc consts  --      6.4483                 6.7157                 8.6367
 IR Inten    --     32.6409                 0.7782                15.7702

 - Thermochemistry -
 -------------------
 Temperature   298.150 Kelvin.  Pressure   1.00000 Atm.
 Atom     1 has atomic number  6 and mass  12.00000

 Molecular mass:   164.05072 amu.
 Principal axes and moments of inertia in atomic units:
                           1         2         3
     Eigenvalues --   857.092083309.894743563.21345
           X            0.99988   0.01511   0.00227
           Y           -0.01495   0.99810  -0.05981
           Z           -0.00317   0.05977   0.99821
 This molecule is an asymmetric top.
 Rotational symmetry number  1.
 Warning -- assumption of classical behavior for rotation
           may cause significant error
 Rotational temperatures (Kelvin)      0.10106     0.02617     0.02431
 Rotational constants (GHZ):           2.10566     0.54526     0.50649
 Zero-point vibrational energy     481598.4 (Joules/Mol)
                                  115.10479 (Kcal/Mol)
 Warning -- explicit consideration of  15 degrees of freedom as
           vibrations may cause significant error
 Vibrational temperatures:     39.27    57.69    83.08    93.68   131.60
          (Kelvin)            184.47   299.41   318.25   373.23   391.33
                              494.37   548.86   650.44   689.18   702.44
                              903.78   960.33  1022.18  1069.42  1152.68
                             1196.38  1220.45  1355.24  1392.64  1420.25
                             1483.93  1517.78  1563.45  1571.18  1597.87
                             1726.79  1776.18  1785.02  1884.65  1894.06
                             1914.15  1961.35  1982.82  2035.76  2062.24
                             2067.77  2140.17  2152.89  2167.45  2198.01
                             2199.06  2212.57  2648.16  4343.46  4407.97
                             4421.62  4431.86  4457.47  4493.77  4500.87
                             4510.66  4512.83  4532.25  4602.47  5336.76

 Zero-point correction=                           0.183431 (Hartree/Particle)
 Thermal correction to Energy=                    0.195593
 Thermal correction to Enthalpy=                  0.196537
 Thermal correction to Gibbs Free Energy=         0.142778
 Sum of electronic and zero-point Energies=           -859.574211
 Sum of electronic and thermal Energies=              -859.562049
 Sum of electronic and thermal Enthalpies=            -859.561105
 Sum of electronic and thermal Free Energies=         -859.614864

                     E (Thermal)             CV                S
                      KCal/Mol        Cal/Mol-Kelvin    Cal/Mol-Kelvin
 Total                  122.736             41.860            113.146
 Electronic               0.000              0.000              0.000
 Translational            0.889              2.981             41.194
 Rotational               0.889              2.981             30.692
 Vibrational            120.959             35.898             41.260
 Vibration     1          0.593              1.984              6.017
 Vibration     2          0.594              1.981              5.254
 Vibration     3          0.596              1.974              4.533
 Vibration     4          0.597              1.971              4.296
 Vibration     5          0.602              1.955              3.628
 Vibration     6          0.611              1.925              2.973
 Vibration     7          0.641              1.828              2.060
 Vibration     8          0.648              1.809              1.949
 Vibration     9          0.668              1.747              1.666
 Vibration    10          0.675              1.725              1.584
 Vibration    11          0.722              1.588              1.195
 Vibration    12          0.751              1.510              1.033
 Vibration    13          0.811              1.356              0.790
 Vibration    14          0.835              1.297              0.713
 Vibration    15          0.844              1.276              0.688

 Optimization completed.
    -- Stationary point found.
 Normal termination of Gaussian 16 at Tue Dec  8 10:23:27 2020.

 ----------------------------------------------------------------------
 # B3LYP/6-311++G(d,p) empiricaldispersion=gd3bj scf=xqc pop=npa geom=c
 heck
 ----------------------------------------------------------------------

 -------------------------------------
 CID_130124877_JID_85_Energie_neutraal
 -------------------------------------
 Structure from the checkpoint file:  "JID_85.chk"
 Charge =  0 Multiplicity = 1

 SCF Done:  E(RB3LYP) =  -859.934241343     A.U. after   13 cycles
 Normal termination of Gaussian 16 at Tue Dec  8 10:24:39 2020.

 ----------------------------------------------------------------------
 # B3LYP/6-311++G(d,p) empiricaldispersion=gd3bj scf=xqc pop=npa geom=c
 heck
 ----------------------------------------------------------------------

 -----------------------------------
 CID_130124877_JID_85_Energie_kation
 -----------------------------------
 Structure from the checkpoint file:  "JID_85.chk"
 Charge =  1 Multiplicity = 2

 SCF Done:  E(UB3LYP) =  -859.605283445     A.U. after   20 cycles
 Normal termination of Gaussian 16 at Tue Dec  8 10:27:00 2020.
 Gaussian 16:  ES64L-G16RevA.03 25-Dec-2016

 ----------------------------------------------------------------------
 # B3LYP/6-311++G(d,p) empiricaldispersion=gd3bj scf=xqc pop=npa geom=c
 heck
 ----------------------------------------------------------------------

 ----------------------------------
 CID_130124877_JID_85_Energie_anion
 ----------------------------------
 Structure from the checkpoint file:  "JID_85.chk"
 Charge = -1 Multiplicity = 2

                         Standard orientation:
 ---------------------------------------------------------------------
 Center     Atomic      Atomic             Coordinates (Angstroms)
 Number     Number       Type             X           Y           Z
 ---------------------------------------------------------------------
      1          6           0        2.876497    1.781605   -0.192406
      2          6           0        3.167966    0.439920    0.500548
      3          6           0        2.091132   -0.576092    0.200928
      4          8           0        2.207263   -1.552073   -0.502684
      5          8           0        0.923098   -0.231572    0.819934
      6          6           0       -0.215471   -1.030186    0.493118
      7         16           0       -1.036380   -0.482508   -1.044151
      8          6           0       -1.816539    1.059786   -0.406529
      9          6           0       -3.250989    0.835775    0.076798
     10          8           0       -3.355145   -0.204255    1.037101
     11          1           0        2.803527    1.651912   -1.277112
     12          1           0        3.678657    2.497253    0.012760
     13          1           0        1.934190    2.205998    0.165462
     14          1           0        4.116306    0.019959    0.157034
     15          1           0        3.223524    0.587219    1.585095
     16          1           0        0.081150   -2.068874    0.344516
     17          1           0       -0.903350   -0.919216    1.329724
     18          1           0       -1.179496    1.436627    0.398589
     19          1           0       -1.797295    1.791794   -1.220224
     20          1           0       -3.611906    1.744999    0.569974
     21          1           0       -3.905212    0.640986   -0.786114
     22          1           0       -3.175323   -1.030185    0.557175
 ---------------------------------------------------------------------

 SCF Done:  E(UB3LYP) =  -859.919859068     A.U. after   33 cycles
 SCF Done:  E(UB3LYP) =  -859.919859068     a.u. after    1 cycles

 The electronic state is 2-A.
 Alpha  occ. eigenvalues --  -88.75279 -19.07484 -19.03370 -19.01837 -10.20354
 Alpha  occ. eigenvalues --  -10.16057 -10.12423 -10.10130 -10.08290 -10.06312
 Alpha  occ. eigenvalues --   -7.83907  -5.80281  -5.79921  -5.79307  -1.01465
 Alpha  occ. eigenvalues --   -0.93625  -0.92984  -0.71717  -0.68765  -0.64330
 Alpha  occ. eigenvalues --   -0.58156  -0.54319  -0.51017  -0.46312  -0.42372
 Alpha  occ. eigenvalues --   -0.41125  -0.39736  -0.37836  -0.36300  -0.35039
 Alpha  occ. eigenvalues --   -0.34156  -0.33021  -0.31748  -0.29653  -0.28415
 Alpha  occ. eigenvalues --   -0.27160  -0.26259  -0.25596  -0.25323  -0.22857
 Alpha  occ. eigenvalues --   -0.20603  -0.19374  -0.18617  -0.14755   0.04646
 Alpha virt. eigenvalues --    0.06377   0.07405   0.08677   0.09002   0.09248
 Alpha virt. eigenvalues --    0.09792   0.09926   0.11095   0.11891   0.12174
 Alpha virt. eigenvalues --    0.12263   0.13245   0.13716   0.15330   0.15426

  Beta  occ. eigenvalues --  -88.75276 -19.07463 -19.03361 -19.01804 -10.20314
  Beta  occ. eigenvalues --  -10.16053 -10.12385 -10.10094 -10.08271 -10.06255
  Beta  occ. eigenvalues --   -7.83904  -5.80280  -5.79911  -5.79305  -1.01414
  Beta  occ. eigenvalues --   -0.93603  -0.92930  -0.71676  -0.68700  -0.64281
  Beta  occ. eigenvalues --   -0.58089  -0.54219  -0.50941  -0.46269  -0.42325
  Beta  occ. eigenvalues --   -0.41068  -0.39671  -0.37751  -0.36233  -0.34976
  Beta  occ. eigenvalues --   -0.34109  -0.32964  -0.31686  -0.29590  -0.28365
  Beta  occ. eigenvalues --   -0.27097  -0.26181  -0.25533  -0.25291  -0.22789
  Beta  occ. eigenvalues --   -0.20533  -0.19333  -0.18579  -0.14734
  Beta virt. eigenvalues --    0.07074   0.07527   0.07762   0.09272   0.09310
  Beta virt. eigenvalues --    0.09819   0.10393   0.10572   0.11582   0.12146
  Beta virt. eigenvalues --    0.12452   0.12737   0.13365   0.14075   0.15339

 Mulliken charges and spin densities:
               1          2
     1  C    0.857809  -1.279254
     2  C   -0.103922  -0.152437
     3  C    0.231598  -0.287686
     4  O   -0.278874   0.025143
     5  O    0.003789   0.045660
     6  C   -0.266122  -0.316010
     7  S    0.073968   0.290566
     8  C   -1.001048   0.672528
     9  C    2.060319  -2.500431
    10  O   -0.308686   0.045427
    11  H    0.102580   0.028975
    12  H   -0.930212   1.100328
    13  H   -0.315772   0.470910
    14  H   -0.041551   0.190329
    15  H   -0.241515   0.418138
    16  H    0.249335  -0.014428
    17  H    0.034440   0.194042
    18  H    0.502823  -0.313189
    19  H   -0.815630   1.023546
    20  H   -0.631459   0.805068
    21  H   -0.332327   0.476171
    22  H    0.150459   0.076602
 Sum of Mulliken charges =  -1.00000   1.00000

 Dipole moment (field-independent basis, Debye):
    X=             -1.0639    Y=             -7.1831    Z=              0.4208  Tot=              7.2736
 Quadrupole moment (field-independent basis, Debye-Ang):
   XX=           -148.1282   YY=           -113.0066   ZZ=            -98.8255
   XY=             -0.2646   XZ=             -3.0314   YZ=             -2.7916

 Summary of Natural Population Analysis:

                                       Natural Population
                Natural  -----------------------------------------------
    Atom  No    Charge         Core      Valence    Rydberg      Total
 -----------------------------------------------------------------------
      C    1   -0.28072      0.99966     2.27585    0.00521     3.28072
      C    2   -0.23550      0.99960     2.22698    0.00893     3.23550
      C    3    0.41701      0.99969     1.55652    0.02678     2.58299
      O    4   -0.30326      0.99987     3.29779    0.00561     4.30326
      O    5   -0.28732      0.99986     3.27686    0.01060     4.28732
      C    6   -0.09316      0.99957     2.07946    0.01413     3.09316
      S    7    0.08144      4.99963     2.89944    0.01949     7.91856
      C    8   -0.26406      0.99960     2.25283    0.01163     3.26406
      C    9   -0.01517      0.99959     2.00133    0.01425     3.01517
      O   10   -0.37224      0.99990     3.36492    0.00743     4.37224
      H   11    0.09833      0.00000     0.40032    0.00135     0.40167
      H   12    0.10482      0.00000     0.39146    0.00372     0.39518
      H   13    0.10418      0.00000     0.39389    0.00193     0.39582
      H   14    0.10607      0.00000     0.39289    0.00105     0.39393
      H   15    0.11120      0.00000     0.38675    0.00205     0.38880
      H   16    0.10346      0.00000     0.39523    0.00131     0.39654
      H   17    0.10413      0.00000     0.39401    0.00186     0.39587
      H   18    0.10924      0.00000     0.38881    0.00195     0.39076
      H   19    0.11358      0.00000     0.38360    0.00283     0.38642
      H   20    0.09253      0.00000     0.40505    0.00241     0.40747
      H   21    0.07823      0.00000     0.41935    0.00242     0.42177
      H   22    0.22723      0.00000     0.26923    0.00354     0.27277
 =======================================================================
   * Total *   -0.00000     13.99696    29.85256    0.15048    44.00000

 Normal termination of Gaussian 16 at Tue Dec  8 10:30:52 2020.
