 Gaussian 16, Revision A.03,

 -----------------------------------------------------------
 # opt freq B3LYP/6-31G(d) empiricaldispersion=gd3bj scf=xqc
 -----------------------------------------------------------

 --------------------------------
 CID_107461249_JID_10446_neutraal
 --------------------------------
 Symbolic Z-matrix:
 Charge =  0 Multiplicity = 1

 SCF Done:  E(RB3LYP) =  -933.698633918     A.U. after   15 cycles
 SCF Done:  E(RB3LYP) =  -930.398117026     A.U. after   20 cycles
 SCF Done:  E(RB3LYP) =  -933.234773674     A.U. after   18 cycles
 SCF Done:  E(RB3LYP) =  -933.668639378     A.U. after   13 cycles
 SCF Done:  E(RB3LYP) =  -933.700570998     A.U. after   11 cycles
 SCF Done:  E(RB3LYP) =  -933.701685048     A.U. after   12 cycles
 SCF Done:  E(RB3LYP) =  -933.704048280     A.U. after   12 cycles
 SCF Done:  E(RB3LYP) =  -933.703010867     A.U. after   13 cycles
 SCF Done:  E(RB3LYP) =  -933.705833216     A.U. after   12 cycles
 SCF Done:  E(RB3LYP) =  -933.701512612     A.U. after   12 cycles
 SCF Done:  E(RB3LYP) =  -933.714210354     A.U. after   10 cycles
 SCF Done:  E(RB3LYP) =  -933.714218013     A.U. after   10 cycles
 SCF Done:  E(RB3LYP) =  -933.714218837     A.U. after    9 cycles
 SCF Done:  E(RB3LYP) =  -933.714219551     A.U. after    9 cycles
 SCF Done:  E(RB3LYP) =  -933.714219561     A.U. after    6 cycles
 Optimization completed.
    -- Stationary point found.
 Normal termination of Gaussian 16 at Sat Dec 12 16:54:50 2020.

 --------------------------------------------------------------------
 #N Geom=AllCheck Guess=TCheck SCRF=Check GenChk RB3LYP/6-31G(d) Freq
 --------------------------------------------------------------------

 Structure from the checkpoint file:  "JID_10446.chk"
 --------------------------------
 CID_107461249_JID_10446_neutraal
 --------------------------------
 Charge =  0 Multiplicity = 1

 SCF Done:  E(RB3LYP) =  -933.714219561     A.U. after    1 cycles

  Exact polarizability: 182.382 -17.485 163.666  11.992  22.448 138.256
 Approx polarizability: 269.364 -38.703 258.769  25.738  57.674 247.315

                      1                      2                      3
                      A                      A                      A
 Frequencies --     39.3668                55.2820                60.5430
 Red. masses --      5.2863                 5.1821                 4.2606
 Frc consts  --      0.0048                 0.0093                 0.0092
 IR Inten    --      1.8326                 0.2356                 0.6314

                      4                      5                      6
                      A                      A                      A
 Frequencies --     66.3753                74.6345                81.2972
 Red. masses --      1.0675                 2.9214                 1.4211
 Frc consts  --      0.0028                 0.0096                 0.0055
 IR Inten    --      0.1616                 5.7283                 0.5480

                      7                      8                      9
                      A                      A                      A
 Frequencies --    103.1283               107.5897               115.0094
 Red. masses --      4.8308                 5.1626                 5.0937
 Frc consts  --      0.0303                 0.0352                 0.0397
 IR Inten    --      3.1811                10.1127                 0.3874

                     10                     11                     12
                      A                      A                      A
 Frequencies --    125.3080               190.2304               207.2569
 Red. masses --      5.9125                 3.8850                 4.0542
 Frc consts  --      0.0547                 0.0828                 0.1026
 IR Inten    --      0.1246                 4.1404                 0.6452

                     13                     14                     15
                      A                      A                      A
 Frequencies --    230.6820               246.1256               258.1035
 Red. masses --      3.3401                 3.7207                 3.5203
 Frc consts  --      0.1047                 0.1328                 0.1382
 IR Inten    --      2.9731                 0.3947                 2.0845

                     16                     17                     18
                      A                      A                      A
 Frequencies --    271.8787               286.9840               347.4422
 Red. masses --      2.6625                 3.7776                 5.0919
 Frc consts  --      0.1160                 0.1833                 0.3622
 IR Inten    --      0.5741                 0.2191                 2.3518

                     19                     20                     21
                      A                      A                      A
 Frequencies --    380.5382               401.3244               415.3158
 Red. masses --      3.6305                 2.8566                 2.4047
 Frc consts  --      0.3098                 0.2711                 0.2444
 IR Inten    --      3.4171                 3.2544                 1.0608

                     22                     23                     24
                      A                      A                      A
 Frequencies --    467.4091               511.1925               520.3407
 Red. masses --      3.2206                 4.0146                 3.1257
 Frc consts  --      0.4146                 0.6181                 0.4986
 IR Inten    --      3.8408                 2.3991                20.7258

                     25                     26                     27
                      A                      A                      A
 Frequencies --    537.3156               545.6355               553.4319
 Red. masses --      3.4121                 3.2234                 3.7075
 Frc consts  --      0.5804                 0.5654                 0.6690
 IR Inten    --      0.7419                14.7594                 4.3554

                     28                     29                     30
                      A                      A                      A
 Frequencies --    579.6985               589.8761               612.0366
 Red. masses --      4.0801                 1.9330                 3.6895
 Frc consts  --      0.8078                 0.3963                 0.8143
 IR Inten    --      1.8671                98.0582                14.0878

                     31                     32                     33
                      A                      A                      A
 Frequencies --    645.5489               673.1590               702.2197
 Red. masses --      2.9717                 3.1210                 3.0977
 Frc consts  --      0.7296                 0.8333                 0.9000
 IR Inten    --     26.6762                44.0310                 3.9252

                     34                     35                     36
                      A                      A                      A
 Frequencies --    710.6112               728.9087               791.1936
 Red. masses --      4.3119                 4.4237                 1.4748
 Frc consts  --      1.2829                 1.3848                 0.5439
 IR Inten    --     43.3542                20.5596                19.1876

                     37                     38                     39
                      A                      A                      A
 Frequencies --    832.1853               853.0159               874.4738
 Red. masses --      3.6453                 1.2815                 2.5734
 Frc consts  --      1.4874                 0.5494                 1.1594
 IR Inten    --      6.6964                35.9152                 2.3183

                     40                     41                     42
                      A                      A                      A
 Frequencies --    876.9295               889.2539               903.1268
 Red. masses --      1.3732                 4.4001                 1.3524
 Frc consts  --      0.6222                 2.0500                 0.6499
 IR Inten    --      0.1990                 4.3956                15.1878

                     43                     44                     45
                      A                      A                      A
 Frequencies --    951.8969               961.0461               972.3511
 Red. masses --      2.2728                 2.3550                 2.5561
 Frc consts  --      1.2134                 1.2815                 1.4239
 IR Inten    --      5.3900                19.3256                 0.5227

                     46                     47                     48
                      A                      A                      A
 Frequencies --    981.1103              1020.5941              1038.6427
 Red. masses --      3.4582                 5.9273                 1.9962
 Frc consts  --      1.9613                 3.6376                 1.2688
 IR Inten    --      1.2856                 1.0027                 8.0693

                     49                     50                     51
                      A                      A                      A
 Frequencies --   1048.2100              1053.4451              1063.9965
 Red. masses --      3.6679                 1.4722                 3.7296
 Frc consts  --      2.3745                 0.9626                 2.4877
 IR Inten    --     10.7364                 1.1081                24.5680

                     52                     53                     54
                      A                      A                      A
 Frequencies --   1072.0132              1081.6737              1085.8450
 Red. masses --      1.5024                 1.5128                 2.4352
 Frc consts  --      1.0173                 1.0429                 1.6917
 IR Inten    --     12.0118                10.4554                13.3243

                     55                     56                     57
                      A                      A                      A
 Frequencies --   1119.4447              1140.3262              1167.1186
 Red. masses --      2.3807                 1.6815                 2.3016
 Frc consts  --      1.7578                 1.2883                 1.8472
 IR Inten    --     42.4267                68.1176                24.4314

                     58                     59                     60
                      A                      A                      A
 Frequencies --   1190.7577              1212.7231              1215.8026
 Red. masses --      1.7244                 1.5950                 1.6964
 Frc consts  --      1.4406                 1.3821                 1.4774
 IR Inten    --     65.6711                55.7507                10.1926

                     61                     62                     63
                      A                      A                      A
 Frequencies --   1242.8577              1287.8750              1305.9920
 Red. masses --      1.7423                 4.7960                 1.3927
 Frc consts  --      1.5856                 4.6868                 1.3996
 IR Inten    --     63.2393                26.0272                 0.9068

                     64                     65                     66
                      A                      A                      A
 Frequencies --   1315.9310              1322.8483              1342.6679
 Red. masses --      1.5013                 1.6403                 2.7863
 Frc consts  --      1.5317                 1.6912                 2.9595
 IR Inten    --      1.8040                 0.2070               103.9026

                     67                     68                     69
                      A                      A                      A
 Frequencies --   1357.8216              1370.7119              1382.6979
 Red. masses --      1.8443                 3.5571                 2.5059
 Frc consts  --      2.0034                 3.9376                 2.8227
 IR Inten    --      5.2635                15.6568                76.1574

                     70                     71                     72
                      A                      A                      A
 Frequencies --   1401.1690              1411.5597              1423.6916
 Red. masses --      2.7252                 1.5112                 1.4039
 Frc consts  --      3.1523                 1.7741                 1.6765
 IR Inten    --      8.2664                15.1738                10.6030

                     73                     74                     75
                      A                      A                      A
 Frequencies --   1442.7293              1446.5787              1480.8502
 Red. masses --      1.2414                 1.2644                 1.8854
 Frc consts  --      1.5224                 1.5589                 2.4360
 IR Inten    --      1.0227                 2.5396                10.0943

                     76                     77                     78
                      A                      A                      A
 Frequencies --   1490.4416              1496.2768              1499.1579
 Red. masses --      1.1014                 1.1863                 1.8580
 Frc consts  --      1.4415                 1.5649                 2.4603
 IR Inten    --      9.6746                 5.4359                 0.9433

                     79                     80                     81
                      A                      A                      A
 Frequencies --   1510.1570              1518.5092              1520.5385
 Red. masses --      3.5381                 1.0517                 1.0792
 Frc consts  --      4.7541                 1.4288                 1.4700
 IR Inten    --     17.2851                 3.6032                13.7607

                     82                     83                     84
                      A                      A                      A
 Frequencies --   1529.9732              1535.1558              1538.7023
 Red. masses --      1.2832                 1.2403                 1.3520
 Frc consts  --      1.7698                 1.7222                 1.8859
 IR Inten    --      6.2732                17.1429                45.6876

                     85                     86                     87
                      A                      A                      A
 Frequencies --   1593.0222              1652.7773              1663.0649
 Red. masses --      6.3293                 5.2128                 6.0792
 Frc consts  --      9.4634                 8.3898                 9.9063
 IR Inten    --      6.6370                96.4845                52.8906

                     88                     89                     90
                      A                      A                      A
 Frequencies --   1849.7266              3044.7164              3045.3683
 Red. masses --      9.9516                 1.0395                 1.0438
 Frc consts  --     20.0612                 5.6776                 5.7035
 IR Inten    --    237.8685                36.0872                20.4671

                     91                     92                     93
                      A                      A                      A
 Frequencies --   3071.4140              3071.6166              3095.3566
 Red. masses --      1.0670                 1.0609                 1.0602
 Frc consts  --      5.9306                 5.8975                 5.9849
 IR Inten    --     21.1336                32.0063                22.5966

                     94                     95                     96
                      A                      A                      A
 Frequencies --   3101.2943              3112.1996              3125.9986
 Red. masses --      1.0974                 1.0931                 1.1029
 Frc consts  --      6.2189                 6.2379                 6.3501
 IR Inten    --     17.6219                12.0871                11.8811

                     97                     98                     99
                      A                      A                      A
 Frequencies --   3126.3507              3149.9754              3151.8732
 Red. masses --      1.1050                 1.1016                 1.1078
 Frc consts  --      6.3634                 6.4400                 6.4839
 IR Inten    --     20.6815                 5.9584                 7.1440

                    100                    101                    102
                      A                      A                      A
 Frequencies --   3164.6590              3185.3498              3203.3236
 Red. masses --      1.0968                 1.0900                 1.0907
 Frc consts  --      6.4720                 6.5162                 6.5942
 IR Inten    --      1.3669                10.1457                 5.8419

                    103                    104                    105
                      A                      A                      A
 Frequencies --   3228.8582              3317.5964              3638.2788
 Red. masses --      1.0899                 1.0998                 1.0640
 Frc consts  --      6.6949                 7.1317                 8.2981
 IR Inten    --      2.7370                 1.8510               127.9296

 - Thermochemistry -
 -------------------
 Temperature   298.150 Kelvin.  Pressure   1.00000 Atm.
 Atom     1 has atomic number  6 and mass  12.00000

 Molecular mass:   275.12699 amu.
 Principal axes and moments of inertia in atomic units:
                           1         2         3
     Eigenvalues --  3983.035725092.924777045.45606
           X            0.99990  -0.01424  -0.00022
           Y            0.01425   0.99980   0.01429
           Z            0.00002  -0.01430   0.99990
 This molecule is an asymmetric top.
 Rotational symmetry number  1.
 Warning -- assumption of classical behavior for rotation
           may cause significant error
 Rotational temperatures (Kelvin)      0.02175     0.01701     0.01229
 Rotational constants (GHZ):           0.45311     0.35436     0.25616
 Zero-point vibrational energy     793164.2 (Joules/Mol)
                                  189.57078 (Kcal/Mol)
 Warning -- explicit consideration of  30 degrees of freedom as
           vibrations may cause significant error
 Vibrational temperatures:     56.64    79.54    87.11    95.50   107.38
          (Kelvin)            116.97   148.38   154.80   165.47   180.29
                              273.70   298.20   331.90   354.12   371.35
                              391.17   412.91   499.89   547.51   577.42
                              597.55   672.50   735.49   748.65   773.08
                              785.05   796.27   834.06   848.70   880.58
                              928.80   968.53  1010.34  1022.41  1048.74
                             1138.35  1197.33  1227.30  1258.17  1261.71
                             1279.44  1299.40  1369.57  1382.73  1399.00
                             1411.60  1468.41  1494.38  1508.14  1515.67
                             1530.85  1542.39  1556.29  1562.29  1610.63
                             1640.68  1679.22  1713.23  1744.84  1749.27
                             1788.20  1852.96  1879.03  1893.33  1903.28
                             1931.80  1953.60  1972.15  1989.39  2015.97
                             2030.92  2048.37  2075.77  2081.30  2130.61
                             2144.41  2152.81  2156.95  2172.78  2184.80
                             2187.72  2201.29  2208.75  2213.85  2292.00
                             2377.98  2392.78  2661.34  4380.67  4381.61
                             4419.08  4419.37  4453.53  4462.07  4477.76
                             4497.61  4498.12  4532.11  4534.84  4553.24
                             4583.01  4608.87  4645.61  4773.28  5234.67

 Zero-point correction=                           0.302100 (Hartree/Particle)
 Thermal correction to Energy=                    0.320889
 Thermal correction to Enthalpy=                  0.321833
 Thermal correction to Gibbs Free Energy=         0.254493
 Sum of electronic and zero-point Energies=           -933.412119
 Sum of electronic and thermal Energies=              -933.393331
 Sum of electronic and thermal Enthalpies=            -933.392387
 Sum of electronic and thermal Free Energies=         -933.459727

                     E (Thermal)             CV                S
                      KCal/Mol        Cal/Mol-Kelvin    Cal/Mol-Kelvin
 Total                  201.361             70.586            141.729
 Electronic               0.000              0.000              0.000
 Translational            0.889              2.981             42.735
 Rotational               0.889              2.981             33.324
 Vibrational            199.583             64.624             65.670
 Vibration     1          0.594              1.981              5.291
 Vibration     2          0.596              1.975              4.619
 Vibration     3          0.597              1.973              4.439
 Vibration     4          0.598              1.970              4.258
 Vibration     5          0.599              1.966              4.027
 Vibration     6          0.600              1.962              3.859
 Vibration     7          0.605              1.947              3.394
 Vibration     8          0.606              1.943              3.312
 Vibration     9          0.608              1.937              3.183
 Vibration    10          0.610              1.928              3.017
 Vibration    11          0.634              1.853              2.226
 Vibration    12          0.641              1.830              2.068
 Vibration    13          0.652              1.794              1.874
 Vibration    14          0.661              1.769              1.758
 Vibration    15          0.667              1.749              1.675
 Vibration    16          0.675              1.725              1.584
 Vibration    17          0.684              1.698              1.492
 Vibration    18          0.725              1.580              1.178
 Vibration    19          0.750              1.512              1.037
 Vibration    20          0.767              1.467              0.958
 Vibration    21          0.779              1.437              0.908
 Vibration    22          0.825              1.322              0.745
 Vibration    23          0.866              1.225              0.631
 Vibration    24          0.875              1.205              0.609
 Vibration    25          0.892              1.168              0.571
 Vibration    26          0.901              1.149              0.553
 Vibration    27          0.909              1.132              0.537
 Vibration    28          0.936              1.075              0.486
 Vibration    29          0.947              1.053              0.467
 Vibration    30          0.971              1.006              0.429

 Optimization completed.
    -- Stationary point found.
 Normal termination of Gaussian 16 at Sat Dec 12 17:19:04 2020.

 ----------------------------------------------------------------------
 # B3LYP/6-311++G(d,p) empiricaldispersion=gd3bj scf=xqc pop=npa geom=c
 heck
 ----------------------------------------------------------------------

 ----------------------------------------
 CID_107461249_JID_10446_Energie_neutraal
 ----------------------------------------
 Structure from the checkpoint file:  "JID_10446.chk"
 Charge =  0 Multiplicity = 1

 SCF Done:  E(RB3LYP) =  -933.973906721     A.U. after   16 cycles
 Normal termination of Gaussian 16 at Sat Dec 12 17:29:36 2020.

 ----------------------------------------------------------------------
 # B3LYP/6-311++G(d,p) empiricaldispersion=gd3bj scf=xqc pop=npa geom=c
 heck
 ----------------------------------------------------------------------

 --------------------------------------
 CID_107461249_JID_10446_Energie_kation
 --------------------------------------
 Structure from the checkpoint file:  "JID_10446.chk"
 Charge =  1 Multiplicity = 2

 SCF Done:  E(UB3LYP) =  -933.677881397     A.U. after   28 cycles
 Normal termination of Gaussian 16 at Sat Dec 12 17:55:56 2020.
 Gaussian 16:  ES64L-G16RevA.03 25-Dec-2016

 ----------------------------------------------------------------------
 # B3LYP/6-311++G(d,p) empiricaldispersion=gd3bj scf=xqc pop=npa geom=c
 heck
 ----------------------------------------------------------------------

 -------------------------------------
 CID_107461249_JID_10446_Energie_anion
 -------------------------------------
 Structure from the checkpoint file:  "JID_10446.chk"
 Charge = -1 Multiplicity = 2

                         Standard orientation:
 ---------------------------------------------------------------------
 Center     Atomic      Atomic             Coordinates (Angstroms)
 Number     Number       Type             X           Y           Z
 ---------------------------------------------------------------------
      1          6           0       -1.195132    1.025869    2.543031
      2          6           0       -1.355924   -0.001408    1.450022
      3          6           0       -2.579200   -0.171361    0.791580
      4          6           0       -2.725394   -1.117931   -0.232636
      5          6           0       -1.620847   -1.888821   -0.603758
      6          6           0       -0.395952   -1.724874    0.047290
      7          6           0       -0.261403   -0.786532    1.072306
      8          8           0        0.626093   -2.515781   -0.429656
      9          6           0        1.838105   -2.642659    0.300301
     10          6           0        2.949553   -1.780842   -0.305286
     11          7           0        2.635719   -0.364805   -0.257617
     12          6           0        1.877734    0.355158   -1.118111
     13          6           0        1.708123    1.572292   -0.492103
     14          7           0        2.358486    1.528789    0.707624
     15          7           0        2.917965    0.354959    0.855393
     16          6           0        0.874568    2.748267   -0.904984
     17          6           0       -0.604241    2.421687   -0.754381
     18          8           0       -1.373494    2.976563   -0.004088
     19          8           0       -0.953679    1.389984   -1.555902
     20          6           0       -4.061850   -1.327583   -0.905114
     21          1           0       -0.179501    1.433791    2.548759
     22          1           0       -1.890311    1.857428    2.405125
     23          1           0       -1.382479    0.581868    3.529557
     24          1           0       -3.426840    0.446666    1.076539
     25          1           0       -1.693150   -2.624348   -1.399174
     26          1           0        0.693051   -0.607779    1.552073
     27          1           0        1.696927   -2.404324    1.358026
     28          1           0        2.137030   -3.693749    0.222352
     29          1           0        3.880745   -1.931377    0.247099
     30          1           0        3.107703   -2.058624   -1.350548
     31          1           0        1.494050   -0.050468   -2.039653
     32          1           0        1.101619    3.604362   -0.268961
     33          1           0        1.069642    3.016175   -1.950011
     34          1           0       -1.825874    1.069913   -1.249861
     35          1           0       -4.684831   -0.429220   -0.846002
     36          1           0       -3.944055   -1.594743   -1.960647
     37          1           0       -4.619111   -2.141858   -0.424260
 ---------------------------------------------------------------------

 SCF Done:  E(UB3LYP) =  -933.966878985     A.U. after   33 cycles
 SCF Done:  E(UB3LYP) =  -933.966878985     a.u. after    1 cycles

 The electronic state is 2-A.
 Alpha  occ. eigenvalues --  -19.07232 -19.06227 -19.02077 -14.29743 -14.26118
 Alpha  occ. eigenvalues --  -14.23172 -10.21088 -10.14506 -10.13965 -10.12492
 Alpha  occ. eigenvalues --  -10.10660 -10.10338 -10.09946 -10.09925 -10.09518
 Alpha  occ. eigenvalues --  -10.08758 -10.07662 -10.07589 -10.07544 -10.07226
 Alpha  occ. eigenvalues --   -1.01433  -0.99541  -0.97583  -0.92736  -0.81961
 Alpha  occ. eigenvalues --   -0.77280  -0.72606  -0.69765  -0.69496  -0.66254
 Alpha  occ. eigenvalues --   -0.64599  -0.60655  -0.60070  -0.57693  -0.53492
 Alpha  occ. eigenvalues --   -0.50763  -0.50230  -0.49415  -0.48051  -0.43792
 Alpha  occ. eigenvalues --   -0.43334  -0.40758  -0.40330  -0.40081  -0.39497
 Alpha  occ. eigenvalues --   -0.38771  -0.37620  -0.36582  -0.34522  -0.34215
 Alpha  occ. eigenvalues --   -0.33840  -0.33032  -0.32667  -0.32291  -0.31540
 Alpha  occ. eigenvalues --   -0.31063  -0.30903  -0.30222  -0.29973  -0.28896
 Alpha  occ. eigenvalues --   -0.27988  -0.27066  -0.26134  -0.23965  -0.23436
 Alpha  occ. eigenvalues --   -0.23264  -0.22395  -0.19959  -0.19146  -0.17541
 Alpha  occ. eigenvalues --   -0.15900  -0.14920  -0.13541   0.04016
 Alpha virt. eigenvalues --    0.05787   0.06691   0.07048   0.07619   0.07994
 Alpha virt. eigenvalues --    0.08329   0.08622   0.08838   0.09374   0.09710
 Alpha virt. eigenvalues --    0.09724   0.10379   0.10819   0.11480   0.11595

  Beta  occ. eigenvalues --  -19.07232 -19.06225 -19.02037 -14.29666 -14.26028
  Beta  occ. eigenvalues --  -14.23174 -10.21034 -10.14491 -10.13935 -10.12458
  Beta  occ. eigenvalues --  -10.10581 -10.10339 -10.09944 -10.09925 -10.09511
  Beta  occ. eigenvalues --  -10.08741 -10.07652 -10.07589 -10.07528 -10.07224
  Beta  occ. eigenvalues --   -1.01386  -0.99431  -0.97568  -0.92687  -0.81854
  Beta  occ. eigenvalues --   -0.77260  -0.72511  -0.69741  -0.69445  -0.66189
  Beta  occ. eigenvalues --   -0.64532  -0.60624  -0.60048  -0.57628  -0.53428
  Beta  occ. eigenvalues --   -0.50704  -0.50150  -0.49386  -0.47981  -0.43737
  Beta  occ. eigenvalues --   -0.43247  -0.40637  -0.40267  -0.40056  -0.39401
  Beta  occ. eigenvalues --   -0.38710  -0.37493  -0.36502  -0.34449  -0.34142
  Beta  occ. eigenvalues --   -0.33780  -0.32998  -0.32604  -0.32253  -0.31508
  Beta  occ. eigenvalues --   -0.31032  -0.30860  -0.30183  -0.29907  -0.28866
  Beta  occ. eigenvalues --   -0.27925  -0.27050  -0.26115  -0.23933  -0.23327
  Beta  occ. eigenvalues --   -0.23186  -0.22327  -0.19863  -0.18891  -0.17474
  Beta  occ. eigenvalues --   -0.15780  -0.14675  -0.13466
  Beta virt. eigenvalues --    0.05899   0.06868   0.07151   0.07548   0.07846
  Beta virt. eigenvalues --    0.08138   0.08765   0.09180   0.09373   0.09687
  Beta virt. eigenvalues --    0.10001   0.10100   0.10461   0.11163   0.11694

 Mulliken charges and spin densities:
               1          2
     1  C   -0.635422  -0.165442
     2  C    1.282907  -0.466450
     3  C   -1.139074   0.416311
     4  C   -0.211168   0.675871
     5  C   -0.392142   0.187253
     6  C   -1.474713   0.413519
     7  C    0.838813  -0.616613
     8  O   -0.039722   0.004359
     9  C    0.057583  -0.267138
    10  C    1.312218  -1.613193
    11  N    0.245006   0.143362
    12  C   -0.476604   0.117048
    13  C    0.458403  -0.114392
    14  N   -0.109032  -0.008360
    15  N   -0.179003   0.064627
    16  C   -0.401563  -0.534648
    17  C    0.127674   0.027682
    18  O   -0.233920   0.018994
    19  O   -0.097958   0.013062
    20  C    0.902684  -1.270550
    21  H    0.172594  -0.007663
    22  H    0.162441  -0.003857
    23  H    0.113953   0.042339
    24  H    0.068158   0.096201
    25  H   -0.077674   0.245781
    26  H    0.155659  -0.043486
    27  H    0.215685  -0.030212
    28  H   -0.972715   1.181705
    29  H   -0.312163   0.496054
    30  H   -0.397549   0.615361
    31  H   -0.427611   0.612955
    32  H    0.215850   0.004631
    33  H   -0.077403   0.275295
    34  H    0.361141  -0.008163
    35  H   -0.002518   0.139689
    36  H   -0.100787   0.255001
    37  H    0.067972   0.103069
 Sum of Mulliken charges =  -1.00000   1.00000

 Dipole moment (field-independent basis, Debye):
    X=             -5.8109    Y=              3.4099    Z=              2.3107  Tot=              7.1228
 Quadrupole moment (field-independent basis, Debye-Ang):
   XX=           -182.5534   YY=           -178.4353   ZZ=           -151.8086
   XY=             14.8964   XZ=              1.7092   YZ=             -8.5753

 Summary of Natural Population Analysis:

                                       Natural Population
                Natural  -----------------------------------------------
    Atom  No    Charge         Core      Valence    Rydberg      Total
 -----------------------------------------------------------------------
      C    1   -0.29605      0.99963     2.29117    0.00524     3.29605
      C    2    0.00150      0.99952     1.98945    0.00952     2.99850
      C    3   -0.13088      0.99947     2.12170    0.00971     3.13088
      C    4   -0.01862      0.99952     2.00943    0.00967     3.01862
      C    5   -0.12591      0.99946     2.11674    0.00971     3.12591
      C    6    0.17518      0.99936     1.81212    0.01333     2.82482
      C    7   -0.14840      0.99945     2.14073    0.00822     3.14840
      O    8   -0.27894      0.99986     3.26869    0.01040     4.27894
      C    9   -0.01237      0.99955     2.00052    0.01231     3.01237
      C   10   -0.09663      0.99959     2.08447    0.01257     3.09663
      N   11   -0.09788      0.99966     2.58332    0.01490     3.59788
      C   12    0.00105      0.99946     1.98741    0.01208     2.99895
      C   13    0.03573      0.99954     1.94961    0.01513     2.96427
      N   14   -0.14646      0.99972     2.63323    0.01352     3.64646
      N   15   -0.04439      0.99978     2.52954    0.01507     3.54439
      C   16   -0.24876      0.99955     2.24023    0.00899     3.24876
      C   17    0.41623      0.99973     1.55806    0.02597     2.58377
      O   18   -0.30389      0.99986     3.29832    0.00571     4.30389
      O   19   -0.35028      0.99987     3.34391    0.00650     4.35028
      C   20   -0.29207      0.99963     2.28739    0.00504     3.29207
      H   21    0.11113      0.00000     0.38797    0.00091     0.38887
      H   22    0.10866      0.00000     0.39056    0.00079     0.39134
      H   23    0.10041      0.00000     0.39873    0.00086     0.39959
      H   24    0.10037      0.00000     0.39867    0.00095     0.39963
      H   25    0.10598      0.00000     0.39252    0.00150     0.39402
      H   26    0.11103      0.00000     0.38668    0.00230     0.38897
      H   27    0.08944      0.00000     0.40902    0.00154     0.41056
      H   28    0.10048      0.00000     0.39592    0.00361     0.39952
      H   29    0.11298      0.00000     0.38479    0.00223     0.38702
      H   30    0.11021      0.00000     0.38492    0.00487     0.38979
      H   31    0.11815      0.00000     0.38021    0.00163     0.38185
      H   32    0.11804      0.00000     0.38093    0.00103     0.38196
      H   33    0.11733      0.00000     0.38141    0.00127     0.38267
      H   34    0.24791      0.00000     0.24889    0.00320     0.25209
      H   35    0.10097      0.00000     0.39811    0.00092     0.39903
      H   36    0.10401      0.00000     0.39497    0.00102     0.39599
      H   37    0.10476      0.00000     0.39419    0.00105     0.39524
 =======================================================================
   * Total *    0.00000     19.99221    52.75449    0.25330    73.00000

 Normal termination of Gaussian 16 at Sat Dec 12 18:27:17 2020.
