 Gaussian 16, Revision A.03,

 -----------------------------------------------------------
 # opt freq B3LYP/6-31G(d) empiricaldispersion=gd3bj scf=xqc
 -----------------------------------------------------------

 ------------------------------
 CID_81301493_JID_6435_neutraal
 ------------------------------
 Symbolic Z-matrix:
 Charge =  0 Multiplicity = 1

 SCF Done:  E(RB3LYP) =  -639.063402279     A.U. after   13 cycles
 SCF Done:  E(RB3LYP) =  -639.069683720     A.U. after   12 cycles
 SCF Done:  E(RB3LYP) =  -639.070062751     A.U. after   10 cycles
 SCF Done:  E(RB3LYP) =  -639.070175057     A.U. after   11 cycles
 SCF Done:  E(RB3LYP) =  -639.070216720     A.U. after    9 cycles
 SCF Done:  E(RB3LYP) =  -639.070235919     A.U. after    9 cycles
 SCF Done:  E(RB3LYP) =  -639.070243250     A.U. after    9 cycles
 SCF Done:  E(RB3LYP) =  -639.070247203     A.U. after    9 cycles
 SCF Done:  E(RB3LYP) =  -639.070247352     A.U. after    8 cycles
 SCF Done:  E(RB3LYP) =  -639.070261412     A.U. after    8 cycles
 SCF Done:  E(RB3LYP) =  -639.070344184     A.U. after    9 cycles
 SCF Done:  E(RB3LYP) =  -639.070342840     A.U. after    9 cycles
 SCF Done:  E(RB3LYP) =  -639.070345131     A.U. after    9 cycles
 SCF Done:  E(RB3LYP) =  -639.070345152     A.U. after    7 cycles
 SCF Done:  E(RB3LYP) =  -639.070345162     A.U. after    5 cycles
 Optimization completed.
    -- Stationary point found.
 Normal termination of Gaussian 16 at Thu Dec 10 22:55:19 2020.

 --------------------------------------------------------------------
 #N Geom=AllCheck Guess=TCheck SCRF=Check GenChk RB3LYP/6-31G(d) Freq
 --------------------------------------------------------------------

 Structure from the checkpoint file:  "JID_6435.chk"
 ------------------------------
 CID_81301493_JID_6435_neutraal
 ------------------------------
 Charge =  0 Multiplicity = 1

 SCF Done:  E(RB3LYP) =  -639.070345162     A.U. after    1 cycles

  Exact polarizability: 202.206   5.872 167.010   2.056  -4.333 104.742
 Approx polarizability: 260.535   2.525 254.937   4.285 -12.820 165.033

                      1                      2                      3
                      A                      A                      A
 Frequencies --     27.0761                29.7913                41.0129
 Red. masses --      1.0601                 3.0922                 2.1639
 Frc consts  --      0.0005                 0.0016                 0.0021
 IR Inten    --      0.3052                 0.0633                 0.0113

                      4                      5                      6
                      A                      A                      A
 Frequencies --     72.1501                74.1881               123.6852
 Red. masses --      2.5168                 3.4081                 3.1140
 Frc consts  --      0.0077                 0.0111                 0.0281
 IR Inten    --      0.2050                 0.0725                 2.1774

                      7                      8                      9
                      A                      A                      A
 Frequencies --    157.0864               169.8435               190.2952
 Red. masses --      2.8450                 2.2352                 3.2795
 Frc consts  --      0.0414                 0.0380                 0.0700
 IR Inten    --      0.1754                 0.0261                 0.4277

                     10                     11                     12
                      A                      A                      A
 Frequencies --    226.9155               300.8986               315.5223
 Red. masses --      2.4825                 3.0452                 3.0244
 Frc consts  --      0.0753                 0.1624                 0.1774
 IR Inten    --      0.4349                 0.2860                 0.1451

                     13                     14                     15
                      A                      A                      A
 Frequencies --    339.4986               414.4163               445.7288
 Red. masses --      3.0445                 2.7339                 2.8135
 Frc consts  --      0.2067                 0.2766                 0.3293
 IR Inten    --      4.2542                 1.2965                 3.3317

                     16                     17                     18
                      A                      A                      A
 Frequencies --    457.5713               480.9197               492.2463
 Red. masses --      2.8645                 3.5939                 2.1866
 Frc consts  --      0.3534                 0.4897                 0.3122
 IR Inten    --      3.6843                 3.6790                 4.0572

                     19                     20                     21
                      A                      A                      A
 Frequencies --    557.0907               584.9666               591.9621
 Red. masses --      3.4309                 4.4454                 2.6920
 Frc consts  --      0.6273                 0.8962                 0.5558
 IR Inten    --      3.3289                 2.5315                 0.3965

                     22                     23                     24
                      A                      A                      A
 Frequencies --    617.1194               667.5383               702.0760
 Red. masses --      2.9475                 3.0826                 2.4861
 Frc consts  --      0.6614                 0.8093                 0.7220
 IR Inten    --      0.5979                33.4569                19.2510

                     25                     26                     27
                      A                      A                      A
 Frequencies --    729.6581               769.0027               784.3889
 Red. masses --      2.3493                 3.3387                 1.3841
 Frc consts  --      0.7369                 1.1633                 0.5017
 IR Inten    --     23.0089                 0.2127                 0.2345

                     28                     29                     30
                      A                      A                      A
 Frequencies --    790.7665               824.1515               827.9960
 Red. masses --      2.2698                 2.0360                 1.3225
 Frc consts  --      0.8362                 0.8148                 0.5342
 IR Inten    --      1.0172                 3.1794                17.8665

                     31                     32                     33
                      A                      A                      A
 Frequencies --    871.4615               890.9398               900.8290
 Red. masses --      2.3114                 2.0798                 2.3039
 Frc consts  --      1.0342                 0.9727                 1.1015
 IR Inten    --      2.4140                 4.0952                 0.6548

                     34                     35                     36
                      A                      A                      A
 Frequencies --    921.3621               924.5079               948.1775
 Red. masses --      2.4205                 1.5374                 1.2928
 Frc consts  --      1.2106                 0.7742                 0.6848
 IR Inten    --      4.2754                 1.5893                 0.1797

                     37                     38                     39
                      A                      A                      A
 Frequencies --    960.4596               972.9873               984.9855
 Red. masses --      1.8757                 2.0155                 1.5718
 Frc consts  --      1.0195                 1.1242                 0.8985
 IR Inten    --      2.3320                 5.9544                 0.4567

                     40                     41                     42
                      A                      A                      A
 Frequencies --    989.9304              1000.3444              1029.8913
 Red. masses --      2.3819                 1.3723                 1.5985
 Frc consts  --      1.3753                 0.8091                 0.9990
 IR Inten    --      0.5384                 0.6892                 2.4441

                     43                     44                     45
                      A                      A                      A
 Frequencies --   1050.4129              1055.3393              1074.4491
 Red. masses --      2.3615                 2.2376                 1.5722
 Frc consts  --      1.5352                 1.4683                 1.0693
 IR Inten    --      0.7206                 4.7421                 9.8333

                     46                     47                     48
                      A                      A                      A
 Frequencies --   1080.1289              1107.5845              1123.8154
 Red. masses --      1.9789                 2.8048                 2.6993
 Frc consts  --      1.3603                 2.0272                 2.0086
 IR Inten    --      1.8757                 4.6726                 3.6642

                     49                     50                     51
                      A                      A                      A
 Frequencies --   1166.3138              1175.3234              1181.6561
 Red. masses --      1.3549                 1.4003                 2.1497
 Frc consts  --      1.0859                 1.1397                 1.7686
 IR Inten    --      0.7761                 2.5310                56.4205

                     52                     53                     54
                      A                      A                      A
 Frequencies --   1213.7454              1219.5842              1224.2982
 Red. masses --      1.3157                 1.5226                 1.8834
 Frc consts  --      1.1420                 1.3343                 1.6633
 IR Inten    --      0.8481                 0.0392                57.3511

                     55                     56                     57
                      A                      A                      A
 Frequencies --   1225.5516              1241.8687              1273.2287
 Red. masses --      1.7522                 1.5861                 2.3730
 Frc consts  --      1.5506                 1.4412                 2.2666
 IR Inten    --      3.2515                 2.0115                 2.1461

                     58                     59                     60
                      A                      A                      A
 Frequencies --   1293.0002              1298.4077              1303.3712
 Red. masses --      1.1471                 1.3523                 1.3423
 Frc consts  --      1.1299                 1.3433                 1.3435
 IR Inten    --      0.3494                 0.2999                 3.8513

                     61                     62                     63
                      A                      A                      A
 Frequencies --   1311.9426              1320.5802              1334.3725
 Red. masses --      1.6017                 1.3603                 1.6904
 Frc consts  --      1.6243                 1.3977                 1.7733
 IR Inten    --      8.1833                 7.0128                 6.3923

                     64                     65                     66
                      A                      A                      A
 Frequencies --   1338.9450              1348.2277              1360.2748
 Red. masses --      1.3086                 1.3076                 1.3463
 Frc consts  --      1.3822                 1.4004                 1.4677
 IR Inten    --      1.2751                 2.0897                 1.7589

                     67                     68                     69
                      A                      A                      A
 Frequencies --   1362.8825              1372.6251              1378.8112
 Red. masses --      1.4019                 2.7857                 1.6257
 Frc consts  --      1.5342                 3.0924                 1.8210
 IR Inten    --      1.5865                 9.4060                 5.2506

                     70                     71                     72
                      A                      A                      A
 Frequencies --   1435.4165              1441.9740              1469.9320
 Red. masses --      1.3771                 1.2488                 3.0977
 Frc consts  --      1.6718                 1.5298                 3.9435
 IR Inten    --     38.0369                 0.1758                 1.0662

                     73                     74                     75
                      A                      A                      A
 Frequencies --   1508.4180              1515.8848              1518.3951
 Red. masses --      1.1348                 1.0875                 1.0512
 Frc consts  --      1.5213                 1.4724                 1.4279
 IR Inten    --      2.6728                 0.9932                 4.5724

                     76                     77                     78
                      A                      A                      A
 Frequencies --   1520.2872              1523.2068              1525.3649
 Red. masses --      1.0943                 1.2174                 1.1191
 Frc consts  --      1.4902                 1.6642                 1.5342
 IR Inten    --      1.2249                10.8470                 2.2134

                     79                     80                     81
                      A                      A                      A
 Frequencies --   1526.4729              1527.5088              1541.3445
 Red. masses --      1.0959                 1.1292                 2.7398
 Frc consts  --      1.5045                 1.5524                 3.8350
 IR Inten    --      4.2838                14.2159                25.0378

                     82                     83                     84
                      A                      A                      A
 Frequencies --   1548.8023              1643.3282              1677.5902
 Red. masses --      1.1083                 6.4022                 6.7339
 Frc consts  --      1.5664                10.1866                11.1657
 IR Inten    --      3.4394                 1.0193                 3.3821

                     85                     86                     87
                      A                      A                      A
 Frequencies --   3024.3744              3025.8098              3029.9867
 Red. masses --      1.0728                 1.0788                 1.0841
 Frc consts  --      5.7817                 5.8196                 5.8643
 IR Inten    --     41.6052                17.7411                20.5519

                     88                     89                     90
                      A                      A                      A
 Frequencies --   3038.9538              3044.3109              3046.0720
 Red. masses --      1.0408                 1.0686                 1.0687
 Frc consts  --      5.6635                 5.8348                 5.8423
 IR Inten    --     39.1649                28.2731                33.6936

                     91                     92                     93
                      A                      A                      A
 Frequencies --   3052.8667              3059.6975              3072.9054
 Red. masses --      1.0605                 1.0637                 1.0642
 Frc consts  --      5.8235                 5.8671                 5.9207
 IR Inten    --     32.0755                42.4155                39.4134

                     94                     95                     96
                      A                      A                      A
 Frequencies --   3082.6784              3091.7818              3095.4780
 Red. masses --      1.0935                 1.0965                 1.0951
 Frc consts  --      6.1222                 6.1754                 6.1825
 IR Inten    --     38.8127                30.9835                23.5990

                     97                     98                     99
                      A                      A                      A
 Frequencies --   3099.0222              3105.1624              3119.3309
 Red. masses --      1.1027                 1.1033                 1.1029
 Frc consts  --      6.2397                 6.2677                 6.3228
 IR Inten    --     27.5837                21.9303                59.5631

                    100                    101                    102
                      A                      A                      A
 Frequencies --   3122.2105              3122.7911              3170.3660
 Red. masses --      1.0982                 1.1027                 1.0867
 Frc consts  --      6.3072                 6.3356                 6.4352
 IR Inten    --     73.5274                19.3028                12.4960

                    103                    104                    105
                      A                      A                      A
 Frequencies --   3187.9955              3191.4216              3512.1039
 Red. masses --      1.0937                 1.0906                 1.0743
 Frc consts  --      6.5491                 6.5446                 7.8078
 IR Inten    --     42.4936                 4.6876                 0.2630

 - Thermochemistry -
 -------------------
 Temperature   298.150 Kelvin.  Pressure   1.00000 Atm.
 Atom     1 has atomic number  6 and mass  12.00000

 Molecular mass:   215.16740 amu.
 Principal axes and moments of inertia in atomic units:
                           1         2         3
     Eigenvalues --  1689.533516541.224697819.67122
           X            0.99997   0.00711  -0.00217
           Y           -0.00710   0.99997   0.00185
           Z            0.00218  -0.00183   1.00000
 This molecule is an asymmetric top.
 Rotational symmetry number  1.
 Warning -- assumption of classical behavior for rotation
           may cause significant error
 Rotational temperatures (Kelvin)      0.05126     0.01324     0.01108
 Rotational constants (GHZ):           1.06819     0.27590     0.23080
 Zero-point vibrational energy     872421.1 (Joules/Mol)
                                  208.51366 (Kcal/Mol)
 Warning -- explicit consideration of  22 degrees of freedom as
           vibrations may cause significant error
 Vibrational temperatures:     38.96    42.86    59.01   103.81   106.74
          (Kelvin)            177.96   226.01   244.37   273.79   326.48
                              432.93   453.97   488.46   596.25   641.30
                              658.34   691.94   708.23   801.53   841.64
                              851.70   887.90   960.44  1010.13  1049.82
                             1106.42  1128.56  1137.74  1185.77  1191.30
                             1253.84  1281.86  1296.09  1325.63  1330.16
                             1364.22  1381.89  1399.91  1417.17  1424.29
                             1439.27  1481.78  1511.31  1518.40  1545.89
                             1554.06  1593.57  1616.92  1678.07  1691.03
                             1700.14  1746.31  1754.71  1761.49  1763.30
                             1786.77  1831.89  1860.34  1868.12  1875.26
                             1887.59  1900.02  1919.86  1926.44  1939.80
                             1957.13  1960.88  1974.90  1983.80  2065.24
                             2074.68  2114.90  2170.28  2181.02  2184.63
                             2187.35  2191.55  2194.66  2196.25  2197.74
                             2217.65  2228.38  2364.38  2413.68  4351.40
                             4353.47  4359.48  4372.38  4380.08  4382.62
                             4392.39  4402.22  4421.23  4435.29  4448.38
                             4453.70  4458.80  4467.64  4488.02  4492.16
                             4493.00  4561.45  4586.81  4591.74  5053.13

 Zero-point correction=                           0.332288 (Hartree/Particle)
 Thermal correction to Energy=                    0.347257
 Thermal correction to Enthalpy=                  0.348201
 Thermal correction to Gibbs Free Energy=         0.288079
 Sum of electronic and zero-point Energies=           -638.738057
 Sum of electronic and thermal Energies=              -638.723088
 Sum of electronic and thermal Enthalpies=            -638.722144
 Sum of electronic and thermal Free Energies=         -638.782266

                     E (Thermal)             CV                S
                      KCal/Mol        Cal/Mol-Kelvin    Cal/Mol-Kelvin
 Total                  217.907             58.259            126.536
 Electronic               0.000              0.000              0.000
 Translational            0.889              2.981             42.002
 Rotational               0.889              2.981             32.824
 Vibrational            216.129             52.297             51.710
 Vibration     1          0.593              1.984              6.033
 Vibration     2          0.594              1.984              5.843
 Vibration     3          0.594              1.981              5.210
 Vibration     4          0.598              1.967              4.094
 Vibration     5          0.599              1.966              4.039
 Vibration     6          0.610              1.929              3.042
 Vibration     7          0.621              1.895              2.585
 Vibration     8          0.625              1.880              2.437
 Vibration     9          0.634              1.853              2.225
 Vibration    10          0.651              1.800              1.903
 Vibration    11          0.693              1.672              1.412
 Vibration    12          0.703              1.644              1.333
 Vibration    13          0.719              1.597              1.215
 Vibration    14          0.778              1.439              0.911
 Vibration    15          0.805              1.370              0.809
 Vibration    16          0.816              1.344              0.773
 Vibration    17          0.837              1.292              0.708
 Vibration    18          0.848              1.267              0.678
 Vibration    19          0.913              1.124              0.530
 Vibration    20          0.942              1.064              0.476
 Vibration    21          0.949              1.049              0.464
 Vibration    22          0.977              0.996              0.421

 Optimization completed on the basis of negligible forces.
    -- Stationary point found.
 Normal termination of Gaussian 16 at Thu Dec 10 23:09:46 2020.

 ----------------------------------------------------------------------
 # B3LYP/6-311++G(d,p) empiricaldispersion=gd3bj scf=xqc pop=npa geom=c
 heck
 ----------------------------------------------------------------------

 --------------------------------------
 CID_81301493_JID_6435_Energie_neutraal
 --------------------------------------
 Structure from the checkpoint file:  "JID_6435.chk"
 Charge =  0 Multiplicity = 1

 SCF Done:  E(RB3LYP) =  -639.237138891     A.U. after   14 cycles
 Normal termination of Gaussian 16 at Thu Dec 10 23:17:20 2020.

 ----------------------------------------------------------------------
 # B3LYP/6-311++G(d,p) empiricaldispersion=gd3bj scf=xqc pop=npa geom=c
 heck
 ----------------------------------------------------------------------

 ------------------------------------
 CID_81301493_JID_6435_Energie_kation
 ------------------------------------
 Structure from the checkpoint file:  "JID_6435.chk"
 Charge =  1 Multiplicity = 2

 SCF Done:  E(UB3LYP) =  -638.956826141     A.U. after   25 cycles
 Normal termination of Gaussian 16 at Thu Dec 10 23:33:13 2020.
 Gaussian 16:  ES64L-G16RevA.03 25-Dec-2016

 ----------------------------------------------------------------------
 # B3LYP/6-311++G(d,p) empiricaldispersion=gd3bj scf=xqc pop=npa geom=c
 heck
 ----------------------------------------------------------------------

 -----------------------------------
 CID_81301493_JID_6435_Energie_anion
 -----------------------------------
 Structure from the checkpoint file:  "JID_6435.chk"
 Charge = -1 Multiplicity = 2

                         Standard orientation:
 ---------------------------------------------------------------------
 Center     Atomic      Atomic             Coordinates (Angstroms)
 Number     Number       Type             X           Y           Z
 ---------------------------------------------------------------------
      1          6           0       -3.901738   -2.529421    0.129575
      2          6           0       -3.234984   -1.178864    0.017422
      3          6           0       -1.838544   -1.065726    0.070961
      4          6           0       -1.243260    0.182816   -0.055423
      5          6           0       -2.011853    1.336996   -0.228172
      6          6           0       -1.119266    2.555354   -0.328382
      7          6           0        0.225193    2.046948    0.243728
      8          6           0        0.239564    0.511686   -0.032614
      9          7           0        0.978630   -0.337539    0.890902
     10          6           0        2.412590   -0.519274    0.686307
     11          6           0        2.742219   -1.477753   -0.482946
     12          6           0        4.198076   -1.145852   -0.907972
     13          6           0        4.634631    0.051573   -0.021789
     14          6           0        3.314239    0.703738    0.404862
     15          6           0       -3.399312    1.240658   -0.282782
     16          6           0       -3.998939   -0.015640   -0.158526
     17          1           0       -4.925144   -2.441955    0.509319
     18          1           0       -3.346396   -3.194039    0.800080
     19          1           0       -3.957943   -3.028651   -0.847072
     20          1           0       -1.214288   -1.940776    0.232981
     21          1           0       -1.511596    3.425273    0.210505
     22          1           0       -1.000393    2.861566   -1.377997
     23          1           0        0.237915    2.193760    1.332084
     24          1           0        1.092620    2.569534   -0.167957
     25          1           0        0.653467    0.332317   -1.035025
     26          1           0        0.783695   -0.049476    1.846059
     27          1           0        2.781506   -0.983374    1.610947
     28          1           0        2.605551   -2.521160   -0.184176
     29          1           0        2.046861   -1.296864   -1.310077
     30          1           0        4.233366   -0.866610   -1.966662
     31          1           0        4.871179   -2.000508   -0.787192
     32          1           0        5.310423    0.738466   -0.541496
     33          1           0        5.166627   -0.312142    0.866703
     34          1           0        2.900779    1.286351   -0.427776
     35          1           0        3.408018    1.374150    1.266664
     36          1           0       -4.015037    2.128869   -0.404426
     37          1           0       -5.083321   -0.095395   -0.187311
 ---------------------------------------------------------------------

 SCF Done:  E(UB3LYP) =  -639.221116256     A.U. after   33 cycles
 SCF Done:  E(UB3LYP) =  -639.221116256     a.u. after    1 cycles

 The electronic state is 2-A.
 Alpha  occ. eigenvalues --  -14.19835 -10.10546 -10.09666 -10.08629 -10.07892
 Alpha  occ. eigenvalues --  -10.07758 -10.07703 -10.07631 -10.07538 -10.07294
 Alpha  occ. eigenvalues --  -10.07133 -10.07018 -10.06493 -10.06398 -10.06100
 Alpha  occ. eigenvalues --  -10.05953  -0.81751  -0.77072  -0.72838  -0.71149
 Alpha  occ. eigenvalues --   -0.66285  -0.64349  -0.60985  -0.60634  -0.58360
 Alpha  occ. eigenvalues --   -0.56599  -0.51347  -0.49431  -0.47403  -0.46643
 Alpha  occ. eigenvalues --   -0.45395  -0.41961  -0.39527  -0.38474  -0.37687
 Alpha  occ. eigenvalues --   -0.36124  -0.35322  -0.33647  -0.32853  -0.32135
 Alpha  occ. eigenvalues --   -0.31741  -0.31061  -0.30750  -0.29161  -0.28945
 Alpha  occ. eigenvalues --   -0.27336  -0.26612  -0.25620  -0.25292  -0.24342
 Alpha  occ. eigenvalues --   -0.24258  -0.23779  -0.23386  -0.22974  -0.22394
 Alpha  occ. eigenvalues --   -0.21495  -0.15506  -0.13905  -0.12186   0.04373
 Alpha virt. eigenvalues --    0.05849   0.06558   0.06893   0.07581   0.07744
 Alpha virt. eigenvalues --    0.08082   0.08353   0.09159   0.09472   0.09616
 Alpha virt. eigenvalues --    0.10044   0.10250   0.10935   0.11215   0.11367

  Beta  occ. eigenvalues --  -14.19826 -10.10539 -10.09655 -10.08631 -10.07877
  Beta  occ. eigenvalues --  -10.07751 -10.07695 -10.07610 -10.07524 -10.07291
  Beta  occ. eigenvalues --  -10.07118 -10.07003 -10.06475 -10.06374 -10.06088
  Beta  occ. eigenvalues --  -10.05932  -0.81731  -0.77053  -0.72812  -0.71126
  Beta  occ. eigenvalues --   -0.66256  -0.64321  -0.60944  -0.60598  -0.58322
  Beta  occ. eigenvalues --   -0.56559  -0.51301  -0.49392  -0.47349  -0.46599
  Beta  occ. eigenvalues --   -0.45352  -0.41925  -0.39494  -0.38434  -0.37655
  Beta  occ. eigenvalues --   -0.36095  -0.35292  -0.33616  -0.32827  -0.32107
  Beta  occ. eigenvalues --   -0.31709  -0.31032  -0.30723  -0.29128  -0.28922
  Beta  occ. eigenvalues --   -0.27303  -0.26579  -0.25589  -0.25267  -0.24315
  Beta  occ. eigenvalues --   -0.24220  -0.23740  -0.23350  -0.22949  -0.22356
  Beta  occ. eigenvalues --   -0.21464  -0.15441  -0.13878  -0.12169
  Beta virt. eigenvalues --    0.06187   0.06701   0.07039   0.07154   0.07945
  Beta virt. eigenvalues --    0.08178   0.08394   0.08542   0.09440   0.09732
  Beta virt. eigenvalues --    0.09962   0.10252   0.10524   0.11297   0.11469

 Mulliken charges and spin densities:
               1          2
     1  C    0.770758  -1.279373
     2  C   -0.494852   1.143035
     3  C   -0.248922   0.069751
     4  C    0.267318  -0.076928
     5  C   -0.014730   0.503567
     6  C    0.336847  -1.174112
     7  C   -0.178901  -0.016153
     8  C   -0.108659  -0.378520
     9  N    0.165168   0.063766
    10  C   -0.840530   0.688610
    11  C    0.076135  -0.142974
    12  C    0.532762  -1.039058
    13  C   -0.174563  -0.349647
    14  C    0.671335  -0.746432
    15  C    0.467839  -0.779654
    16  C   -0.410982  -0.445600
    17  H   -0.208537   0.349214
    18  H   -0.090966   0.233730
    19  H    0.031208   0.131881
    20  H    0.220067  -0.080346
    21  H    0.089380   0.076593
    22  H   -0.148415   0.326645
    23  H    0.058218   0.103488
    24  H   -0.178370   0.318406
    25  H    0.210696  -0.092495
    26  H    0.155152   0.067664
    27  H   -0.440689   0.606929
    28  H    0.003746   0.154395
    29  H   -0.229669   0.345277
    30  H   -0.078236   0.211464
    31  H   -0.039415   0.182227
    32  H   -0.389759   0.549369
    33  H   -0.046886   0.184972
    34  H    0.077020   0.034634
    35  H   -0.321636   0.492859
    36  H   -0.223117   0.370496
    37  H   -0.265814   0.392321
 Sum of Mulliken charges =  -1.00000   1.00000

 Dipole moment (field-independent basis, Debye):
    X=             -2.5770    Y=              0.0226    Z=              0.0261  Tot=              2.5772
 Quadrupole moment (field-independent basis, Debye-Ang):
   XX=           -201.2678   YY=           -142.7621   ZZ=           -131.7237
   XY=             -5.7532   XZ=             -0.9175   YZ=              2.1451

 Summary of Natural Population Analysis:

                                       Natural Population
                Natural  -----------------------------------------------
    Atom  No    Charge         Core      Valence    Rydberg      Total
 -----------------------------------------------------------------------
      C    1   -0.29058      0.99964     2.28599    0.00495     3.29058
      C    2   -0.01859      0.99952     2.01028    0.00879     3.01859
      C    3   -0.09364      0.99946     2.08559    0.00859     3.09364
      C    4   -0.00903      0.99945     1.99948    0.01009     3.00903
      C    5   -0.01788      0.99946     2.00842    0.01000     3.01788
      C    6   -0.19692      0.99961     2.18956    0.00775     3.19692
      C    7   -0.18954      0.99963     2.18119    0.00872     3.18954
      C    8   -0.01757      0.99954     2.00537    0.01265     3.01757
      N    9   -0.33810      0.99971     2.82580    0.01259     3.83810
      C   10   -0.00501      0.99957     1.99249    0.01295     3.00501
      C   11   -0.19260      0.99962     2.18541    0.00758     3.19260
      C   12   -0.19231      0.99965     2.18586    0.00681     3.19231
      C   13   -0.19028      0.99964     2.18278    0.00785     3.19028
      C   14   -0.20147      0.99961     2.19235    0.00951     3.20147
      C   15   -0.09587      0.99951     2.08716    0.00920     3.09587
      C   16   -0.10085      0.99952     2.09211    0.00922     3.10085
      H   17    0.10095      0.00000     0.39777    0.00128     0.39905
      H   18    0.10175      0.00000     0.39709    0.00116     0.39825
      H   19    0.10256      0.00000     0.39604    0.00139     0.39744
      H   20    0.10615      0.00000     0.39209    0.00175     0.39385
      H   21    0.10124      0.00000     0.39772    0.00104     0.39876
      H   22    0.10169      0.00000     0.39702    0.00128     0.39831
      H   23    0.09399      0.00000     0.40457    0.00144     0.40601
      H   24    0.10257      0.00000     0.39622    0.00121     0.39743
      H   25    0.09911      0.00000     0.39892    0.00197     0.40089
      H   26    0.17477      0.00000     0.32283    0.00240     0.32523
      H   27    0.09240      0.00000     0.40620    0.00139     0.40760
      H   28    0.10000      0.00000     0.39869    0.00131     0.40000
      H   29    0.09610      0.00000     0.40230    0.00160     0.40390
      H   30    0.09534      0.00000     0.40330    0.00136     0.40466
      H   31    0.09696      0.00000     0.40177    0.00127     0.40304
      H   32    0.09959      0.00000     0.39917    0.00124     0.40041
      H   33    0.09381      0.00000     0.40459    0.00159     0.40619
      H   34    0.09473      0.00000     0.40340    0.00186     0.40527
      H   35    0.10101      0.00000     0.39747    0.00152     0.39899
      H   36    0.09812      0.00000     0.40062    0.00127     0.40188
      H   37    0.09739      0.00000     0.40158    0.00103     0.40261
 =======================================================================
   * Total *    0.00000     15.99316    42.82923    0.17761    59.00000

 Normal termination of Gaussian 16 at Thu Dec 10 23:54:12 2020.
