 Gaussian 16, Revision A.03,

 -----------------------------------------------------------
 # opt freq B3LYP/6-31G(d) empiricaldispersion=gd3bj scf=xqc
 -----------------------------------------------------------

 ------------------------------
 CID_80494834_JID_3938_neutraal
 ------------------------------
 Symbolic Z-matrix:
 Charge =  0 Multiplicity = 1

 SCF Done:  E(RB3LYP) =  -572.820622786     A.U. after   14 cycles
 SCF Done:  E(RB3LYP) =  -572.823062570     A.U. after   12 cycles
 SCF Done:  E(RB3LYP) =  -572.823857000     A.U. after   12 cycles
 SCF Done:  E(RB3LYP) =  -572.824121398     A.U. after   11 cycles
 SCF Done:  E(RB3LYP) =  -572.824258017     A.U. after   11 cycles
 SCF Done:  E(RB3LYP) =  -572.824345052     A.U. after   12 cycles
 SCF Done:  E(RB3LYP) =  -572.824417049     A.U. after   12 cycles
 SCF Done:  E(RB3LYP) =  -572.824351384     A.U. after   11 cycles
 SCF Done:  E(RB3LYP) =  -572.824549094     A.U. after   11 cycles
 SCF Done:  E(RB3LYP) =  -572.824553348     A.U. after   14 cycles
 SCF Done:  E(RB3LYP) =  -572.824754790     A.U. after   11 cycles
 SCF Done:  E(RB3LYP) =  -572.824759214     A.U. after   10 cycles
 SCF Done:  E(RB3LYP) =  -572.824759198     A.U. after    9 cycles
 SCF Done:  E(RB3LYP) =  -572.824759413     A.U. after    9 cycles
 SCF Done:  E(RB3LYP) =  -572.824759493     A.U. after    8 cycles
 Optimization completed.
    -- Stationary point found.

 1\1\GINC-NODE222\FOpt\RB3LYP\6-31G(d)\C9H18N4\VSC10255\13-Dec-2020\0\\
 # opt freq B3LYP/6-31G(d) empiricaldispersion=gd3bj scf=xqc\\CID_80494
 834_JID_3938_neutraal\\0,1\C,1.1952823838,0.0576250645,0.1095080155\C,
 0.7938727691,-1.3646983247,0.5150683791\C,1.1705799102,-1.715084207,1.
 9626294298\C,0.5355271327,-0.8221213795,3.0439336012\C,-0.9961756501,-
 0.9026489738,3.0275444728\C,1.0592047902,-1.1664296363,4.4485559267\C,
 2.5811034164,-1.0393090962,4.6420388354\C,3.090156545,0.2991440254,4.1
 678142153\N,3.9015476779,0.4181531536,3.1082141707\N,4.0984831513,1.73

 Normal termination of Gaussian 16 at Sun Dec 13 16:05:43 2020.

 --------------------------------------------------------------------
 #N Geom=AllCheck Guess=TCheck SCRF=Check GenChk RB3LYP/6-31G(d) Freq
 --------------------------------------------------------------------

 Structure from the checkpoint file:  "JID_3938.chk"
 ------------------------------
 CID_80494834_JID_3938_neutraal
 ------------------------------
 Charge =  0 Multiplicity = 1

 SCF Done:  E(RB3LYP) =  -572.824759493     A.U. after    1 cycles

  Exact polarizability: 113.697   1.226 125.713  -6.386   3.099 102.532
 Approx polarizability: 147.455   5.843 187.186 -17.178   6.598 169.477

                      1                      2                      3
                      A                      A                      A
 Frequencies --     29.9689                32.5011                46.4294
 Red. masses --      4.3506                 3.6837                 3.2188
 Frc consts  --      0.0023                 0.0023                 0.0041
 IR Inten    --      0.0154                 0.0144                 0.0178

                      4                      5                      6
                      A                      A                      A
 Frequencies --     82.6303               121.1711               133.2724
 Red. masses --      4.1462                 2.0952                 2.6600
 Frc consts  --      0.0167                 0.0181                 0.0278
 IR Inten    --      0.0051                 0.0060                 0.5343

                      7                      8                      9
                      A                      A                      A
 Frequencies --    193.7345               205.0059               226.8446
 Red. masses --      2.4173                 2.8012                 2.0601
 Frc consts  --      0.0535                 0.0694                 0.0625
 IR Inten    --      0.3810                 0.3223                 0.0736

                     10                     11                     12
                      A                      A                      A
 Frequencies --    238.1151               264.3457               298.4930
 Red. masses --      1.0852                 1.7398                 1.4614
 Frc consts  --      0.0363                 0.0716                 0.0767
 IR Inten    --      0.3081                12.7066                20.7617

                     13                     14                     15
                      A                      A                      A
 Frequencies --    309.2471               332.0242               387.3252
 Red. masses --      1.6585                 2.8390                 2.9443
 Frc consts  --      0.0935                 0.1844                 0.2602
 IR Inten    --     13.9456                 2.7035                 1.8113

                     16                     17                     18
                      A                      A                      A
 Frequencies --    421.8971               465.2622               482.6249
 Red. masses --      2.0346                 3.3801                 1.6788
 Frc consts  --      0.2134                 0.4311                 0.2304
 IR Inten    --      0.4965                 2.0854                54.9411

                     19                     20                     21
                      A                      A                      A
 Frequencies --    524.7271               555.4224               668.7591
 Red. masses --      3.0182                 2.6307                 2.8613
 Frc consts  --      0.4896                 0.4782                 0.7540
 IR Inten    --      6.1846                 3.1505                 9.4969

                     22                     23                     24
                      A                      A                      A
 Frequencies --    718.5270               750.7093               753.9156
 Red. masses --      2.7430                 1.5719                 3.0424
 Frc consts  --      0.8344                 0.5220                 1.0189
 IR Inten    --     49.4818                 2.0774                10.4931

                     25                     26                     27
                      A                      A                      A
 Frequencies --    836.0877               857.4993               865.9849
 Red. masses --      1.8328                 1.4078                 1.5638
 Frc consts  --      0.7549                 0.6099                 0.6910
 IR Inten    --      3.1206                18.1675                 7.1792

                     28                     29                     30
                      A                      A                      A
 Frequencies --    899.9826               916.5268               944.5211
 Red. masses --      1.5195                 1.6950                 1.7513
 Frc consts  --      0.7252                 0.8389                 0.9205
 IR Inten    --    108.7381                21.8810                98.4806

                     31                     32                     33
                      A                      A                      A
 Frequencies --    959.4859               990.3720              1006.5111
 Red. masses --      1.6776                 3.0223                 5.0147
 Frc consts  --      0.9100                 1.7466                 2.9932
 IR Inten    --      0.4009                12.0412                 3.5479

                     34                     35                     36
                      A                      A                      A
 Frequencies --   1030.5262              1037.8342              1053.1993
 Red. masses --      1.7762                 1.7251                 1.8214
 Frc consts  --      1.1114                 1.0947                 1.1903
 IR Inten    --     10.2800                15.0342                 6.7814

                     37                     38                     39
                      A                      A                      A
 Frequencies --   1082.2531              1112.8217              1126.6450
 Red. masses --      2.5834                 1.7798                 1.6335
 Frc consts  --      1.7828                 1.2986                 1.2216
 IR Inten    --      1.0079                10.7433                 3.9178

                     40                     41                     42
                      A                      A                      A
 Frequencies --   1162.4720              1173.8620              1190.8682
 Red. masses --      2.1978                 2.7307                 2.3592
 Frc consts  --      1.7498                 2.2169                 1.9713
 IR Inten    --      6.3068                10.0387                 3.7701

                     43                     44                     45
                      A                      A                      A
 Frequencies --   1200.3708              1212.5253              1232.9730
 Red. masses --      2.6621                 1.6968                 2.0476
 Frc consts  --      2.2600                 1.4698                 1.8340
 IR Inten    --     11.5815                 4.4629                 1.9852

                     46                     47                     48
                      A                      A                      A
 Frequencies --   1265.2564              1297.0670              1315.9347
 Red. masses --      1.5348                 1.2764                 1.3367
 Frc consts  --      1.4476                 1.2653                 1.3638
 IR Inten    --      1.4950                 1.1765                 0.0915

                     49                     50                     51
                      A                      A                      A
 Frequencies --   1327.5471              1359.6428              1376.1069
 Red. masses --      1.8444                 1.3515                 1.4919
 Frc consts  --      1.9152                 1.4721                 1.6645
 IR Inten    --      9.7722                 0.7448                 1.0902

                     52                     53                     54
                      A                      A                      A
 Frequencies --   1383.3688              1394.1211              1405.6799
 Red. masses --      2.3236                 1.4075                 1.4157
 Frc consts  --      2.6199                 1.6117                 1.6482
 IR Inten    --      8.3782                 2.2576                 2.3283

                     55                     56                     57
                      A                      A                      A
 Frequencies --   1418.9501              1429.3546              1440.8755
 Red. masses --      1.4547                 1.5681                 1.3003
 Frc consts  --      1.7257                 1.8876                 1.5906
 IR Inten    --      1.2615                 1.5294                 2.7510

                     58                     59                     60
                      A                      A                      A
 Frequencies --   1445.2588              1446.3457              1484.1326
 Red. masses --      1.2843                 1.5956                 2.4449
 Frc consts  --      1.5805                 1.9666                 3.1729
 IR Inten    --      9.2163                 5.3001                 1.1706

                     61                     62                     63
                      A                      A                      A
 Frequencies --   1510.6129              1514.3572              1522.3423
 Red. masses --      1.0779                 1.0937                 1.0620
 Frc consts  --      1.4492                 1.4778                 1.4501
 IR Inten    --      0.4204                 0.8826                 1.8874

                     64                     65                     66
                      A                      A                      A
 Frequencies --   1529.0362              1533.8942              1535.5957
 Red. masses --      1.0625                 1.0558                 1.0414
 Frc consts  --      1.4636                 1.4635                 1.4469
 IR Inten    --      8.3866                 4.5137                 0.9287

                     67                     68                     69
                      A                      A                      A
 Frequencies --   1545.6986              1568.1864              1695.9722
 Red. masses --      1.0701                 3.6273                 1.0924
 Frc consts  --      1.5064                 5.2557                 1.8513
 IR Inten    --      7.2555                 1.2366                23.8066

                     70                     71                     72
                      A                      A                      A
 Frequencies --   3012.8003              3020.8740              3039.2815
 Red. masses --      1.0675                 1.0672                 1.0462
 Frc consts  --      5.7090                 5.7382                 5.6937
 IR Inten    --     30.4476                20.4254                22.2879

                     73                     74                     75
                      A                      A                      A
 Frequencies --   3041.7648              3045.1387              3047.5987
 Red. masses --      1.0639                 1.0511                 1.0537
 Frc consts  --      5.7995                 5.7428                 5.7659
 IR Inten    --     12.0814                25.1657                40.4730

                     76                     77                     78
                      A                      A                      A
 Frequencies --   3064.8331              3075.0817              3085.7790
 Red. masses --      1.1004                 1.0917                 1.0964
 Frc consts  --      6.0901                 6.0820                 6.1510
 IR Inten    --     13.9295                 8.9988                51.3356

                     79                     80                     81
                      A                      A                      A
 Frequencies --   3096.9788              3103.5316              3112.0538
 Red. masses --      1.0885                 1.1010                 1.1021
 Frc consts  --      6.1509                 6.2479                 6.2887
 IR Inten    --     16.5636                49.1559                40.8451

                     82                     83                     84
                      A                      A                      A
 Frequencies --   3114.6243              3120.1263              3278.0301
 Red. masses --      1.1017                 1.1002                 1.0972
 Frc consts  --      6.2966                 6.3103                 6.9461
 IR Inten    --     70.2008                37.3114                 1.0282

                     85                     86                     87
                      A                      A                      A
 Frequencies --   3455.7727              3542.9390              3668.8808
 Red. masses --      1.0496                 1.0922                 1.0824
 Frc consts  --      7.3853                 8.0773                 8.5844
 IR Inten    --      1.8168                 0.3602                93.1037

 - Thermochemistry -
 -------------------
 Temperature   298.150 Kelvin.  Pressure   1.00000 Atm.
 Atom     1 has atomic number  6 and mass  12.00000

 Molecular mass:   182.15315 amu.
 Principal axes and moments of inertia in atomic units:
                           1         2         3
     Eigenvalues --  1896.304073054.378684069.58002
           X            0.99896  -0.04528   0.00576
           Y            0.04515   0.99876   0.02085
           Z           -0.00669  -0.02056   0.99977
 This molecule is an asymmetric top.
 Rotational symmetry number  1.
 Warning -- assumption of classical behavior for rotation
           may cause significant error
 Rotational temperatures (Kelvin)      0.04568     0.02836     0.02128
 Rotational constants (GHZ):           0.95172     0.59087     0.44347
 Zero-point vibrational energy     728571.9 (Joules/Mol)
                                  174.13285 (Kcal/Mol)
 Warning -- explicit consideration of  20 degrees of freedom as
           vibrations may cause significant error
 Vibrational temperatures:     43.12    46.76    66.80   118.89   174.34
          (Kelvin)            191.75   278.74   294.96   326.38   342.59
                              380.33   429.46   444.94   477.71   557.27
                              607.02   669.41   694.39   754.97   799.13
                              962.20  1033.80  1080.10  1084.72  1202.94
                             1233.75  1245.96  1294.87  1318.68  1358.96
                             1380.49  1424.92  1448.15  1482.70  1493.21
                             1515.32  1557.12  1601.10  1620.99  1672.54
                             1688.93  1713.39  1727.07  1744.55  1773.97
                             1820.42  1866.19  1893.34  1910.04  1956.22
                             1979.91  1990.36  2005.83  2022.46  2041.55
                             2056.52  2073.10  2079.41  2080.97  2135.34
                             2173.44  2178.82  2190.31  2199.94  2206.93
                             2209.38  2223.92  2256.27  2440.13  4334.75
                             4346.36  4372.85  4376.42  4381.28  4384.81
                             4409.61  4424.36  4439.75  4455.86  4465.29
                             4477.55  4481.25  4489.17  4716.35  4972.09
                             5097.50  5278.70

 Zero-point correction=                           0.277498 (Hartree/Particle)
 Thermal correction to Energy=                    0.291684
 Thermal correction to Enthalpy=                  0.292628
 Thermal correction to Gibbs Free Energy=         0.235210
 Sum of electronic and zero-point Energies=           -572.547261
 Sum of electronic and thermal Energies=              -572.533076
 Sum of electronic and thermal Enthalpies=            -572.532131
 Sum of electronic and thermal Free Energies=         -572.589550

                     E (Thermal)             CV                S
                      KCal/Mol        Cal/Mol-Kelvin    Cal/Mol-Kelvin
 Total                  183.034             52.328            120.847
 Electronic               0.000              0.000              0.000
 Translational            0.889              2.981             41.506
 Rotational               0.889              2.981             31.533
 Vibrational            181.257             46.367             47.808
 Vibration     1          0.594              1.984              5.831
 Vibration     2          0.594              1.983              5.671
 Vibration     3          0.595              1.979              4.964
 Vibration     4          0.600              1.961              3.827
 Vibration     5          0.609              1.932              3.082
 Vibration     6          0.613              1.920              2.898
 Vibration     7          0.635              1.849              2.192
 Vibration     8          0.640              1.833              2.088
 Vibration     9          0.651              1.800              1.904
 Vibration    10          0.656              1.782              1.817
 Vibration    11          0.671              1.738              1.633
 Vibration    12          0.692              1.677              1.425
 Vibration    13          0.699              1.656              1.366
 Vibration    14          0.714              1.612              1.250
 Vibration    15          0.756              1.497              1.010
 Vibration    16          0.784              1.423              0.886
 Vibration    17          0.823              1.327              0.751
 Vibration    18          0.839              1.289              0.703
 Vibration    19          0.880              1.195              0.599
 Vibration    20          0.911              1.128              0.533

 Optimization completed.
    -- Stationary point found.

 1\1\GINC-NODE222\Freq\RB3LYP\6-31G(d)\C9H18N4\VSC10255\13-Dec-2020\0\\
 #N Geom=AllCheck Guess=TCheck SCRF=Check GenChk RB3LYP/6-31G(d) Freq\\
 CID_80494834_JID_3938_neutraal\\0,1\C,1.1952823838,0.0576250645,0.1095
 080155\C,0.7938727691,-1.3646983247,0.5150683791\C,1.1705799102,-1.715
 084207,1.9626294298\C,0.5355271327,-0.8221213795,3.0439336012\C,-0.996
 1756501,-0.9026489738,3.0275444728\C,1.0592047902,-1.1664296363,4.4485
 559267\C,2.5811034164,-1.0393090962,4.6420388354\C,3.090156545,0.29914
 40254,4.1678142153\N,3.9015476779,0.4181531536,3.1082141707\N,4.098483

 Normal termination of Gaussian 16 at Sun Dec 13 16:14:09 2020.

 ----------------------------------------------------------------------
 # B3LYP/6-311++G(d,p) empiricaldispersion=gd3bj scf=xqc pop=npa geom=c
 heck
 ----------------------------------------------------------------------

 --------------------------------------
 CID_80494834_JID_3938_Energie_neutraal
 --------------------------------------
 Structure from the checkpoint file:  "JID_3938.chk"
 Charge =  0 Multiplicity = 1

 SCF Done:  E(RB3LYP) =  -572.992378184     A.U. after   14 cycles
 Normal termination of Gaussian 16 at Sun Dec 13 16:17:58 2020.

 ----------------------------------------------------------------------
 # B3LYP/6-311++G(d,p) empiricaldispersion=gd3bj scf=xqc pop=npa geom=c
 heck
 ----------------------------------------------------------------------

 ------------------------------------
 CID_80494834_JID_3938_Energie_kation
 ------------------------------------
 Structure from the checkpoint file:  "JID_3938.chk"
 Charge =  1 Multiplicity = 2

 SCF Done:  E(UB3LYP) =  -572.663393811     A.U. after   27 cycles
 Normal termination of Gaussian 16 at Sun Dec 13 16:28:16 2020.
 Gaussian 16:  ES64L-G16RevA.03 25-Dec-2016

 -----------------------------------
 CID_80494834_JID_3938_Energie_anion
 -----------------------------------
 Structure from the checkpoint file:  "JID_3938.chk"
 Charge = -1 Multiplicity = 2

                         Standard orientation:
 ---------------------------------------------------------------------
 Center     Atomic      Atomic             Coordinates (Angstroms)
 Number     Number       Type             X           Y           Z
 ---------------------------------------------------------------------
      1          6           0        2.403108   -2.150669   -0.015160
      2          6           0        2.981668   -0.892406   -0.671402
      3          6           0        1.950919    0.233428   -0.845082
      4          6           0        1.311106    0.748420    0.456961
      5          6           0        2.353722    1.341908    1.412782
      6          6           0        0.209486    1.785567    0.180361
      7          6           0       -0.959009    1.299039   -0.695814
      8          6           0       -1.529859   -0.000970   -0.186316
      9          7           0       -1.429056   -1.143479   -0.878979
     10          7           0       -2.030894   -2.036718   -0.092690
     11          7           0       -2.523838   -1.583887    1.056211
     12          6           0       -2.213022   -0.285117    1.018348
     13          7           0       -1.942631    2.387803   -0.806825
     14          1           0        2.125409   -1.972257    1.029623
     15          1           0        3.127182   -2.973024   -0.027353
     16          1           0        1.500434   -2.483136   -0.542216
     17          1           0        3.844006   -0.536881   -0.093140
     18          1           0        3.372397   -1.153117   -1.663695
     19          1           0        2.420887    1.081816   -1.364393
     20          1           0        1.162563   -0.141299   -1.508386
     21          1           0        0.837092   -0.102453    0.963466
     22          1           0        2.887843    2.175974    0.939646
     23          1           0        1.879220    1.724282    2.324194
     24          1           0        3.098018    0.598290    1.715193
     25          1           0       -0.204011    2.120280    1.144091
     26          1           0        0.634031    2.676432   -0.299062
     27          1           0       -0.590495    1.105756   -1.707657
     28          1           0       -2.118642   -3.005767   -0.361151
     29          1           0       -2.485369    0.369189    1.833836
     30          1           0       -2.732013    2.075923   -1.371145
     31          1           0       -2.322330    2.598750    0.116065
 ---------------------------------------------------------------------

 SCF Done:  E(UB3LYP) =  -572.978345235     A.U. after   33 cycles
 SCF Done:  E(UB3LYP) =  -572.978345235     a.u. after    1 cycles

 The electronic state is 2-A.
 Alpha  occ. eigenvalues --  -14.31683 -14.25362 -14.25076 -14.20034 -10.11204
 Alpha  occ. eigenvalues --  -10.10474 -10.09965 -10.07408 -10.06918 -10.06885
 Alpha  occ. eigenvalues --  -10.06465 -10.06240 -10.05703  -1.00623  -0.80663
 Alpha  occ. eigenvalues --   -0.79031  -0.72791  -0.71947  -0.66819  -0.62161
 Alpha  occ. eigenvalues --   -0.58293  -0.55473  -0.53638  -0.51138  -0.48616
 Alpha  occ. eigenvalues --   -0.45322  -0.43947  -0.40019  -0.38056  -0.37212
 Alpha  occ. eigenvalues --   -0.36228  -0.35215  -0.34735  -0.34434  -0.32454
 Alpha  occ. eigenvalues --   -0.30791  -0.29998  -0.28538  -0.26978  -0.26336
 Alpha  occ. eigenvalues --   -0.25198  -0.24783  -0.23431  -0.22408  -0.21836
 Alpha  occ. eigenvalues --   -0.21245  -0.20378  -0.19445  -0.17787  -0.14957
 Alpha  occ. eigenvalues --    0.04444
 Alpha virt. eigenvalues --    0.06375   0.06650   0.07714   0.08209   0.08401
 Alpha virt. eigenvalues --    0.09034   0.09850   0.10195   0.10800   0.11759
 Alpha virt. eigenvalues --    0.12090   0.12185   0.12967   0.13293   0.13710

  Beta  occ. eigenvalues --  -14.31627 -14.25358 -14.25070 -14.20001 -10.11200
  Beta  occ. eigenvalues --  -10.10477 -10.09939 -10.07403 -10.06902 -10.06875
  Beta  occ. eigenvalues --  -10.06462 -10.06221 -10.05678  -1.00584  -0.80628
  Beta  occ. eigenvalues --   -0.78996  -0.72720  -0.71914  -0.66789  -0.62117
  Beta  occ. eigenvalues --   -0.58259  -0.55426  -0.53551  -0.51092  -0.48580
  Beta  occ. eigenvalues --   -0.45287  -0.43886  -0.39989  -0.38030  -0.37178
  Beta  occ. eigenvalues --   -0.36193  -0.35148  -0.34704  -0.34399  -0.32425
  Beta  occ. eigenvalues --   -0.30767  -0.29971  -0.28515  -0.26946  -0.26314
  Beta  occ. eigenvalues --   -0.25175  -0.24754  -0.23408  -0.22383  -0.21813
  Beta  occ. eigenvalues --   -0.21227  -0.20351  -0.19429  -0.17755  -0.14919
  Beta virt. eigenvalues --    0.06584   0.07433   0.07838   0.08046   0.08375
  Beta virt. eigenvalues --    0.09022   0.09577   0.10090   0.10360   0.11008
  Beta virt. eigenvalues --    0.12056   0.12268   0.12595   0.13085   0.13337

 Mulliken charges and spin densities:
               1          2
     1  C    0.155812  -0.755646
     2  C   -0.536063   0.121148
     3  C    0.136879  -0.357325
     4  C   -0.716755   1.299769
     5  C    0.137384  -0.704046
     6  C    0.303456  -0.984308
     7  C    1.787439  -2.160678
     8  C   -0.482335   0.272269
     9  N   -0.069789   0.099286
    10  N    0.075376  -0.062440
    11  N    0.123620  -0.177458
    12  C   -0.537878   0.175439
    13  N   -0.340720   0.098584
    14  H   -0.073164   0.223108
    15  H   -0.362032   0.502962
    16  H    0.015075   0.130758
    17  H    0.029102   0.088563
    18  H    0.007190   0.143411
    19  H    0.062757   0.078809
    20  H    0.263481  -0.139805
    21  H    0.367816  -0.229422
    22  H    0.001412   0.140319
    23  H   -0.180244   0.319567
    24  H   -0.025345   0.165314
    25  H    0.018580   0.117410
    26  H    0.196805  -0.028116
    27  H    0.119855   0.137136
    28  H   -0.487107   0.839948
    29  H   -0.819230   0.996838
    30  H   -0.043243   0.277686
    31  H   -0.128134   0.370920
 Sum of Mulliken charges =  -1.00000   1.00000

 Dipole moment (field-independent basis, Debye):
    X=              3.1905    Y=              2.5423    Z=             -2.3098  Tot=              4.6880
 Quadrupole moment (field-independent basis, Debye-Ang):
   XX=           -137.3123   YY=           -143.3916   ZZ=           -115.8465
   XY=              3.4230   XZ=              1.6614   YZ=             -3.2475

 Summary of Natural Population Analysis:

                                       Natural Population
                Natural  -----------------------------------------------
    Atom  No    Charge         Core      Valence    Rydberg      Total
 -----------------------------------------------------------------------
      C    1   -0.28876      0.99967     2.28400    0.00508     3.28876
      C    2   -0.18927      0.99964     2.18145    0.00818     3.18927
      C    3   -0.18901      0.99961     2.18188    0.00752     3.18901
      C    4   -0.11922      0.99959     2.11019    0.00943     3.11922
      C    5   -0.28415      0.99965     2.27807    0.00643     3.28415
      C    6   -0.18187      0.99960     2.17185    0.01042     3.18187
      C    7   -0.02876      0.99955     2.01668    0.01254     3.02876
      C    8    0.04495      0.99955     1.93768    0.01782     2.95505
      N    9   -0.14099      0.99970     2.62865    0.01264     3.64099
      N   10   -0.07132      0.99974     2.55457    0.01700     3.57132
      N   11   -0.13282      0.99974     2.61982    0.01326     3.63282
      C   12   -0.03206      0.99955     2.01904    0.01347     3.03206
      N   13   -0.41367      0.99978     2.90451    0.00939     3.91367
      H   14    0.09639      0.00000     0.40239    0.00122     0.40361
      H   15    0.09722      0.00000     0.40183    0.00095     0.40278
      H   16    0.10152      0.00000     0.39709    0.00139     0.39848
      H   17    0.09163      0.00000     0.40729    0.00109     0.40837
      H   18    0.09320      0.00000     0.40592    0.00088     0.40680
      H   19    0.09245      0.00000     0.40654    0.00101     0.40755
      H   20    0.10123      0.00000     0.39701    0.00176     0.39877
      H   21    0.09889      0.00000     0.39839    0.00272     0.40111
      H   22    0.09419      0.00000     0.40499    0.00082     0.40581
      H   23    0.10062      0.00000     0.39856    0.00082     0.39938
      H   24    0.09965      0.00000     0.39950    0.00085     0.40035
      H   25    0.09778      0.00000     0.40095    0.00126     0.40222
      H   26    0.10084      0.00000     0.39801    0.00115     0.39916
      H   27    0.09946      0.00000     0.39847    0.00207     0.40054
      H   28    0.20530      0.00000     0.28195    0.01275     0.29470
      H   29    0.10637      0.00000     0.39113    0.00250     0.39363
      H   30    0.17573      0.00000     0.32255    0.00172     0.32427
      H   31    0.17447      0.00000     0.32287    0.00265     0.32553
 =======================================================================
   * Total *    0.00000     12.99538    36.82383    0.18079    50.00000

 Normal termination of Gaussian 16 at Sun Dec 13 16:41:02 2020.
