 Gaussian 16, Revision A.03,

 -----------------------------------------------------------
 # opt freq B3LYP/6-31G(d) empiricaldispersion=gd3bj scf=xqc
 -----------------------------------------------------------

 ------------------------------
 CID_64168065_JID_9426_neutraal
 ------------------------------
 Symbolic Z-matrix:
 Charge =  0 Multiplicity = 1

 SCF Done:  E(RB3LYP) =  -1256.85049831     A.U. after   15 cycles
 SCF Done:  E(RB3LYP) =  -1256.85638215     A.U. after   12 cycles
 SCF Done:  E(RB3LYP) =  -1256.85526819     A.U. after   13 cycles
 SCF Done:  E(RB3LYP) =  -1256.85580499     A.U. after   13 cycles
 SCF Done:  E(RB3LYP) =  -1256.85756410     A.U. after   10 cycles
 SCF Done:  E(RB3LYP) =  -1256.85875852     A.U. after   12 cycles
 SCF Done:  E(RB3LYP) =  -1256.85905492     A.U. after   12 cycles
 SCF Done:  E(RB3LYP) =  -1256.85917228     A.U. after   11 cycles
 SCF Done:  E(RB3LYP) =  -1256.85925462     A.U. after   11 cycles
 SCF Done:  E(RB3LYP) =  -1256.85929361     A.U. after   11 cycles
 SCF Done:  E(RB3LYP) =  -1256.85954862     A.U. after    9 cycles
 SCF Done:  E(RB3LYP) =  -1256.85954882     A.U. after    7 cycles
 SCF Done:  E(RB3LYP) =  -1256.85954884     A.U. after    7 cycles
 SCF Done:  E(RB3LYP) =  -1256.85954873     A.U. after    7 cycles
 SCF Done:  E(RB3LYP) =  -1256.85954865     A.U. after    7 cycles
 Optimization completed.
    -- Stationary point found.
 Normal termination of Gaussian 16 at Sat Dec 12 09:47:38 2020.

 --------------------------------------------------------------------
 #N Geom=AllCheck Guess=TCheck SCRF=Check GenChk RB3LYP/6-31G(d) Freq
 --------------------------------------------------------------------

 Structure from the checkpoint file:  "JID_9426.chk"
 ------------------------------
 CID_64168065_JID_9426_neutraal
 ------------------------------
 Charge =  0 Multiplicity = 1

 SCF Done:  E(RB3LYP) =  -1256.85954865     A.U. after    1 cycles

  Exact polarizability: 208.908 -33.325 150.283   9.505   1.477 160.644
 Approx polarizability: 270.482 -68.376 240.686  20.602  -4.457 273.422

                      1                      2                      3
                      A                      A                      A
 Frequencies --     13.3791                21.7085                38.1986
 Red. masses --      4.3296                 4.1701                 4.9453
 Frc consts  --      0.0005                 0.0012                 0.0043
 IR Inten    --      2.3120                 0.3480                 2.4960

                      4                      5                      6
                      A                      A                      A
 Frequencies --     61.2745                75.3223               100.1789
 Red. masses --      3.8516                 3.5080                 1.5284
 Frc consts  --      0.0085                 0.0117                 0.0090
 IR Inten    --      0.8884                 3.7200                 0.5205

                      7                      8                      9
                      A                      A                      A
 Frequencies --    117.8966               148.9737               150.0386
 Red. masses --      3.1577                 3.0643                 3.1397
 Frc consts  --      0.0259                 0.0401                 0.0416
 IR Inten    --      0.7766                 1.9259                 1.3189

                     10                     11                     12
                      A                      A                      A
 Frequencies --    158.9492               184.2999               192.7527
 Red. masses --      3.2972                 1.8561                 2.6779
 Frc consts  --      0.0491                 0.0371                 0.0586
 IR Inten    --      2.0786                 1.0253                 1.6824

                     13                     14                     15
                      A                      A                      A
 Frequencies --    197.6321               211.7176               246.8809
 Red. masses --      1.2296                 1.2443                 3.8437
 Frc consts  --      0.0283                 0.0329                 0.1380
 IR Inten    --      0.9524                 0.9053                 4.9281

                     16                     17                     18
                      A                      A                      A
 Frequencies --    259.9207               277.4871               281.6926
 Red. masses --      2.4139                 6.4652                 1.8092
 Frc consts  --      0.0961                 0.2933                 0.0846
 IR Inten    --      1.1149                 1.8335                 1.9975

                     19                     20                     21
                      A                      A                      A
 Frequencies --    306.3363               310.1126               330.4289
 Red. masses --      3.7072                 3.7460                 4.0025
 Frc consts  --      0.2050                 0.2123                 0.2575
 IR Inten    --      1.1037                 3.0248                 1.6086

                     22                     23                     24
                      A                      A                      A
 Frequencies --    358.2294               371.0758               379.9020
 Red. masses --      2.0731                 1.5400                 4.8220
 Frc consts  --      0.1567                 0.1249                 0.4100
 IR Inten    --     13.2103                21.7986                 4.5688

                     25                     26                     27
                      A                      A                      A
 Frequencies --    414.8814               428.7697               446.1595
 Red. masses --      3.1730                 3.0582                 2.8373
 Frc consts  --      0.3218                 0.3313                 0.3328
 IR Inten    --      6.7197                 7.5175                16.5350

                     28                     29                     30
                      A                      A                      A
 Frequencies --    481.8713               500.0210               523.4819
 Red. masses --      4.1508                 4.1742                 2.9819
 Frc consts  --      0.5679                 0.6149                 0.4814
 IR Inten    --      6.9795                42.0486               215.2762

                     31                     32                     33
                      A                      A                      A
 Frequencies --    537.9192               555.2783               582.3136
 Red. masses --      1.9587                 3.2596                 3.5622
 Frc consts  --      0.3339                 0.5922                 0.7117
 IR Inten    --    137.8119                49.8357                 9.0343

                     34                     35                     36
                      A                      A                      A
 Frequencies --    585.8737               646.1998               669.5364
 Red. masses --      5.4794                 5.2979                 3.3415
 Frc consts  --      1.1081                 1.3034                 0.8825
 IR Inten    --     82.3861                53.0537                12.4377

                     37                     38                     39
                      A                      A                      A
 Frequencies --    697.8776               723.8997               729.2648
 Red. masses --      3.5285                 4.2599                 4.1726
 Frc consts  --      1.0125                 1.3152                 1.3075
 IR Inten    --    261.1564                 0.9482                11.1256

                     40                     41                     42
                      A                      A                      A
 Frequencies --    752.5122               786.3332               830.2501
 Red. masses --      4.0456                 4.1158                 1.5241
 Frc consts  --      1.3498                 1.4994                 0.6190
 IR Inten    --     20.6406                 4.8816                29.2054

                     43                     44                     45
                      A                      A                      A
 Frequencies --    857.5089               913.9639               914.2027
 Red. masses --      2.9717                 3.5112                 1.3823
 Frc consts  --      1.2875                 1.7281                 0.6807
 IR Inten    --     57.6923                11.9558                 3.8153

                     46                     47                     48
                      A                      A                      A
 Frequencies --    921.5330               953.3593               984.0066
 Red. masses --      2.7829                 1.2798                 2.3752
 Frc consts  --      1.3924                 0.6853                 1.3550
 IR Inten    --     57.1001                 0.1654                13.3632

                     49                     50                     51
                      A                      A                      A
 Frequencies --   1024.5549              1069.2940              1075.7348
 Red. masses --      1.5573                 1.6731                 1.4819
 Frc consts  --      0.9631                 1.1271                 1.0104
 IR Inten    --      2.7915                89.5073                 0.7785

                     52                     53                     54
                      A                      A                      A
 Frequencies --   1087.4806              1091.5989              1105.7731
 Red. masses --      1.6673                 1.4190                 3.2828
 Frc consts  --      1.1617                 0.9962                 2.3650
 IR Inten    --     12.5861                12.3292               103.2645

                     55                     56                     57
                      A                      A                      A
 Frequencies --   1122.0922              1140.1650              1141.5191
 Red. masses --      2.5443                 1.2946                 2.0268
 Frc consts  --      1.8874                 0.9915                 1.5561
 IR Inten    --      7.9572                 1.9009                44.3004

                     58                     59                     60
                      A                      A                      A
 Frequencies --   1144.9867              1190.0408              1190.5386
 Red. masses --      3.4087                 1.3665                 1.2122
 Frc consts  --      2.6329                 1.1402                 1.0123
 IR Inten    --    211.1842                 8.7396                12.7619

                     61                     62                     63
                      A                      A                      A
 Frequencies --   1225.5001              1233.2318              1287.3913
 Red. masses --      2.2893                 3.4367                 4.7838
 Frc consts  --      2.0258                 3.0795                 4.6714
 IR Inten    --     51.3584                17.1544                43.3092

                     64                     65                     66
                      A                      A                      A
 Frequencies --   1315.9982              1326.2023              1342.9166
 Red. masses --      2.4742                 1.5446                 2.7184
 Frc consts  --      2.5246                 1.6006                 2.8884
 IR Inten    --     77.2267                 5.4998                70.2106

                     67                     68                     69
                      A                      A                      A
 Frequencies --   1353.4356              1386.8756              1399.6883
 Red. masses --      1.7756                 3.7770                 1.2941
 Frc consts  --      1.9163                 4.2803                 1.4938
 IR Inten    --     56.8132                 6.6561                31.8505

                     70                     71                     72
                      A                      A                      A
 Frequencies --   1428.1985              1441.9868              1443.4292
 Red. masses --      1.3533                 1.9257                 1.3432
 Frc consts  --      1.6264                 2.3592                 1.6489
 IR Inten    --     56.8387                63.9410                 8.8870

                     73                     74                     75
                      A                      A                      A
 Frequencies --   1450.6860              1458.9253              1464.9517
 Red. masses --      1.3206                 1.3066                 2.9450
 Frc consts  --      1.6375                 1.6386                 3.7238
 IR Inten    --     22.6126                26.3265                10.3502

                     76                     77                     78
                      A                      A                      A
 Frequencies --   1494.6737              1514.9577              1517.4080
 Red. masses --      1.1781                 1.0440                 1.0505
 Frc consts  --      1.5507                 1.4118                 1.4252
 IR Inten    --     23.2994                 7.3917                 2.4919

                     79                     80                     81
                      A                      A                      A
 Frequencies --   1522.0188              1528.7275              1530.8135
 Red. masses --      1.0680                 1.0561                 1.2092
 Frc consts  --      1.4577                 1.4542                 1.6695
 IR Inten    --     10.1684                 7.2051                13.0999

                     82                     83                     84
                      A                      A                      A
 Frequencies --   1536.7636              1546.0308              1548.3395
 Red. masses --      1.0552                 1.0450                 2.4251
 Frc consts  --      1.4683                 1.4716                 3.4254
 IR Inten    --      2.2546                18.3861                60.5083

                     85                     86                     87
                      A                      A                      A
 Frequencies --   1563.2950              1631.0920              1660.8784
 Red. masses --      1.2128                 6.2116                 4.0170
 Frc consts  --      1.7463                 9.7367                 6.5288
 IR Inten    --     26.9540                20.8825                35.2499

                     88                     89                     90
                      A                      A                      A
 Frequencies --   1698.9132              1756.2022              3023.2167
 Red. masses --      1.2758                 9.3262                 1.0452
 Frc consts  --      2.1695                16.9475                 5.6286
 IR Inten    --    158.7892               245.9198                38.1340

                     91                     92                     93
                      A                      A                      A
 Frequencies --   3025.2593              3035.3410              3063.2801
 Red. masses --      1.0472                 1.0469                 1.0841
 Frc consts  --      5.6466                 5.6831                 5.9936
 IR Inten    --     39.7126                86.4240                 5.8995

                     94                     95                     96
                      A                      A                      A
 Frequencies --   3075.1314              3076.7316              3088.9099
 Red. masses --      1.0950                 1.0374                 1.0954
 Frc consts  --      6.1011                 5.7858                 6.1581
 IR Inten    --     18.6942                17.3666                31.9171

                     97                     98                     99
                      A                      A                      A
 Frequencies --   3096.4669              3137.9439              3148.9538
 Red. masses --      1.0964                 1.0976                 1.1012
 Frc consts  --      6.1936                 6.3680                 6.4336
 IR Inten    --     31.3259                10.1019                14.7858

                    100                    101                    102
                      A                      A                      A
 Frequencies --   3171.1014              3185.4423              3195.9126
 Red. masses --      1.1019                 1.0895                 1.0973
 Frc consts  --      6.5285                 6.5138                 6.6033
 IR Inten    --      7.1726                16.7896                 1.3861

                    103                    104                    105
                      A                      A                      A
 Frequencies --   3202.3504              3208.4710              3230.2349
 Red. masses --      1.0960                 1.0903                 1.0924
 Frc consts  --      6.6220                 6.6130                 6.7160
 IR Inten    --      2.7707                 1.2552                 1.0584

                    106                    107                    108
                      A                      A                      A
 Frequencies --   3517.5545              3575.6548              3677.2700
 Red. masses --      1.0751                 1.0474                 1.0996
 Frc consts  --      7.8374                 7.8897                 8.7603
 IR Inten    --     15.0228                32.7839                16.1884

 - Thermochemistry -
 -------------------
 Temperature   298.150 Kelvin.  Pressure   1.00000 Atm.
 Atom     1 has atomic number  6 and mass  12.00000

 Molecular mass:   285.11471 amu.
 Principal axes and moments of inertia in atomic units:
                           1         2         3
     Eigenvalues --  3517.480018728.171689899.71990
           X            0.99995  -0.00973  -0.00238
           Y            0.00984   0.99860   0.05201
           Z            0.00187  -0.05203   0.99864
 This molecule is an asymmetric top.
 Rotational symmetry number  1.
 Warning -- assumption of classical behavior for rotation
           may cause significant error
 Rotational temperatures (Kelvin)      0.02462     0.00992     0.00875
 Rotational constants (GHZ):           0.51308     0.20677     0.18230
 Zero-point vibrational energy     825183.7 (Joules/Mol)
                                  197.22364 (Kcal/Mol)
 Warning -- explicit consideration of  34 degrees of freedom as
           vibrations may cause significant error
 Vibrational temperatures:     19.25    31.23    54.96    88.16   108.37
          (Kelvin)            144.14   169.63   214.34   215.87   228.69
                              265.17   277.33   284.35   304.61   355.21
                              373.97   399.24   405.29   440.75   446.18
                              475.41   515.41   533.90   546.59   596.92
                              616.90   641.92   693.31   719.42   753.17
                              773.95   798.92   837.82   842.94   929.74
                              963.31  1004.09  1041.53  1049.25  1082.70
                             1131.36  1194.54  1233.76  1314.99  1315.33
                             1325.88  1371.67  1415.77  1474.11  1538.48
                             1547.74  1564.64  1570.57  1590.96  1614.44
                             1640.44  1642.39  1647.38  1712.20  1712.92
                             1763.22  1774.35  1852.27  1893.43  1908.11
                             1932.16  1947.29  1995.40  2013.84  2054.86
                             2074.70  2076.77  2087.21  2099.07  2107.74
                             2150.50  2179.69  2183.21  2189.85  2199.50
                             2202.50  2211.06  2224.39  2227.72  2249.23
                             2346.78  2389.63  2444.36  2526.78  4349.73
                             4352.67  4367.18  4407.38  4424.43  4426.73
                             4444.25  4455.13  4514.80  4530.64  4562.51
                             4583.14  4598.21  4607.47  4616.27  4647.59
                             5060.98  5144.57  5290.77

 Zero-point correction=                           0.314296 (Hartree/Particle)
 Thermal correction to Energy=                    0.334920
 Thermal correction to Enthalpy=                  0.335865
 Thermal correction to Gibbs Free Energy=         0.263515
 Sum of electronic and zero-point Energies=          -1256.545253
 Sum of electronic and thermal Energies=             -1256.524628
 Sum of electronic and thermal Enthalpies=           -1256.523684
 Sum of electronic and thermal Free Energies=        -1256.596034

                     E (Thermal)             CV                S
                      KCal/Mol        Cal/Mol-Kelvin    Cal/Mol-Kelvin
 Total                  210.166             76.585            152.273
 Electronic               0.000              0.000              0.000
 Translational            0.889              2.981             42.841
 Rotational               0.889              2.981             34.074
 Vibrational            208.388             70.623             75.358
 Vibration     1          0.593              1.987              7.433
 Vibration     2          0.593              1.985              6.471
 Vibration     3          0.594              1.982              5.350
 Vibration     4          0.597              1.973              4.416
 Vibration     5          0.599              1.965              4.009
 Vibration     6          0.604              1.949              3.451
 Vibration     7          0.608              1.934              3.135
 Vibration     8          0.618              1.904              2.685
 Vibration     9          0.618              1.903              2.672
 Vibration    10          0.621              1.893              2.562
 Vibration    11          0.631              1.861              2.284
 Vibration    12          0.635              1.850              2.201
 Vibration    13          0.637              1.843              2.155
 Vibration    14          0.643              1.823              2.029
 Vibration    15          0.661              1.768              1.753
 Vibration    16          0.668              1.746              1.662
 Vibration    17          0.678              1.715              1.549
 Vibration    18          0.681              1.708              1.523
 Vibration    19          0.697              1.662              1.382
 Vibration    20          0.699              1.654              1.362
 Vibration    21          0.713              1.615              1.258
 Vibration    22          0.733              1.558              1.130
 Vibration    23          0.743              1.532              1.075
 Vibration    24          0.750              1.513              1.040
 Vibration    25          0.778              1.438              0.910
 Vibration    26          0.790              1.408              0.863
 Vibration    27          0.805              1.369              0.807
 Vibration    28          0.838              1.290              0.705
 Vibration    29          0.855              1.250              0.658
 Vibration    30          0.878              1.198              0.602
 Vibration    31          0.893              1.166              0.570
 Vibration    32          0.911              1.128              0.533
 Vibration    33          0.939              1.070              0.481
 Vibration    34          0.943              1.062              0.475

 Optimization completed.
    -- Stationary point found.
 Normal termination of Gaussian 16 at Sat Dec 12 10:06:43 2020.

 ----------------------------------------------------------------------
 # B3LYP/6-311++G(d,p) empiricaldispersion=gd3bj scf=xqc pop=npa geom=c
 heck
 ----------------------------------------------------------------------

 --------------------------------------
 CID_64168065_JID_9426_Energie_neutraal
 --------------------------------------
 Structure from the checkpoint file:  "JID_9426.chk"
 Charge =  0 Multiplicity = 1

 SCF Done:  E(RB3LYP) =  -1257.13851382     A.U. after   17 cycles
 Normal termination of Gaussian 16 at Sat Dec 12 10:16:41 2020.

 ----------------------------------------------------------------------
 # B3LYP/6-311++G(d,p) empiricaldispersion=gd3bj scf=xqc pop=npa geom=c
 heck
 ----------------------------------------------------------------------

 ------------------------------------
 CID_64168065_JID_9426_Energie_kation
 ------------------------------------
 Structure from the checkpoint file:  "JID_9426.chk"
 Charge =  1 Multiplicity = 2

 SCF Done:  E(UB3LYP) =  -1256.84578412     A.U. after   27 cycles
 Normal termination of Gaussian 16 at Sat Dec 12 10:38:44 2020.
 Gaussian 16:  ES64L-G16RevA.03 25-Dec-2016

 ----------------------------------------------------------------------
 # B3LYP/6-311++G(d,p) empiricaldispersion=gd3bj scf=xqc pop=npa geom=c
 heck
 ----------------------------------------------------------------------

 -----------------------------------
 CID_64168065_JID_9426_Energie_anion
 -----------------------------------
 Structure from the checkpoint file:  "JID_9426.chk"
 Charge = -1 Multiplicity = 2

                         Standard orientation:
 ---------------------------------------------------------------------
 Center     Atomic      Atomic             Coordinates (Angstroms)
 Number     Number       Type             X           Y           Z
 ---------------------------------------------------------------------
      1          6           0        3.864569   -1.423045   -1.920875
      2          6           0        3.164170   -0.697621   -0.801980
      3          6           0        3.589675   -0.877908    0.538294
      4          6           0        2.931731   -0.196999    1.577177
      5          6           0        1.863019    0.646848    1.310025
      6          6           0        1.445849    0.821442   -0.010637
      7          6           0        2.093556    0.152179   -1.053039
      8         16           0        0.034273    1.839058   -0.370801
      9          8           0       -0.156162    2.752221    0.757747
     10          8           0        0.143695    2.315296   -1.751785
     11          7           0       -1.309711    0.801136   -0.399861
     12          6           0       -1.562166   -0.083267    0.759346
     13          6           0       -2.154450    0.672192    1.955295
     14          6           0       -2.445370   -1.277864    0.354592
     15          8           0       -2.105042   -2.397540    0.725724
     16          7           0       -3.568374   -1.068881   -0.406378
     17          6           0       -4.220164    0.216379   -0.633207
     18          6           0       -4.389126   -2.230937   -0.724006
     19          7           0        4.619702   -1.759702    0.825168
     20          1           0        4.921319   -1.129106   -2.002707
     21          1           0        3.840337   -2.509960   -1.769017
     22          1           0        3.393759   -1.206035   -2.883097
     23          1           0        3.269408   -0.335406    2.601071
     24          1           0        1.369349    1.188502    2.108994
     25          1           0        1.766447    0.317723   -2.074923
     26          1           0       -1.274910    0.287405   -1.278835
     27          1           0       -0.632393   -0.567530    1.079319
     28          1           0       -3.098263    1.159543    1.698853
     29          1           0       -2.332683   -0.037410    2.769459
     30          1           0       -1.462216    1.443025    2.297641
     31          1           0       -4.610190    0.242087   -1.657012
     32          1           0       -5.066153    0.351667    0.055769
     33          1           0       -3.516280    1.036710   -0.516268
     34          1           0       -4.757995   -2.144480   -1.751788
     35          1           0       -3.785428   -3.129958   -0.614128
     36          1           0       -5.253248   -2.299132   -0.048439
     37          1           0        5.048976   -1.659301    1.735172
     38          1           0        5.292798   -1.929349    0.090860
 ---------------------------------------------------------------------

 SCF Done:  E(UB3LYP) =  -1257.13518163     A.U. after   33 cycles
 SCF Done:  E(UB3LYP) =  -1257.13518163     a.u. after    1 cycles

 The electronic state is 2-A.
 Alpha  occ. eigenvalues --  -88.97656 -19.03103 -19.03038 -19.01242 -14.27384
 Alpha  occ. eigenvalues --  -14.26256 -14.23198 -10.19824 -10.14688 -10.13328
 Alpha  occ. eigenvalues --  -10.12500 -10.12032 -10.10890 -10.10167 -10.09951
 Alpha  occ. eigenvalues --  -10.09724 -10.08955 -10.08826 -10.08632  -8.03796
 Alpha  occ. eigenvalues --   -6.00082  -6.00055  -5.99877  -1.03359  -0.96599
 Alpha  occ. eigenvalues --   -0.92534  -0.86466  -0.84561  -0.84031  -0.76995
 Alpha  occ. eigenvalues --   -0.69978  -0.69484  -0.66649  -0.64753  -0.62698
 Alpha  occ. eigenvalues --   -0.61101  -0.58427  -0.55567  -0.52940  -0.49993
 Alpha  occ. eigenvalues --   -0.47789  -0.45543  -0.45144  -0.43706  -0.43540
 Alpha  occ. eigenvalues --   -0.41690  -0.40477  -0.39806  -0.37849  -0.37166
 Alpha  occ. eigenvalues --   -0.36079  -0.35614  -0.35237  -0.34603  -0.33829
 Alpha  occ. eigenvalues --   -0.33624  -0.33374  -0.32520  -0.32385  -0.31473
 Alpha  occ. eigenvalues --   -0.30783  -0.30074  -0.29566  -0.28966  -0.28626
 Alpha  occ. eigenvalues --   -0.26594  -0.25952  -0.24462  -0.23946  -0.22601
 Alpha  occ. eigenvalues --   -0.22184  -0.20055  -0.18352  -0.17259  -0.17173
 Alpha  occ. eigenvalues --   -0.13026   0.03321
 Alpha virt. eigenvalues --    0.04323   0.05682   0.06290   0.06760   0.06917
 Alpha virt. eigenvalues --    0.07208   0.07573   0.08697   0.09069   0.09173
 Alpha virt. eigenvalues --    0.10003   0.10190   0.10522   0.10867   0.11167

  Beta  occ. eigenvalues --  -88.97654 -19.03098 -19.03036 -19.01236 -14.27386
  Beta  occ. eigenvalues --  -14.26245 -14.23112 -10.19818 -10.14687 -10.13261
  Beta  occ. eigenvalues --  -10.12471 -10.12004 -10.10864 -10.10167 -10.09969
  Beta  occ. eigenvalues --  -10.09669 -10.08949 -10.08809 -10.08596  -8.03793
  Beta  occ. eigenvalues --   -6.00074  -6.00053  -5.99875  -1.03345  -0.96590
  Beta  occ. eigenvalues --   -0.92528  -0.86456  -0.84541  -0.83916  -0.76922
  Beta  occ. eigenvalues --   -0.69946  -0.69458  -0.66555  -0.64713  -0.62661
  Beta  occ. eigenvalues --   -0.61023  -0.58366  -0.55496  -0.52875  -0.49940
  Beta  occ. eigenvalues --   -0.47757  -0.45521  -0.45110  -0.43632  -0.43453
  Beta  occ. eigenvalues --   -0.41645  -0.40446  -0.39772  -0.37833  -0.37128
  Beta  occ. eigenvalues --   -0.36037  -0.35590  -0.35186  -0.34537  -0.33802
  Beta  occ. eigenvalues --   -0.33594  -0.33343  -0.32490  -0.32351  -0.31462
  Beta  occ. eigenvalues --   -0.30756  -0.30019  -0.29530  -0.28878  -0.28584
  Beta  occ. eigenvalues --   -0.26551  -0.25921  -0.24321  -0.23931  -0.22583
  Beta  occ. eigenvalues --   -0.22128  -0.20033  -0.18343  -0.17173  -0.17094
  Beta  occ. eigenvalues --   -0.12849
  Beta virt. eigenvalues --    0.05054   0.06049   0.06183   0.06478   0.06954
  Beta virt. eigenvalues --    0.07414   0.07441   0.07933   0.08847   0.09432
  Beta virt. eigenvalues --    0.09448   0.10152   0.10298   0.10689   0.11116

 Mulliken charges and spin densities:
               1          2
     1  C    1.539520  -2.011472
     2  C    0.104438   0.799882
     3  C   -1.599822   0.091822
     4  C   -0.077303  -0.198351
     5  C    0.106868  -0.135190
     6  C    0.135715  -0.102545
     7  C    0.033146   0.000662
     8  S    0.433713  -0.125540
     9  O   -0.170513   0.000105
    10  O   -0.136232   0.001868
    11  N   -0.052638  -0.008918
    12  C   -0.618323   0.218296
    13  C   -0.194699  -0.259720
    14  C   -0.402015   0.090075
    15  O   -0.308380   0.005269
    16  N   -0.105035   0.144850
    17  C    0.165837  -0.584051
    18  C    0.365921  -0.612504
    19  N   -0.194736  -0.068624
    20  H   -0.262720   0.437501
    21  H   -0.020649   0.199619
    22  H    0.074924   0.060233
    23  H   -0.180235   0.358139
    24  H    0.185818   0.015841
    25  H    0.122812   0.106409
    26  H    0.283958   0.013838
    27  H    0.231990   0.029115
    28  H    0.156167   0.009977
    29  H    0.111363   0.049445
    30  H    0.159235   0.008512
    31  H   -0.096781   0.241804
    32  H   -0.149835   0.313878
    33  H    0.232803   0.020644
    34  H   -0.144782   0.285364
    35  H    0.102727   0.082616
    36  H   -0.108355   0.270541
    37  H   -0.395593   0.656111
    38  H   -0.328307   0.594499
 Sum of Mulliken charges =  -1.00000   1.00000

 Dipole moment (field-independent basis, Debye):
    X=             -6.4497    Y=              2.0654    Z=             -0.3959  Tot=              6.7839
 Quadrupole moment (field-independent basis, Debye-Ang):
   XX=           -241.2459   YY=           -177.1671   ZZ=           -151.8887
   XY=             11.2446   XZ=             -9.2334   YZ=              8.1743

 Summary of Natural Population Analysis:

                                       Natural Population
                Natural  -----------------------------------------------
    Atom  No    Charge         Core      Valence    Rydberg      Total
 -----------------------------------------------------------------------
      C    1   -0.29699      0.99964     2.29121    0.00614     3.29699
      C    2   -0.03741      0.99948     2.02834    0.00959     3.03741
      C    3    0.11029      0.99946     1.87812    0.01213     2.88971
      C    4   -0.12026      0.99952     2.11074    0.01000     3.12026
      C    5   -0.09133      0.99951     2.08159    0.01023     3.09133
      C    6   -0.16940      0.99936     2.15511    0.01492     3.16940
      C    7   -0.07844      0.99947     2.06861    0.01036     3.07844
      S    8    1.11171      4.99916     1.78767    0.10147     6.88829
      O    9   -0.46530      0.99990     3.45993    0.00547     4.46530
      O   10   -0.46556      0.99991     3.46017    0.00548     4.46556
      N   11   -0.43946      0.99973     2.92673    0.01301     3.93946
      C   12   -0.05546      0.99956     2.04290    0.01301     3.05546
      C   13   -0.29058      0.99964     2.28563    0.00531     3.29058
      C   14    0.34342      0.99961     1.63362    0.02335     2.65658
      O   15   -0.31886      0.99988     3.31361    0.00537     4.31886
      N   16   -0.25292      0.99965     2.74364    0.00963     3.75292
      C   17   -0.18287      0.99963     2.17536    0.00788     3.18287
      C   18   -0.18008      0.99964     2.17217    0.00827     3.18008
      N   19   -0.38540      0.99971     2.87530    0.01039     3.88540
      H   20    0.10559      0.00000     0.39303    0.00137     0.39441
      H   21    0.10693      0.00000     0.39203    0.00104     0.39307
      H   22    0.10410      0.00000     0.39513    0.00077     0.39590
      H   23    0.10351      0.00000     0.39560    0.00089     0.39649
      H   24    0.11214      0.00000     0.38678    0.00107     0.38786
      H   25    0.10971      0.00000     0.38920    0.00109     0.39029
      H   26    0.19674      0.00000     0.30082    0.00244     0.30326
      H   27    0.11106      0.00000     0.38663    0.00231     0.38894
      H   28    0.10051      0.00000     0.39855    0.00094     0.39949
      H   29    0.10364      0.00000     0.39556    0.00080     0.39636
      H   30    0.11472      0.00000     0.38431    0.00097     0.38528
      H   31    0.09710      0.00000     0.40177    0.00113     0.40290
      H   32    0.09209      0.00000     0.40663    0.00128     0.40791
      H   33    0.11553      0.00000     0.38290    0.00157     0.38447
      H   34    0.09501      0.00000     0.40391    0.00108     0.40499
      H   35    0.11487      0.00000     0.38410    0.00103     0.38513
      H   36    0.09332      0.00000     0.40543    0.00125     0.40668
      H   37    0.19301      0.00000     0.29936    0.00762     0.30699
      H   38    0.19531      0.00000     0.29729    0.00740     0.30469
 =======================================================================
   * Total *    0.00000     22.99244    52.68949    0.31807    76.00000

 Normal termination of Gaussian 16 at Sat Dec 12 11:05:51 2020.
