 Gaussian 16, Revision A.03,

 -----------------------------------------------------------
 # opt freq B3LYP/6-31G(d) empiricaldispersion=gd3bj scf=xqc
 -----------------------------------------------------------

 -------------------------------
 CID_147582947_JID_2740_neutraal
 -------------------------------
 Symbolic Z-matrix:
 Charge =  0 Multiplicity = 1

 SCF Done:  E(RB3LYP) =  -468.064063152     A.U. after   13 cycles
 SCF Done:  E(RB3LYP) =  -468.068841245     A.U. after   11 cycles
 SCF Done:  E(RB3LYP) =  -468.069419269     A.U. after   10 cycles
 SCF Done:  E(RB3LYP) =  -468.069922472     A.U. after   10 cycles
 SCF Done:  E(RB3LYP) =  -468.070351636     A.U. after   11 cycles
 SCF Done:  E(RB3LYP) =  -468.070868147     A.U. after   10 cycles
 SCF Done:  E(RB3LYP) =  -468.070955334     A.U. after   10 cycles
 SCF Done:  E(RB3LYP) =  -468.071044401     A.U. after   10 cycles
 SCF Done:  E(RB3LYP) =  -468.071043537     A.U. after    9 cycles
 SCF Done:  E(RB3LYP) =  -468.071055182     A.U. after    9 cycles
 SCF Done:  E(RB3LYP) =  -468.071056463     A.U. after    8 cycles
 SCF Done:  E(RB3LYP) =  -468.071057979     A.U. after    7 cycles
 SCF Done:  E(RB3LYP) =  -468.071059291     A.U. after    8 cycles
 SCF Done:  E(RB3LYP) =  -468.071059524     A.U. after    7 cycles
 SCF Done:  E(RB3LYP) =  -468.071059595     A.U. after    6 cycles
 Optimization completed.
    -- Stationary point found.
 Normal termination of Gaussian 16 at Wed Dec  9 17:56:40 2020.

 --------------------------------------------------------------------
 #N Geom=AllCheck Guess=TCheck SCRF=Check GenChk RB3LYP/6-31G(d) Freq
 --------------------------------------------------------------------

 Structure from the checkpoint file:  "JID_2740.chk"
 -------------------------------
 CID_147582947_JID_2740_neutraal
 -------------------------------
 Charge =  0 Multiplicity = 1

 SCF Done:  E(RB3LYP) =  -468.071059595     A.U. after    1 cycles

  Exact polarizability: 129.486   0.181 111.818  -0.164  -1.790  99.183
 Approx polarizability: 163.369  -0.380 158.603  -0.050  -1.382 156.430

                      1                      2                      3
                      A                      A                      A
 Frequencies --     40.0380                67.6732               107.7794
 Red. masses --      3.1537                 2.3748                 3.4871
 Frc consts  --      0.0030                 0.0064                 0.0239
 IR Inten    --      0.0341                 0.0243                 0.1092

                      4                      5                      6
                      A                      A                      A
 Frequencies --    120.3607               198.4620               242.1976
 Red. masses --      3.4190                 3.0657                 2.9092
 Frc consts  --      0.0292                 0.0711                 0.1005
 IR Inten    --      0.0387                 0.0840                 0.2023

                      7                      8                      9
                      A                      A                      A
 Frequencies --    277.1227               300.0524               326.7652
 Red. masses --      2.4603                 2.6109                 2.2364
 Frc consts  --      0.1113                 0.1385                 0.1407
 IR Inten    --      0.7855                 0.4270                 0.1271

                     10                     11                     12
                      A                      A                      A
 Frequencies --    394.2305               467.4603               500.5726
 Red. masses --      2.3787                 2.4759                 2.4950
 Frc consts  --      0.2178                 0.3188                 0.3683
 IR Inten    --      0.8795                 0.3579                 0.7285

                     13                     14                     15
                      A                      A                      A
 Frequencies --    563.8165               638.0881               700.9192
 Red. masses --      3.8038                 2.3108                 2.4303
 Frc consts  --      0.7124                 0.5543                 0.7035
 IR Inten    --      0.4566                 2.1784                 2.3479

                     16                     17                     18
                      A                      A                      A
 Frequencies --    735.7385               776.3879               802.1652
 Red. masses --      1.8243                 2.9626                 1.5761
 Frc consts  --      0.5818                 1.0522                 0.5975
 IR Inten    --      1.2348                 1.7257                 4.3867

                     19                     20                     21
                      A                      A                      A
 Frequencies --    811.7718               835.3153               839.8366
 Red. masses --      1.4031                 1.5843                 1.3743
 Frc consts  --      0.5447                 0.6513                 0.5711
 IR Inten    --      1.8603                 4.4167                11.7825

                     22                     23                     24
                      A                      A                      A
 Frequencies --    855.3035               879.7122               880.5312
 Red. masses --      1.5321                 1.5216                 2.2081
 Frc consts  --      0.6603                 0.6938                 1.0087
 IR Inten    --      3.1114                 3.8926                 4.8608

                     25                     26                     27
                      A                      A                      A
 Frequencies --    902.3571               916.0931               925.0499
 Red. masses --      2.0450                 2.5772                 3.0188
 Frc consts  --      0.9811                 1.2743                 1.5220
 IR Inten    --      6.2065                 3.4247                 3.1315

                     28                     29                     30
                      A                      A                      A
 Frequencies --    960.2892               983.3515               997.4209
 Red. masses --      2.6558                 1.7394                 2.1801
 Frc consts  --      1.4429                 0.9910                 1.2779
 IR Inten    --      4.7989                 1.3209                 0.9126

                     31                     32                     33
                      A                      A                      A
 Frequencies --   1018.6359              1032.5314              1061.5974
 Red. masses --      2.2770                 1.9003                 1.3117
 Frc consts  --      1.3920                 1.1937                 0.8710
 IR Inten    --      3.7768                 4.2761                 9.7514

                     34                     35                     36
                      A                      A                      A
 Frequencies --   1063.5064              1071.1116              1082.5870
 Red. masses --      1.3740                 1.3816                 1.6355
 Frc consts  --      0.9156                 0.9339                 1.1293
 IR Inten    --      8.2859                 2.4874                 2.5809

                     37                     38                     39
                      A                      A                      A
 Frequencies --   1085.2531              1092.4244              1109.3165
 Red. masses --      1.4660                 1.4570                 1.1985
 Frc consts  --      1.0173                 1.0244                 0.8690
 IR Inten    --      3.1483                 0.1380                 1.5235

                     40                     41                     42
                      A                      A                      A
 Frequencies --   1125.2016              1133.4770              1143.0195
 Red. masses --      1.4077                 1.4753                 1.1571
 Frc consts  --      1.0501                 1.1168                 0.8907
 IR Inten    --      0.3647                 5.7825                 0.2846

                     43                     44                     45
                      A                      A                      A
 Frequencies --   1151.5488              1174.6543              1189.9859
 Red. masses --      1.1752                 1.4899                 1.6125
 Frc consts  --      0.9181                 1.2113                 1.3453
 IR Inten    --      0.2964                 0.4742                 2.2905

                     46                     47                     48
                      A                      A                      A
 Frequencies --   1213.0310              1215.0309              1221.8979
 Red. masses --      1.4236                 1.3891                 1.5602
 Frc consts  --      1.2342                 1.2082                 1.3725
 IR Inten    --      0.8730                 0.7400                 0.5742

                     49                     50                     51
                      A                      A                      A
 Frequencies --   1223.8576              1240.5782              1272.5275
 Red. masses --      1.5407                 1.9526                 1.3111
 Frc consts  --      1.3596                 1.7706                 1.2509
 IR Inten    --      3.5959                 0.3902                 0.1022

                     52                     53                     54
                      A                      A                      A
 Frequencies --   1311.8826              1322.7685              1348.2929
 Red. masses --      1.4239                 1.3804                 1.6816
 Frc consts  --      1.4438                 1.4231                 1.8011
 IR Inten    --      0.5629                 0.0515                 1.2807

                     55                     56                     57
                      A                      A                      A
 Frequencies --   1360.5242              1389.1871              1390.9068
 Red. masses --      1.3471                 1.7604                 1.3766
 Frc consts  --      1.4692                 2.0017                 1.5691
 IR Inten    --      7.3281                 1.6880                15.7884

                     58                     59                     60
                      A                      A                      A
 Frequencies --   1415.7988              1428.9771              1441.4718
 Red. masses --      1.8497                 1.5319                 2.0143
 Frc consts  --      2.1845                 1.8431                 2.4660
 IR Inten    --      7.2786                 4.8176                 2.4682

                     61                     62                     63
                      A                      A                      A
 Frequencies --   1492.4361              1514.3754              1521.7149
 Red. masses --      1.0912                 1.2485                 1.3435
 Frc consts  --      1.4320                 1.6870                 1.8329
 IR Inten    --      0.9719                 1.7266                 1.7229

                     64                     65                     66
                      A                      A                      A
 Frequencies --   1522.7487              1533.1289              1544.5396
 Red. masses --      1.0960                 1.3499                 1.1166
 Frc consts  --      1.4974                 1.8694                 1.5695
 IR Inten    --      1.3738                 0.8523                 4.6767

                     67                     68                     69
                      A                      A                      A
 Frequencies --   3017.9423              3048.5830              3067.4937
 Red. masses --      1.0835                 1.0587                 1.0692
 Frc consts  --      5.8144                 5.7974                 5.9278
 IR Inten    --     38.7701                43.4060                23.0460

                     70                     71                     72
                      A                      A                      A
 Frequencies --   3084.6131              3108.5328              3118.8003
 Red. masses --      1.0984                 1.1037                 1.0874
 Frc consts  --      6.1573                 6.2839                 6.2321
 IR Inten    --     42.6375                37.2747                 6.0238

                     73                     74                     75
                      A                      A                      A
 Frequencies --   3131.1623              3135.1010              3141.3648
 Red. masses --      1.0868                 1.0850                 1.0537
 Frc consts  --      6.2777                 6.2831                 6.1262
 IR Inten    --     44.6789                23.7586                44.7527

                     76                     77                     78
                      A                      A                      A
 Frequencies --   3141.5628              3146.8576              3149.0131
 Red. masses --      1.0521                 1.0596                 1.0583
 Frc consts  --      6.1176                 6.1824                 6.1829
 IR Inten    --     12.4889                12.7308                 9.1327

                     79                     80                     81
                      A                      A                      A
 Frequencies --   3171.8518              3216.0077              3216.7608
 Red. masses --      1.0911                 1.1153                 1.1192
 Frc consts  --      6.4677                 6.7966                 6.8235
 IR Inten    --     19.2364                12.2363                 1.3679

                     82                     83                     84
                      A                      A                      A
 Frequencies --   3228.8792              3232.5335              3237.4331
 Red. masses --      1.1161                 1.1154                 1.0906
 Frc consts  --      6.8556                 6.8673                 6.7347
 IR Inten    --     26.2647                14.2999                 7.4111

 - Thermochemistry -
 -------------------
 Temperature   298.150 Kelvin.  Pressure   1.00000 Atm.
 Atom     1 has atomic number  6 and mass  12.00000

 Molecular mass:   162.14085 amu.
 Principal axes and moments of inertia in atomic units:
                           1         2         3
     Eigenvalues --  1003.835922864.611723311.35403
           X            0.99997   0.00680   0.00245
           Y           -0.00678   0.99994  -0.00806
           Z           -0.00250   0.00805   0.99996
 This molecule is an asymmetric top.
 Rotational symmetry number  1.
 Warning -- assumption of classical behavior for rotation
           may cause significant error
 Rotational temperatures (Kelvin)      0.08628     0.03024     0.02616
 Rotational constants (GHZ):           1.79784     0.63001     0.54502
 Zero-point vibrational energy     718368.8 (Joules/Mol)
                                  171.69426 (Kcal/Mol)
 Warning -- explicit consideration of  13 degrees of freedom as
           vibrations may cause significant error
 Vibrational temperatures:     57.61    97.37   155.07   173.17   285.54
          (Kelvin)            348.47   398.72   431.71   470.14   567.21
                              672.57   720.21   811.21   918.07  1008.47
                             1058.56  1117.05  1154.14  1167.96  1201.83
                             1208.34  1230.59  1265.71  1266.89  1298.29
                             1318.05  1330.94  1381.64  1414.82  1435.07
                             1465.59  1485.58  1527.40  1530.15  1541.09
                             1557.60  1561.44  1571.76  1596.06  1618.91
                             1630.82  1644.55  1656.82  1690.07  1712.12
                             1745.28  1748.16  1758.04  1760.86  1784.92
                             1830.88  1887.51  1903.17  1939.89  1957.49
                             1998.73  2001.20  2037.02  2055.98  2073.96
                             2147.28  2178.85  2189.41  2190.90  2205.83
                             2222.25  4342.15  4386.23  4413.44  4438.07
                             4472.49  4487.26  4505.04  4510.71  4519.72
                             4520.01  4527.63  4530.73  4563.59  4627.12
                             4628.20  4645.64  4650.89  4657.94

 Zero-point correction=                           0.273612 (Hartree/Particle)
 Thermal correction to Energy=                    0.284549
 Thermal correction to Enthalpy=                  0.285493
 Thermal correction to Gibbs Free Energy=         0.236424
 Sum of electronic and zero-point Energies=           -467.797447
 Sum of electronic and thermal Energies=              -467.786510
 Sum of electronic and thermal Enthalpies=            -467.785566
 Sum of electronic and thermal Free Energies=         -467.834636

                     E (Thermal)             CV                S
                      KCal/Mol        Cal/Mol-Kelvin    Cal/Mol-Kelvin
 Total                  178.557             44.309            103.276
 Electronic               0.000              0.000              0.000
 Translational            0.889              2.981             41.159
 Rotational               0.889              2.981             30.633
 Vibrational            176.780             38.347             31.485
 Vibration     1          0.594              1.981              5.257
 Vibration     2          0.598              1.970              4.220
 Vibration     3          0.606              1.943              3.309
 Vibration     4          0.609              1.932              3.095
 Vibration     5          0.637              1.842              2.147
 Vibration     6          0.658              1.776              1.787
 Vibration     7          0.678              1.716              1.551
 Vibration     8          0.693              1.674              1.417
 Vibration     9          0.710              1.622              1.276
 Vibration    10          0.761              1.483              0.984
 Vibration    11          0.825              1.322              0.745
 Vibration    12          0.856              1.249              0.657
 Vibration    13          0.920              1.110              0.516

 Optimization completed.
    -- Stationary point found.
 Normal termination of Gaussian 16 at Wed Dec  9 18:05:00 2020.

 ----------------------------------------------------------------------
 # B3LYP/6-311++G(d,p) empiricaldispersion=gd3bj scf=xqc pop=npa geom=c
 heck
 ----------------------------------------------------------------------

 ---------------------------------------
 CID_147582947_JID_2740_Energie_neutraal
 ---------------------------------------
 Structure from the checkpoint file:  "JID_2740.chk"
 Charge =  0 Multiplicity = 1

 SCF Done:  E(RB3LYP) =  -468.192767097     A.U. after   13 cycles
 Normal termination of Gaussian 16 at Wed Dec  9 18:07:57 2020.

 ----------------------------------------------------------------------
 # B3LYP/6-311++G(d,p) empiricaldispersion=gd3bj scf=xqc pop=npa geom=c
 heck
 ----------------------------------------------------------------------

 -------------------------------------
 CID_147582947_JID_2740_Energie_kation
 -------------------------------------
 Structure from the checkpoint file:  "JID_2740.chk"
 Charge =  1 Multiplicity = 2

 SCF Done:  E(UB3LYP) =  -467.869931061     A.U. after   24 cycles
 Normal termination of Gaussian 16 at Wed Dec  9 18:17:18 2020.
 Gaussian 16:  ES64L-G16RevA.03 25-Dec-2016

 ----------------------------------------------------------------------
 # B3LYP/6-311++G(d,p) empiricaldispersion=gd3bj scf=xqc pop=npa geom=c
 heck
 ----------------------------------------------------------------------

 ------------------------------------
 CID_147582947_JID_2740_Energie_anion
 ------------------------------------
 Structure from the checkpoint file:  "JID_2740.chk"
 Charge = -1 Multiplicity = 2

                         Standard orientation:
 ---------------------------------------------------------------------
 Center     Atomic      Atomic             Coordinates (Angstroms)
 Number     Number       Type             X           Y           Z
 ---------------------------------------------------------------------
      1          6           0        2.525675    1.273665    0.454842
      2          6           0        3.677283    0.454087   -0.063031
      3          6           0        2.274444    0.169713   -0.547534
      4          6           0        1.625112   -1.134384   -0.165457
      5          6           0        0.747486   -1.297563    1.057964
      6          6           0        0.144882   -1.424322   -0.318921
      7          6           0       -0.899527   -0.459990   -0.876188
      8          6           0       -2.331475   -0.993436   -0.582976
      9          6           0       -2.735193   -0.367974    0.770931
     10          6           0       -2.018525    0.973136    0.796124
     11          6           0       -0.897310    0.918929   -0.221744
     12          6           0       -2.091237    1.814118   -0.454801
     13          1           0        2.431696    2.303682    0.120803
     14          1           0        2.209268    1.106678    1.480346
     15          1           0        4.381916    0.918000   -0.747670
     16          1           0        4.122059   -0.269431    0.615653
     17          1           0        2.058196    0.504485   -1.561519
     18          1           0        2.254742   -1.995482   -0.389502
     19          1           0        0.860570   -2.187089    1.671778
     20          1           0        0.505198   -0.398613    1.616390
     21          1           0       -0.056340   -2.447443   -0.635789
     22          1           0       -0.743795   -0.384423   -1.962110
     23          1           0       -3.020780   -0.668914   -1.369704
     24          1           0       -2.366827   -2.087214   -0.564906
     25          1           0       -3.823419   -0.281959    0.878113
     26          1           0       -2.370036   -0.987394    1.599147
     27          1           0       -1.885068    1.475946    1.750559
     28          1           0        0.053250    1.398462   -0.026156
     29          1           0       -2.813830    1.562600   -1.227364
     30          1           0       -1.926500    2.882246   -0.343327
 ---------------------------------------------------------------------

 SCF Done:  E(UB3LYP) =  -468.173496634     A.U. after   31 cycles

 The electronic state is 2-A.
 Alpha  occ. eigenvalues --  -10.07689 -10.07185 -10.07149 -10.06916 -10.06880
 Alpha  occ. eigenvalues --  -10.06826 -10.06806 -10.06448 -10.06261 -10.06194
 Alpha  occ. eigenvalues --  -10.06098 -10.06029  -0.78367  -0.76662  -0.73435
 Alpha  occ. eigenvalues --   -0.65846  -0.60880  -0.53795  -0.51964  -0.50328
 Alpha  occ. eigenvalues --   -0.49050  -0.45163  -0.44678  -0.42968  -0.40772
 Alpha  occ. eigenvalues --   -0.38774  -0.38399  -0.36801  -0.34925  -0.32841
 Alpha  occ. eigenvalues --   -0.30566  -0.29352  -0.27616  -0.26423  -0.25798
 Alpha  occ. eigenvalues --   -0.25368  -0.24521  -0.23205  -0.22602  -0.20949
 Alpha  occ. eigenvalues --   -0.20230  -0.17937  -0.17235  -0.16469  -0.15820
 Alpha  occ. eigenvalues --    0.04783
 Alpha virt. eigenvalues --    0.06820   0.06983   0.07493   0.08598   0.09027
 Alpha virt. eigenvalues --    0.09374   0.09867   0.09931   0.10908   0.11322
 Alpha virt. eigenvalues --    0.12257   0.12533   0.12713   0.13548   0.14685

  Beta  occ. eigenvalues --  -10.07681 -10.07180 -10.07141 -10.06898 -10.06861
  Beta  occ. eigenvalues --  -10.06814 -10.06796 -10.06445 -10.06240 -10.06181
  Beta  occ. eigenvalues --  -10.06079 -10.06013  -0.78347  -0.76642  -0.73410
  Beta  occ. eigenvalues --   -0.65822  -0.60854  -0.53760  -0.51918  -0.50275
  Beta  occ. eigenvalues --   -0.49006  -0.45115  -0.44642  -0.42944  -0.40739
  Beta  occ. eigenvalues --   -0.38730  -0.38342  -0.36758  -0.34891  -0.32810
  Beta  occ. eigenvalues --   -0.30542  -0.29322  -0.27590  -0.26398  -0.25773
  Beta  occ. eigenvalues --   -0.25343  -0.24498  -0.23174  -0.22576  -0.20925
  Beta  occ. eigenvalues --   -0.20208  -0.17916  -0.17212  -0.16448  -0.15799
  Beta virt. eigenvalues --    0.06949   0.07628   0.07872   0.08082   0.09151
  Beta virt. eigenvalues --    0.09503   0.09720   0.10447   0.10494   0.11393
  Beta virt. eigenvalues --    0.11821   0.12540   0.12964   0.13091   0.13986

 Mulliken charges and spin densities:
               1          2
     1  C    0.504171  -0.969892
     2  C   -0.080372  -0.405900
     3  C   -1.348845   1.379620
     4  C    1.424509  -1.483197
     5  C    0.243267  -0.786580
     6  C   -0.742210   0.235701
     7  C    0.853422  -0.289578
     8  C   -0.100005  -0.416263
     9  C    0.685155  -1.147579
    10  C   -1.417484   1.431928
    11  C   -0.896223   0.788685
    12  C    1.868824  -2.440177
    13  H   -0.175631   0.323072
    14  H    0.017490   0.135309
    15  H   -0.194911   0.333068
    16  H   -0.031336   0.161110
    17  H   -0.271952   0.497033
    18  H   -0.139222   0.339048
    19  H   -0.413525   0.598962
    20  H   -0.044065   0.184667
    21  H   -0.524380   0.737752
    22  H    0.027758   0.175462
    23  H   -0.097396   0.255474
    24  H   -0.038976   0.169915
    25  H   -0.218281   0.363455
    26  H    0.066894   0.063741
    27  H   -0.360405   0.575297
    28  H    0.853894  -0.536647
    29  H    0.070640   0.058749
    30  H   -0.520804   0.667763
 Sum of Mulliken charges =  -1.00000   1.00000

 Dipole moment (field-independent basis, Debye):
    X=             -0.2181    Y=             -0.0947    Z=             -0.5292  Tot=              0.5802
 Quadrupole moment (field-independent basis, Debye-Ang):
   XX=           -134.5583   YY=           -129.3989   ZZ=           -109.9290
   XY=              0.8459   XZ=              2.6097   YZ=              2.0325

 Summary of Natural Population Analysis:

                                       Natural Population
                Natural  -----------------------------------------------
    Atom  No    Charge         Core      Valence    Rydberg      Total
 -----------------------------------------------------------------------
      C    1   -0.20026      0.99961     2.19123    0.00941     3.20026
      C    2   -0.19166      0.99962     2.18546    0.00658     3.19166
      C    3   -0.11963      0.99958     2.10875    0.01130     3.11963
      C    4   -0.11356      0.99957     2.10209    0.01191     3.11356
      C    5   -0.19523      0.99959     2.18617    0.00946     3.19523
      C    6   -0.10291      0.99957     2.09085    0.01249     3.10291
      C    7   -0.10799      0.99957     2.09713    0.01129     3.10799
      C    8   -0.18823      0.99963     2.18022    0.00839     3.18823
      C    9   -0.19096      0.99963     2.18341    0.00793     3.19096
      C   10   -0.11009      0.99958     2.10036    0.01015     3.11009
      C   11   -0.11706      0.99956     2.10650    0.01100     3.11706
      C   12   -0.19869      0.99960     2.18948    0.00961     3.19869
      H   13    0.10341      0.00000     0.39525    0.00134     0.39659
      H   14    0.10300      0.00000     0.39562    0.00138     0.39700
      H   15    0.10010      0.00000     0.39870    0.00121     0.39990
      H   16    0.10004      0.00000     0.39873    0.00124     0.39996
      H   17    0.10438      0.00000     0.39421    0.00142     0.39562
      H   18    0.10214      0.00000     0.39639    0.00147     0.39786
      H   19    0.10332      0.00000     0.39527    0.00141     0.39668
      H   20    0.10400      0.00000     0.39438    0.00162     0.39600
      H   21    0.10186      0.00000     0.39660    0.00153     0.39814
      H   22    0.09964      0.00000     0.39891    0.00145     0.40036
      H   23    0.09525      0.00000     0.40333    0.00142     0.40475
      H   24    0.10197      0.00000     0.39669    0.00134     0.39803
      H   25    0.09672      0.00000     0.40217    0.00111     0.40328
      H   26    0.09934      0.00000     0.39913    0.00153     0.40066
      H   27    0.10343      0.00000     0.39528    0.00129     0.39657
      H   28    0.11378      0.00000     0.38395    0.00227     0.38622
      H   29    0.09882      0.00000     0.39997    0.00121     0.40118
      H   30    0.10507      0.00000     0.39381    0.00112     0.39493
 =======================================================================
   * Total *   -0.00000     11.99511    32.86003    0.14486    45.00000

 Normal termination of Gaussian 16 at Wed Dec  9 18:26:13 2020.
