 Gaussian 16, Revision A.03,

 -----------------------------------------------------------
 # opt freq B3LYP/6-31G(d) empiricaldispersion=gd3bj scf=xqc
 -----------------------------------------------------------

 --------------------------------
 CID_135150742_JID_10610_neutraal
 --------------------------------
 Symbolic Z-matrix:
 Charge =  0 Multiplicity = 1

 SCF Done:  E(RB3LYP) =  -967.077954952     A.U. after   15 cycles
 SCF Done:  E(RB3LYP) =  -967.082518036     A.U. after   14 cycles
 SCF Done:  E(RB3LYP) =  -967.081439588     A.U. after   15 cycles
 SCF Done:  E(RB3LYP) =  -967.080088192     A.U. after   15 cycles
 SCF Done:  E(RB3LYP) =  -967.078160801     A.U. after   15 cycles
 SCF Done:  E(RB3LYP) =  -967.082594845     A.U. after   10 cycles
 SCF Done:  E(RB3LYP) =  -967.083849246     A.U. after   15 cycles
 SCF Done:  E(RB3LYP) =  -967.084266963     A.U. after   13 cycles
 SCF Done:  E(RB3LYP) =  -967.084351129     A.U. after   13 cycles
 SCF Done:  E(RB3LYP) =  -967.084402023     A.U. after   13 cycles
 SCF Done:  E(RB3LYP) =  -967.084428651     A.U. after   10 cycles
 SCF Done:  E(RB3LYP) =  -967.084452887     A.U. after   12 cycles
 SCF Done:  E(RB3LYP) =  -967.084459505     A.U. after   11 cycles
 SCF Done:  E(RB3LYP) =  -967.084462828     A.U. after   10 cycles
 SCF Done:  E(RB3LYP) =  -967.084463666     A.U. after    9 cycles
 SCF Done:  E(RB3LYP) =  -967.084463873     A.U. after    8 cycles
 Optimization completed.
    -- Stationary point found.
 Normal termination of Gaussian 16 at Mon Dec 14 17:44:38 2020.

 --------------------------------------------------------------------
 #N Geom=AllCheck Guess=TCheck SCRF=Check GenChk RB3LYP/6-31G(d) Freq
 --------------------------------------------------------------------

 Structure from the checkpoint file:  "JID_10610.chk"
 --------------------------------
 CID_135150742_JID_10610_neutraal
 --------------------------------
 Charge =  0 Multiplicity = 1

 SCF Done:  E(RB3LYP) =  -967.084463873     A.U. after    1 cycles

  Exact polarizability: 287.420   2.498 166.792  -3.994   9.530  85.566
 Approx polarizability: 395.854  -1.468 307.534  -7.013  28.323 141.070

                      1                      2                      3
                      A                      A                      A
 Frequencies --     24.8461                34.0122                41.6077
 Red. masses --      3.9767                 9.2940                 3.8925
 Frc consts  --      0.0014                 0.0063                 0.0040
 IR Inten    --      0.0528                 0.8620                 0.4860

                      4                      5                      6
                      A                      A                      A
 Frequencies --     47.5531                58.8152               101.0353
 Red. masses --      8.6131                 8.8908                 7.1109
 Frc consts  --      0.0115                 0.0181                 0.0428
 IR Inten    --      0.3579                 0.7194                 2.6817

                      7                      8                      9
                      A                      A                      A
 Frequencies --    135.7552               143.2519               147.9819
 Red. masses --      3.7049                 5.1300                 6.9302
 Frc consts  --      0.0402                 0.0620                 0.0894
 IR Inten    --      1.6348                 1.1337                 0.2506

                     10                     11                     12
                      A                      A                      A
 Frequencies --    167.0821               215.5532               227.0349
 Red. masses --      5.2509                 5.5420                 6.5195
 Frc consts  --      0.0864                 0.1517                 0.1980
 IR Inten    --      1.1515                 0.2144                 0.7710

                     13                     14                     15
                      A                      A                      A
 Frequencies --    270.5415               330.3531               338.2452
 Red. masses --      6.5482                 7.0796                 8.8702
 Frc consts  --      0.2824                 0.4552                 0.5979
 IR Inten    --      0.5574                 2.0160                 2.3246

                     16                     17                     18
                      A                      A                      A
 Frequencies --    368.5902               420.8922               429.1470
 Red. masses --      5.2823                 3.2426                 4.3412
 Frc consts  --      0.4228                 0.3384                 0.4711
 IR Inten    --      1.5978                 1.2051                 4.4152

                     19                     20                     21
                      A                      A                      A
 Frequencies --    472.4440               507.3507               531.8607
 Red. masses --      3.9515                 6.4947                 7.0404
 Frc consts  --      0.5197                 0.9850                 1.1734
 IR Inten    --      2.6219                 6.9464                 6.2653

                     22                     23                     24
                      A                      A                      A
 Frequencies --    542.2096               606.9179               620.1718
 Red. masses --      3.4501                 4.4263                 1.4590
 Frc consts  --      0.5976                 0.9606                 0.3306
 IR Inten    --      3.1135                11.6324                60.1157

                     25                     26                     27
                      A                      A                      A
 Frequencies --    642.4501               657.0026               657.7037
 Red. masses --      4.8373                 2.9462                 3.8785
 Frc consts  --      1.1763                 0.7493                 0.9885
 IR Inten    --     40.9502                10.7824                19.2516

                     28                     29                     30
                      A                      A                      A
 Frequencies --    681.2897               712.1849               734.9623
 Red. masses --      3.9309                 4.7157                 4.4317
 Frc consts  --      1.0750                 1.4092                 1.4104
 IR Inten    --     12.1179                22.4367                22.9223

                     31                     32                     33
                      A                      A                      A
 Frequencies --    758.0962               789.1634               793.3370
 Red. masses --      4.9105                 1.0904                 1.5256
 Frc consts  --      1.6628                 0.4001                 0.5657
 IR Inten    --     12.4261                 0.2997                18.9451

                     34                     35                     36
                      A                      A                      A
 Frequencies --    803.0290               803.7629               820.8672
 Red. masses --      4.9049                 7.5537                 1.3169
 Frc consts  --      1.8636                 2.8752                 0.5228
 IR Inten    --     18.4239                 7.7827                 9.3854

                     37                     38                     39
                      A                      A                      A
 Frequencies --    864.7489               877.5539               912.1553
 Red. masses --      1.4039                 1.4911                 3.3773
 Frc consts  --      0.6185                 0.6766                 1.6556
 IR Inten    --     22.3412                 2.5832                12.7536

                     40                     41                     42
                      A                      A                      A
 Frequencies --    915.9813               962.2390               966.1320
 Red. masses --      7.2526                 3.7643                 1.4517
 Frc consts  --      3.5852                 2.0535                 0.7984
 IR Inten    --     44.4432                 6.3407                 8.3726

                     43                     44                     45
                      A                      A                      A
 Frequencies --    985.9733               990.3316              1011.2492
 Red. masses --      6.2960                 1.3633                 4.4925
 Frc consts  --      3.6062                 0.7878                 2.7068
 IR Inten    --     31.5309                 0.2131                37.4751

                     46                     47                     48
                      A                      A                      A
 Frequencies --   1073.3639              1077.8338              1092.9311
 Red. masses --      1.8126                 1.3470                 1.3309
 Frc consts  --      1.2304                 0.9220                 0.9367
 IR Inten    --      4.7792                 9.2429                 2.9853

                     49                     50                     51
                      A                      A                      A
 Frequencies --   1096.7156              1118.6754              1123.3211
 Red. masses --      2.3148                 1.1639                 1.6363
 Frc consts  --      1.6404                 0.8582                 1.2165
 IR Inten    --      2.8690                 1.2174                60.1269

                     52                     53                     54
                      A                      A                      A
 Frequencies --   1151.5406              1163.2398              1206.2502
 Red. masses --      4.4975                 1.6991                 1.6528
 Frc consts  --      3.5138                 1.3546                 1.4169
 IR Inten    --    203.1369                 2.2646                34.0811

                     55                     56                     57
                      A                      A                      A
 Frequencies --   1213.2583              1215.7694              1241.7330
 Red. masses --      1.3404                 1.8327                 1.8431
 Frc consts  --      1.1625                 1.5960                 1.6744
 IR Inten    --      3.1440                95.4094                 9.9591

                     58                     59                     60
                      A                      A                      A
 Frequencies --   1263.4387              1288.7871              1321.2369
 Red. masses --      1.9407                 1.4779                 5.3111
 Frc consts  --      1.8252                 1.4463                 5.4626
 IR Inten    --     10.1251                43.7665                 2.0067

                     61                     62                     63
                      A                      A                      A
 Frequencies --   1349.8551              1386.1648              1394.6422
 Red. masses --      4.1380                 3.2400                 5.6974
 Frc consts  --      4.4424                 3.6680                 6.5291
 IR Inten    --      3.2396                31.3064               486.8214

                     64                     65                     66
                      A                      A                      A
 Frequencies --   1397.3315              1410.2735              1437.7148
 Red. masses --      4.0333                 2.4985                 3.9140
 Frc consts  --      4.6399                 2.9277                 4.7667
 IR Inten    --    121.0067                12.8766                16.6590

                     67                     68                     69
                      A                      A                      A
 Frequencies --   1471.3170              1475.9016              1492.9360
 Red. masses --      5.3344                 1.0903                 1.8552
 Frc consts  --      6.8038                 1.3993                 2.4363
 IR Inten    --     23.5627                 3.2279                19.1301

                     70                     71                     72
                      A                      A                      A
 Frequencies --   1527.3026              1543.4121              1605.5398
 Red. masses --      2.4993                 2.6960                 7.4361
 Frc consts  --      3.4349                 3.7839                11.2938
 IR Inten    --     16.1190                50.5145                78.9401

                     73                     74                     75
                      A                      A                      A
 Frequencies --   1611.1843              1645.9025              1670.0921
 Red. masses --      6.2768                 7.5592                 8.8178
 Frc consts  --      9.6001                12.0652                14.4908
 IR Inten    --    134.6462               119.9222               135.7161

                     76                     77                     78
                      A                      A                      A
 Frequencies --   1821.9884              3160.7326              3161.8732
 Red. masses --     10.0483                 1.0519                 1.0580
 Frc consts  --     19.6532                 6.1917                 6.2322
 IR Inten    --    330.0220                10.8099                 9.4570

                     79                     80                     81
                      A                      A                      A
 Frequencies --   3205.0500              3211.8641              3246.7698
 Red. masses --      1.0910                 1.0900                 1.1196
 Frc consts  --      6.6029                 6.6248                 6.9535
 IR Inten    --      6.6311                 6.3780                 1.2086

                     82                     83                     84
                      A                      A                      A
 Frequencies --   3254.3593              3257.8236              3262.2789
 Red. masses --      1.0929                 1.1159                 1.0911
 Frc consts  --      6.8196                 6.9777                 6.8415
 IR Inten    --      1.1297                 9.4809                 7.5344

                     85                     86                     87
                      A                      A                      A
 Frequencies --   3265.5990              3276.4794              3685.1137
 Red. masses --      1.0965                 1.0976                 1.0639
 Frc consts  --      6.8894                 6.9423                 8.5127
 IR Inten    --      2.6520                 0.3182                70.2558

 - Thermochemistry -
 -------------------
 Temperature   298.150 Kelvin.  Pressure   1.00000 Atm.
 Atom     1 has atomic number  6 and mass  12.00000

 Molecular mass:   273.07496 amu.
 Principal axes and moments of inertia in atomic units:
                           1         2         3
     Eigenvalues --  2277.03210********************
           X            0.99997  -0.00700  -0.00129
           Y            0.00700   0.99997   0.00244
           Z            0.00127  -0.00244   1.00000
 This molecule is an asymmetric top.
 Rotational symmetry number  1.
 Warning -- assumption of classical behavior for rotation
           may cause significant error
 Rotational temperatures (Kelvin)      0.03804     0.00772     0.00662
 Rotational constants (GHZ):           0.79258     0.16078     0.13784
 Zero-point vibrational energy     610101.8 (Joules/Mol)
                                  145.81784 (Kcal/Mol)
 Warning -- explicit consideration of  24 degrees of freedom as
           vibrations may cause significant error
 Vibrational temperatures:     35.75    48.94    59.86    68.42    84.62
          (Kelvin)            145.37   195.32   206.11   212.91   240.39
                              310.13   326.65   389.25   475.30   486.66
                              530.32   605.57   617.45   679.74   729.96
                              765.23   780.12   873.22   892.29   924.34
                              945.28   946.29   980.22  1024.68  1057.45
                             1090.73  1135.43  1141.43  1155.38  1156.44
                             1181.04  1244.18  1262.60  1312.39  1317.89
                             1384.45  1390.05  1418.60  1424.87  1454.96
                             1544.33  1550.76  1572.48  1577.93  1609.52
                             1616.21  1656.81  1673.64  1735.53  1745.61
                             1749.22  1786.58  1817.81  1854.28  1900.97
                             1942.14  1994.38  2006.58  2010.45  2029.07
                             2068.55  2116.90  2123.49  2148.00  2197.45
                             2220.63  2310.01  2318.13  2368.09  2402.89
                             2621.43  4547.59  4549.23  4611.35  4621.16
                             4671.38  4682.30  4687.28  4693.69  4698.47
                             4714.12  5302.06

 Zero-point correction=                           0.232376 (Hartree/Particle)
 Thermal correction to Energy=                    0.249143
 Thermal correction to Enthalpy=                  0.250087
 Thermal correction to Gibbs Free Energy=         0.185033
 Sum of electronic and zero-point Energies=           -966.852088
 Sum of electronic and thermal Energies=              -966.835321
 Sum of electronic and thermal Enthalpies=            -966.834377
 Sum of electronic and thermal Free Energies=         -966.899431

                     E (Thermal)             CV                S
                      KCal/Mol        Cal/Mol-Kelvin    Cal/Mol-Kelvin
 Total                  156.339             63.057            136.918
 Electronic               0.000              0.000              0.000
 Translational            0.889              2.981             42.712
 Rotational               0.889              2.981             34.169
 Vibrational            154.562             57.096             60.036
 Vibration     1          0.593              1.985              6.203
 Vibration     2          0.594              1.983              5.580
 Vibration     3          0.594              1.981              5.181
 Vibration     4          0.595              1.979              4.917
 Vibration     5          0.596              1.974              4.497
 Vibration     6          0.604              1.948              3.434
 Vibration     7          0.614              1.918              2.863
 Vibration     8          0.616              1.910              2.760
 Vibration     9          0.617              1.905              2.698
 Vibration    10          0.624              1.883              2.468
 Vibration    11          0.645              1.817              1.996
 Vibration    12          0.651              1.800              1.902
 Vibration    13          0.674              1.727              1.593
 Vibration    14          0.713              1.615              1.258
 Vibration    15          0.719              1.599              1.220
 Vibration    16          0.741              1.537              1.086
 Vibration    17          0.783              1.425              0.889
 Vibration    18          0.790              1.407              0.861
 Vibration    19          0.829              1.311              0.731
 Vibration    20          0.863              1.234              0.640
 Vibration    21          0.887              1.180              0.583
 Vibration    22          0.897              1.157              0.561
 Vibration    23          0.966              1.017              0.438
 Vibration    24          0.980              0.989              0.416

                           ! Non-Optimized Parameters !
 Normal termination of Gaussian 16 at Mon Dec 14 17:57:46 2020.

 ----------------------------------------------------------------------
 # B3LYP/6-311++G(d,p) empiricaldispersion=gd3bj scf=xqc pop=npa geom=c
 heck
 ----------------------------------------------------------------------

 ----------------------------------------
 CID_135150742_JID_10610_Energie_neutraal
 ----------------------------------------
 Structure from the checkpoint file:  "JID_10610.chk"
 Charge =  0 Multiplicity = 1

 SCF Done:  E(RB3LYP) =  -967.355672336     A.U. after   16 cycles
 Normal termination of Gaussian 16 at Mon Dec 14 18:02:36 2020.

 ----------------------------------------------------------------------
 # B3LYP/6-311++G(d,p) empiricaldispersion=gd3bj scf=xqc pop=npa geom=c
 heck
 ----------------------------------------------------------------------

 --------------------------------------
 CID_135150742_JID_10610_Energie_kation
 --------------------------------------
 Structure from the checkpoint file:  "JID_10610.chk"
 Charge =  1 Multiplicity = 2

 SCF Done:  E(UB3LYP) =  -967.048908032     A.U. after   30 cycles
 Normal termination of Gaussian 16 at Mon Dec 14 18:14:25 2020.
 Gaussian 16:  ES64L-G16RevA.03 25-Dec-2016

 ----------------------------------------------------------------------
 # B3LYP/6-311++G(d,p) empiricaldispersion=gd3bj scf=xqc pop=npa geom=c
 heck
 ----------------------------------------------------------------------

 -------------------------------------
 CID_135150742_JID_10610_Energie_anion
 -------------------------------------
 Structure from the checkpoint file:  "JID_10610.chk"
 Charge = -1 Multiplicity = 2

                         Standard orientation:
 ---------------------------------------------------------------------
 Center     Atomic      Atomic             Coordinates (Angstroms)
 Number     Number       Type             X           Y           Z
 ---------------------------------------------------------------------
      1          6           0        5.682219   -0.128295   -0.595815
      2          6           0        5.638639   -1.044420    0.604332
      3          6           0        4.524151   -1.068600   -0.404820
      4          7           0        3.235917   -0.538461   -0.045351
      5          6           0        2.025365   -0.977890   -0.458217
      6          6           0        1.068478   -0.144122    0.115945
      7          6           0        1.838006    0.770810    0.880247
      8          7           0        3.140847    0.527741    0.785552
      9          6           0       -0.384790   -0.273375    0.010478
     10          6           0       -1.275473    0.828332   -0.021427
     11          6           0       -2.656619    0.619471    0.010090
     12          6           0       -3.157385   -0.674051    0.001568
     13          6           0       -2.310758   -1.781364   -0.014960
     14          6           0       -0.941527   -1.568536    0.006135
     15          7           0       -4.608545   -0.881099    0.009788
     16          8           0       -5.329597    0.115673    0.025821
     17          8           0       -5.016630   -2.043346   -0.001554
     18          6           0       -0.868674    2.262828   -0.129471
     19          8           0       -1.490035    3.180664    0.364124
     20          8           0        0.222976    2.458818   -0.902648
     21          1           0        6.380147   -0.340814   -1.400284
     22          1           0        5.477669    0.922444   -0.419404
     23          1           0        6.305612   -1.900641    0.642145
     24          1           0        5.405907   -0.589769    1.561399
     25          1           0        4.422686   -1.925051   -1.062300
     26          1           0        1.925340   -1.808411   -1.141967
     27          1           0        1.486574    1.575809    1.510816
     28          1           0       -3.331617    1.465299    0.018237
     29          1           0       -2.733389   -2.778114   -0.017035
     30          1           0       -0.271821   -2.420490    0.059394
     31          1           0        0.371857    3.423271   -0.911376
 ---------------------------------------------------------------------

 SCF Done:  E(UB3LYP) =  -967.405312829     A.U. after   23 cycles

 The electronic state is 2-A.
 Alpha  occ. eigenvalues --  -19.06632 -19.00064 -18.96593 -18.96458 -14.34728
 Alpha  occ. eigenvalues --  -14.30032 -14.23518 -10.19345 -10.15459 -10.11105
 Alpha  occ. eigenvalues --  -10.11075 -10.10676 -10.09145 -10.07232 -10.07231
 Alpha  occ. eigenvalues --  -10.06793 -10.06208 -10.05690 -10.05592 -10.04634
 Alpha  occ. eigenvalues --   -1.04495  -1.00527  -0.96247  -0.91157  -0.87363
 Alpha  occ. eigenvalues --   -0.81121  -0.75118  -0.73025  -0.69716  -0.65575
 Alpha  occ. eigenvalues --   -0.63968  -0.57276  -0.55381  -0.55197  -0.54361
 Alpha  occ. eigenvalues --   -0.49976  -0.48228  -0.46682  -0.45840  -0.45212
 Alpha  occ. eigenvalues --   -0.42430  -0.39791  -0.38388  -0.37910  -0.36605
 Alpha  occ. eigenvalues --   -0.36529  -0.36171  -0.35768  -0.35133  -0.33889
 Alpha  occ. eigenvalues --   -0.32836  -0.32008  -0.31370  -0.30688  -0.30218
 Alpha  occ. eigenvalues --   -0.29663  -0.26548  -0.26163  -0.24696  -0.24407
 Alpha  occ. eigenvalues --   -0.23584  -0.22061  -0.20540  -0.17806  -0.17093
 Alpha  occ. eigenvalues --   -0.16035  -0.15433  -0.14113  -0.13963  -0.12064
 Alpha  occ. eigenvalues --   -0.11608   0.01022
 Alpha virt. eigenvalues --    0.05052   0.06859   0.07131   0.07229   0.07816
 Alpha virt. eigenvalues --    0.08931   0.09105   0.10391   0.10754   0.11180
 Alpha virt. eigenvalues --    0.11720   0.12386   0.12750   0.13037   0.13288

  Beta  occ. eigenvalues --  -19.06627 -19.00007 -18.96240 -18.96018 -14.34268
  Beta  occ. eigenvalues --  -14.30001 -14.23543 -10.19303 -10.15460 -10.11104
  Beta  occ. eigenvalues --  -10.11072 -10.10572 -10.09092 -10.07283 -10.07125
  Beta  occ. eigenvalues --  -10.06810 -10.05820 -10.05687 -10.05665 -10.04400
  Beta  occ. eigenvalues --   -1.03674  -1.00480  -0.96198  -0.91080  -0.86619
  Beta  occ. eigenvalues --   -0.81112  -0.74788  -0.72976  -0.69457  -0.65215
  Beta  occ. eigenvalues --   -0.63666  -0.56919  -0.55032  -0.54926  -0.54355
  Beta  occ. eigenvalues --   -0.49719  -0.48151  -0.46646  -0.45566  -0.45118
  Beta  occ. eigenvalues --   -0.42365  -0.39411  -0.38262  -0.37800  -0.36452
  Beta  occ. eigenvalues --   -0.36009  -0.35544  -0.34862  -0.34125  -0.33509
  Beta  occ. eigenvalues --   -0.32768  -0.31743  -0.31314  -0.30670  -0.30060
  Beta  occ. eigenvalues --   -0.29596  -0.26377  -0.25790  -0.24569  -0.24035
  Beta  occ. eigenvalues --   -0.23468  -0.21832  -0.20485  -0.17691  -0.16402
  Beta  occ. eigenvalues --   -0.15671  -0.13826  -0.13592  -0.12271  -0.11656
  Beta  occ. eigenvalues --   -0.10752
  Beta virt. eigenvalues --    0.05043   0.06679   0.07121   0.07226   0.07754
  Beta virt. eigenvalues --    0.08190   0.09087   0.09414   0.10410   0.10826
  Beta virt. eigenvalues --    0.11656   0.11922   0.12660   0.12905   0.13102

 Mulliken charges and spin densities:
               1          2
     1  C   -0.326598   0.000481
     2  C   -0.298059   0.001594
     3  C   -0.218992  -0.000451
     4  N    0.463276   0.008319
     5  C   -0.405012   0.070714
     6  C    0.423659  -0.054984
     7  C   -0.676397   0.039761
     8  N   -0.205948  -0.015560
     9  C    0.340394   0.233489
    10  C    0.446509   0.000489
    11  C   -0.382469   0.034441
    12  C   -0.837817  -0.009547
    13  C    0.009728   0.248426
    14  C   -0.389766  -0.046315
    15  N   -0.229485   0.155006
    16  O   -0.152159   0.164015
    17  O   -0.159241   0.135823
    18  C    0.031090   0.032946
    19  O   -0.281252   0.019145
    20  O   -0.114960  -0.000965
    21  H    0.130611   0.000191
    22  H    0.180590  -0.000012
    23  H    0.127249   0.000255
    24  H    0.186424   0.000105
    25  H    0.185755   0.000267
    26  H    0.141256  -0.006681
    27  H    0.154125  -0.001949
    28  H    0.250241  -0.002601
    29  H    0.225326  -0.013609
    30  H    0.108037   0.007042
    31  H    0.273885   0.000165
 Sum of Mulliken charges =  -1.00000   1.00000

 Dipole moment (field-independent basis, Debye):
    X=             16.2874    Y=             -0.4660    Z=             -1.9768  Tot=             16.4136
 Quadrupole moment (field-independent basis, Debye-Ang):
   XX=           -212.9177   YY=           -130.5254   ZZ=           -121.1659
   XY=            -15.2947   XZ=             -4.1983   YZ=             -1.6372

 Summary of Natural Population Analysis:

                                       Natural Population
                Natural  -----------------------------------------------
    Atom  No    Charge         Core      Valence    Rydberg      Total
 -----------------------------------------------------------------------
      C    1   -0.20351      0.99964     2.19736    0.00651     3.20351
      C    2   -0.20342      0.99964     2.19721    0.00657     3.20342
      C    3   -0.00548      0.99958     1.99547    0.01043     3.00548
      N    4   -0.10573      0.99964     2.59195    0.01415     3.60573
      C    5    0.01955      0.99953     1.97193    0.00899     2.98045
      C    6   -0.07652      0.99953     2.06762    0.00937     3.07652
      C    7    0.01477      0.99960     1.97165    0.01398     2.98523
      N    8   -0.17493      0.99973     2.66307    0.01213     3.67493
      C    9    0.05622      0.99948     1.93574    0.00855     2.94378
      C   10   -0.08547      0.99943     2.07658    0.00946     3.08547
      C   11   -0.06710      0.99950     2.05780    0.00980     3.06710
      C   12    0.05079      0.99939     1.93850    0.01133     2.94921
      C   13   -0.04052      0.99953     2.03113    0.00986     3.04052
      C   14   -0.12011      0.99955     2.11275    0.00782     3.12011
      N   15    0.28745      0.99972     2.18538    0.02745     3.21255
      O   16   -0.18628      0.99990     3.17850    0.00788     4.18628
      O   17   -0.20237      0.99990     3.19456    0.00791     4.20237
      C   18    0.40258      0.99966     1.57268    0.02507     2.59742
      O   19   -0.31189      0.99987     3.30448    0.00754     4.31189
      O   20   -0.34180      0.99988     3.33530    0.00662     4.34180
      H   21    0.09888      0.00000     0.40009    0.00103     0.40112
      H   22    0.11477      0.00000     0.38413    0.00109     0.38523
      H   23    0.09891      0.00000     0.40006    0.00102     0.40109
      H   24    0.11529      0.00000     0.38363    0.00108     0.38471
      H   25    0.10422      0.00000     0.39476    0.00103     0.39578
      H   26    0.10102      0.00000     0.39792    0.00106     0.39898
      H   27    0.09814      0.00000     0.40088    0.00098     0.40186
      H   28    0.12310      0.00000     0.37549    0.00141     0.37690
      H   29    0.11140      0.00000     0.38735    0.00125     0.38860
      H   30    0.09405      0.00000     0.40446    0.00149     0.40595
      H   31    0.23400      0.00000     0.26316    0.00285     0.26600
 =======================================================================
   * Total *    0.00000     19.99270    50.77159    0.23572    71.00000

 Normal termination of Gaussian 16 at Mon Dec 14 18:23:41 2020.
