 Gaussian 16, Revision A.03,

 -----------------------------------------------------------
 # opt freq B3LYP/6-31G(d) empiricaldispersion=gd3bj scf=xqc
 -----------------------------------------------------------

 ------------------------------
 CID_22398216_JID_1537_neutraal
 ------------------------------
 Symbolic Z-matrix:
 Charge =  0 Multiplicity = 1

 SCF Done:  E(RB3LYP) =  -924.918434245     A.U. after   29 cycles
 SCF Done:  E(RB3LYP) =  -925.033327124     A.U. after   26 cycles
 SCF Done:  E(RB3LYP) =  -925.167312001     A.U. after   26 cycles
 SCF Done:  E(RB3LYP) =  -925.278208296     A.U. after   28 cycles
 SCF Done:  E(RB3LYP) =  -925.319749443     A.U. after   33 cycles
 SCF Done:  E(RB3LYP) =  -925.319749488     a.u. after    2 cycles
 SCF Done:  E(RB3LYP) =  -925.435386424     A.U. after   25 cycles
 SCF Done:  E(RB3LYP) =  -925.573971308     A.U. after   21 cycles
 SCF Done:  E(RB3LYP) =  -925.646580201     A.U. after   20 cycles
 SCF Done:  E(RB3LYP) =  -925.696401159     A.U. after   19 cycles
 SCF Done:  E(RB3LYP) =  -925.926073037     A.U. after    8 cycles
 SCF Done:  E(RB3LYP) =  -925.926073152     A.U. after    8 cycles
 SCF Done:  E(RB3LYP) =  -925.926073377     A.U. after    8 cycles
 SCF Done:  E(RB3LYP) =  -925.926073886     A.U. after    9 cycles
 SCF Done:  E(RB3LYP) =  -925.926074400     A.U. after    9 cycles
 SCF Done:  E(RB3LYP) =  -925.926074629     A.U. after    9 cycles
 Optimization completed.
    -- Stationary point found.
 Normal termination of Gaussian 16 at Tue Dec  8 22:02:41 2020.

 --------------------------------------------------------------------
 #N Geom=AllCheck Guess=TCheck SCRF=Check GenChk RB3LYP/6-31G(d) Freq
 --------------------------------------------------------------------

 Structure from the checkpoint file:  "JID_1537.chk"
 ------------------------------
 CID_22398216_JID_1537_neutraal
 ------------------------------
 Charge =  0 Multiplicity = 1

 SCF Done:  E(RB3LYP) =  -925.926074628     A.U. after    1 cycles

  Exact polarizability: 159.197   0.871  87.071  -3.693  -0.551  78.577
 Approx polarizability: 260.672  -8.333 148.791   3.280   0.424 141.173

                      1                      2                      3
                      A                      A                      A
 Frequencies --     26.1317                40.4358                89.9834
 Red. masses --      6.8688                 5.1601                 6.6302
 Frc consts  --      0.0028                 0.0050                 0.0316
 IR Inten    --      2.1248                 0.5834                 8.8520

                      4                      5                      6
                      A                      A                      A
 Frequencies --    127.3432               134.6829               165.8698
 Red. masses --      5.4266                 5.7001                 3.6691
 Frc consts  --      0.0518                 0.0609                 0.0595
 IR Inten    --     16.8719                11.6641                20.0387

                      7                      8                      9
                      A                      A                      A
 Frequencies --    194.3657               265.3558               269.3435
 Red. masses --      1.2845                 3.8354                 1.0441
 Frc consts  --      0.0286                 0.1591                 0.0446
 IR Inten    --     27.8902                43.7353                 0.8775

                     10                     11                     12
                      A                      A                      A
 Frequencies --    314.3369               349.9558               405.8032
 Red. masses --      2.9066                 4.1248                 4.5750
 Frc consts  --      0.1692                 0.2976                 0.4439
 IR Inten    --      9.7998                 3.1135                 7.5758

                     13                     14                     15
                      A                      A                      A
 Frequencies --    408.4836               412.5846               485.7001
 Red. masses --      2.5757                 3.3442                 1.3991
 Frc consts  --      0.2532                 0.3354                 0.1945
 IR Inten    --     28.1795                 2.2133                36.0227

                     16                     17                     18
                      A                      A                      A
 Frequencies --    533.2849               563.6400               584.1820
 Red. masses --      6.6393                 2.6936                 5.2318
 Frc consts  --      1.1125                 0.5042                 1.0520
 IR Inten    --     65.5394                 1.6429                59.0118

                     19                     20                     21
                      A                      A                      A
 Frequencies --    655.1724               669.1044               731.3054
 Red. masses --      6.1426                 4.6909                 1.8885
 Frc consts  --      1.5535                 1.2374                 0.5951
 IR Inten    --    296.2234                 5.1663                53.5400

                     22                     23                     24
                      A                      A                      A
 Frequencies --    752.2336               842.1320               868.1359
 Red. masses --      3.1173                 5.1897                 1.2943
 Frc consts  --      1.0393                 2.1685                 0.5747
 IR Inten    --     17.0113                 9.0830                13.8015

                     25                     26                     27
                      A                      A                      A
 Frequencies --    897.3270               915.9125               929.5605
 Red. masses --      1.2665                 1.4369                 3.8203
 Frc consts  --      0.6008                 0.7102                 1.9449
 IR Inten    --     14.8903                32.4679                 8.0043

                     28                     29                     30
                      A                      A                      A
 Frequencies --    972.3066               988.6426              1031.9703
 Red. masses --      2.6905                 8.0273                 2.0837
 Frc consts  --      1.4986                 4.6227                 1.3074
 IR Inten    --     22.3775               120.2956                 7.6410

                     31                     32                     33
                      A                      A                      A
 Frequencies --   1081.7050              1085.7662              1134.0505
 Red. masses --      1.5021                 2.1663                 1.3633
 Frc consts  --      1.0355                 1.5047                 1.0330
 IR Inten    --     86.3004                11.6257                18.6508

                     34                     35                     36
                      A                      A                      A
 Frequencies --   1175.4400              1180.1554              1202.6130
 Red. masses --      5.6776                 1.3510                 1.6287
 Frc consts  --      4.6218                 1.1087                 1.3878
 IR Inten    --    180.6604                17.9615                31.0176

                     37                     38                     39
                      A                      A                      A
 Frequencies --   1266.2991              1321.6715              1349.2993
 Red. masses --      1.3427                 1.6014                 1.8223
 Frc consts  --      1.2685                 1.6482                 1.9547
 IR Inten    --     15.4423                66.8885                 6.9241

                     40                     41                     42
                      A                      A                      A
 Frequencies --   1456.7704              1485.8005              1515.0135
 Red. masses --      1.1763                 1.1634                 1.0454
 Frc consts  --      1.4708                 1.5133                 1.4137
 IR Inten    --      1.2918                 5.9849                12.2810

                     43                     44                     45
                      A                      A                      A
 Frequencies --   1521.0035              1555.3665              1605.3855
 Red. masses --      1.1643                 6.2129                 1.1054
 Frc consts  --      1.5870                 8.8554                 1.6786
 IR Inten    --     20.1960               222.3893                18.0273

                     46                     47                     48
                      A                      A                      A
 Frequencies --   1667.5057              1748.2270              3039.5403
 Red. masses --      5.3605                 1.0666                 1.0754
 Frc consts  --      8.7820                 1.9206                 5.8536
 IR Inten    --      2.4244                21.7412               242.6375

                     49                     50                     51
                      A                      A                      A
 Frequencies --   3106.4995              3204.5406              3212.4689
 Red. masses --      1.0289                 1.1080                 1.1094
 Frc consts  --      5.8503                 6.7039                 6.7457
 IR Inten    --      7.2552                 2.4199                 3.2601

                     52                     53                     54
                      A                      A                      A
 Frequencies --   3271.8544              3291.7064              3316.3236
 Red. masses --      1.0949                 1.0921                 1.1083
 Frc consts  --      6.9059                 6.9721                 7.1814
 IR Inten    --      1.6528                 5.3809                 8.7576

                     55                     56                     57
                      A                      A                      A
 Frequencies --   3425.4895              3477.4272              3542.1431
 Red. masses --      1.0477                 1.0753                 1.0946
 Frc consts  --      7.2431                 7.6615                 8.0920
 IR Inten    --      0.6688                 8.4073                 6.6847

 - Thermochemistry -
 -------------------
 Temperature   298.150 Kelvin.  Pressure   1.00000 Atm.
 Atom     1 has atomic number  6 and mass  12.00000

 Molecular mass:   178.05245 amu.
 Principal axes and moments of inertia in atomic units:
                           1         2         3
     Eigenvalues --   902.482322882.082633041.78348
           X            0.99992   0.00118  -0.01251
           Y           -0.00139   0.99987  -0.01610
           Z            0.01249   0.01611   0.99979
 This molecule is an asymmetric top.
 Rotational symmetry number  1.
 Warning -- assumption of classical behavior for rotation
           may cause significant error
 Rotational temperatures (Kelvin)      0.09597     0.03005     0.02847
 Rotational constants (GHZ):           1.99975     0.62619     0.59332
 Zero-point vibrational energy     429850.3 (Joules/Mol)
                                  102.73668 (Kcal/Mol)
 Warning -- explicit consideration of  18 degrees of freedom as
           vibrations may cause significant error
 Vibrational temperatures:     37.60    58.18   129.47   183.22   193.78
          (Kelvin)            238.65   279.65   381.79   387.53   452.26
                              503.51   583.86   587.72   593.62   698.81
                              767.28   810.95   840.51   942.65   962.69
                             1052.19  1082.30  1211.64  1249.05  1291.05
                             1317.79  1337.43  1398.93  1422.44  1484.78
                             1556.33  1562.18  1631.65  1691.20  1697.98
                             1730.29  1821.92  1901.59  1941.34  2095.97
                             2137.74  2179.77  2188.38  2237.83  2309.79
                             2399.17  2515.31  4373.22  4469.56  4610.62
                             4622.03  4707.47  4736.03  4771.45  4928.52
                             5003.24  5096.35

 Zero-point correction=                           0.163721 (Hartree/Particle)
 Thermal correction to Energy=                    0.176003
 Thermal correction to Enthalpy=                  0.176947
 Thermal correction to Gibbs Free Energy=         0.124241
 Sum of electronic and zero-point Energies=           -925.762353
 Sum of electronic and thermal Energies=              -925.750072
 Sum of electronic and thermal Enthalpies=            -925.749128
 Sum of electronic and thermal Free Energies=         -925.801834

                     E (Thermal)             CV                S
                      KCal/Mol        Cal/Mol-Kelvin    Cal/Mol-Kelvin
 Total                  110.443             44.562            110.929
 Electronic               0.000              0.000              0.000
 Translational            0.889              2.981             41.438
 Rotational               0.889              2.981             30.449
 Vibrational            108.666             38.601             39.043
 Vibration     1          0.593              1.985              6.103
 Vibration     2          0.594              1.981              5.238
 Vibration     3          0.602              1.956              3.660
 Vibration     4          0.611              1.926              2.986
 Vibration     5          0.613              1.919              2.878
 Vibration     6          0.624              1.884              2.482
 Vibration     7          0.635              1.848              2.186
 Vibration     8          0.671              1.737              1.626
 Vibration     9          0.674              1.730              1.600
 Vibration    10          0.702              1.646              1.339
 Vibration    11          0.727              1.575              1.166
 Vibration    12          0.771              1.458              0.942
 Vibration    13          0.773              1.452              0.932
 Vibration    14          0.776              1.443              0.918
 Vibration    15          0.842              1.282              0.695
 Vibration    16          0.888              1.176              0.580
 Vibration    17          0.919              1.110              0.517
 Vibration    18          0.941              1.066              0.478

                           ! Non-Optimized Parameters !
 Normal termination of Gaussian 16 at Tue Dec  8 22:06:30 2020.

 ----------------------------------------------------------------------
 # B3LYP/6-311++G(d,p) empiricaldispersion=gd3bj scf=xqc pop=npa geom=c
 heck
 ----------------------------------------------------------------------

 --------------------------------------
 CID_22398216_JID_1537_Energie_neutraal
 --------------------------------------
 Structure from the checkpoint file:  "JID_1537.chk"
 Charge =  0 Multiplicity = 1

 SCF Done:  E(RB3LYP) =  -926.129261432     A.U. after   16 cycles
 Normal termination of Gaussian 16 at Tue Dec  8 22:07:55 2020.

 ----------------------------------------------------------------------
 # B3LYP/6-311++G(d,p) empiricaldispersion=gd3bj scf=xqc pop=npa geom=c
 heck
 ----------------------------------------------------------------------

 ------------------------------------
 CID_22398216_JID_1537_Energie_kation
 ------------------------------------
 Structure from the checkpoint file:  "JID_1537.chk"
 Charge =  1 Multiplicity = 2

 SCF Done:  E(UB3LYP) =  -925.850461128     A.U. after   23 cycles
 Normal termination of Gaussian 16 at Tue Dec  8 22:10:51 2020.
 Gaussian 16:  ES64L-G16RevA.03 25-Dec-2016

 ----------------------------------------------------------------------
 # B3LYP/6-311++G(d,p) empiricaldispersion=gd3bj scf=xqc pop=npa geom=c
 heck
 ----------------------------------------------------------------------

 -----------------------------------
 CID_22398216_JID_1537_Energie_anion
 -----------------------------------
 Structure from the checkpoint file:  "JID_1537.chk"
 Charge = -1 Multiplicity = 2

                         Standard orientation:
 ---------------------------------------------------------------------
 Center     Atomic      Atomic             Coordinates (Angstroms)
 Number     Number       Type             X           Y           Z
 ---------------------------------------------------------------------
      1          6           0       -3.430175    0.166183   -0.157467
      2         16           0        1.764987   -0.033215    0.040507
      3          8           0        1.167693    1.176255    0.746007
      4          8           0        2.563678   -0.961148    0.903739
      5          7           0        2.883478    0.774297   -1.044240
      6          6           0       -0.587947   -1.609113    0.188176
      7          6           0       -1.459288   -0.891154    0.899314
      8          7           0       -1.950102    0.208555    0.040443
      9          7           0       -1.313766    0.027373   -1.290645
     10          6           0       -0.488948   -0.969267   -1.126739
     11          7           0       -1.601177    1.482241    0.649243
     12          1           0       -3.903584    0.339655    0.808353
     13          1           0       -3.686710   -0.810557   -0.566432
     14          1           0       -3.690230    0.953089   -0.865582
     15          1           0        3.165959    1.629767   -0.559515
     16          1           0        3.704827    0.171700   -1.123072
     17          1           0        0.007931   -2.442266    0.531453
     18          1           0       -1.774646   -0.902259    1.930644
     19          1           0        0.069519   -1.340293   -1.975716
     20          1           0       -1.752840    2.159944   -0.102399
     21          1           0       -0.561853    1.424653    0.772879
 ---------------------------------------------------------------------

 SCF Done:  E(UB3LYP) =  -926.161470870     A.U. after   21 cycles

 The electronic state is 2-A.
 Alpha  occ. eigenvalues --  -88.80325 -18.92131 -18.91870 -14.33722 -14.20211
 Alpha  occ. eigenvalues --  -14.17405 -14.15737 -10.10461 -10.05852 -10.04932
 Alpha  occ. eigenvalues --  -10.02892  -7.87364  -5.83670  -5.83621  -5.82890
 Alpha  occ. eigenvalues --   -0.93723  -0.89193  -0.79359  -0.77008  -0.71378
 Alpha  occ. eigenvalues --   -0.68779  -0.64838  -0.57499  -0.47340  -0.46786
 Alpha  occ. eigenvalues --   -0.44108  -0.40547  -0.39308  -0.35725  -0.34264
 Alpha  occ. eigenvalues --   -0.33480  -0.31172  -0.30152  -0.30053  -0.27387
 Alpha  occ. eigenvalues --   -0.26888  -0.26478  -0.25163  -0.20609  -0.17591
 Alpha  occ. eigenvalues --   -0.16789  -0.15904  -0.13606  -0.12607  -0.11803
 Alpha  occ. eigenvalues --   -0.10634  -0.05490   0.03068
 Alpha virt. eigenvalues --    0.07701   0.10579   0.10623   0.10976   0.11702
 Alpha virt. eigenvalues --    0.12690   0.13311   0.13828   0.14658   0.15792
 Alpha virt. eigenvalues --    0.16852   0.17011   0.18412   0.18683   0.19421

  Beta  occ. eigenvalues --  -88.80281 -18.92114 -18.91860 -14.33790 -14.20061
  Beta  occ. eigenvalues --  -14.17033 -14.15680 -10.10373 -10.05505 -10.04442
  Beta  occ. eigenvalues --  -10.02726  -7.87315  -5.83636  -5.83586  -5.82809
  Beta  occ. eigenvalues --   -0.93417  -0.89134  -0.79314  -0.76441  -0.71266
  Beta  occ. eigenvalues --   -0.68430  -0.64068  -0.57087  -0.47007  -0.46210
  Beta  occ. eigenvalues --   -0.43758  -0.40132  -0.38957  -0.35534  -0.34182
  Beta  occ. eigenvalues --   -0.33195  -0.31016  -0.30000  -0.29855  -0.27137
  Beta  occ. eigenvalues --   -0.26571  -0.26109  -0.25005  -0.19160  -0.16779
  Beta  occ. eigenvalues --   -0.16657  -0.15476  -0.13128  -0.12087  -0.10754
  Beta  occ. eigenvalues --   -0.10211  -0.04856
  Beta virt. eigenvalues --    0.07596   0.09345   0.10555   0.10816   0.11094
  Beta virt. eigenvalues --    0.11855   0.12648   0.13333   0.13886   0.14619
  Beta virt. eigenvalues --    0.15852   0.17004   0.18116   0.18520   0.18807

 Mulliken charges and spin densities:
               1          2
     1  C   -0.207685  -0.041406
     2  S    0.168668   0.034443
     3  O   -0.551433   0.000960
     4  O   -0.386350   0.012234
     5  N   -0.539223  -0.009661
     6  C    0.106635   0.255877
     7  C   -0.528561   0.290796
     8  N    0.056869  -0.025692
     9  N   -0.159023   0.177512
    10  C   -0.415442   0.130704
    11  N   -0.390445   0.008873
    12  H    0.119854   0.043189
    13  H    0.167024   0.003794
    14  H    0.107438   0.040569
    15  H    0.222494   0.028214
    16  H    0.189513   0.009984
    17  H    0.153115   0.018101
    18  H    0.143736  -0.030321
    19  H    0.144940   0.006065
    20  H    0.189440   0.037983
    21  H    0.408433   0.007781
 Sum of Mulliken charges =  -1.00000   1.00000

 Dipole moment (field-independent basis, Debye):
    X=             -5.2752    Y=             -0.1261    Z=             -1.4345  Tot=              5.4682
 Quadrupole moment (field-independent basis, Debye-Ang):
   XX=            -95.5040   YY=            -86.3904   ZZ=            -91.3906
   XY=              0.1578   XZ=             -6.5370   YZ=              0.4637

 Summary of Natural Population Analysis:

                                       Natural Population
                Natural  -----------------------------------------------
    Atom  No    Charge         Core      Valence    Rydberg      Total
 -----------------------------------------------------------------------
      C    1   -0.15228      0.99963     2.14504    0.00761     3.15228
      S    2    0.82049      4.99962     2.08580    0.09409     7.17951
      O    3   -0.52398      0.99992     3.51669    0.00737     4.52398
      O    4   -0.50640      0.99992     3.50023    0.00625     4.50640
      N    5   -0.52305      0.99980     3.01125    0.01200     4.02305
      C    6   -0.11073      0.99951     2.09920    0.01202     3.11073
      C    7    0.07700      0.99949     1.91141    0.01210     2.92300
      N    8   -0.04548      0.99972     2.53371    0.01205     3.54548
      N    9   -0.14500      0.99972     2.63228    0.01300     3.64500
      C   10    0.08433      0.99966     1.89485    0.02116     2.91567
      N   11   -0.31320      0.99976     2.80110    0.01235     3.81320
      H   12    0.09901      0.00000     0.39968    0.00131     0.40099
      H   13    0.10467      0.00000     0.39439    0.00094     0.39533
      H   14    0.09990      0.00000     0.39933    0.00077     0.40010
      H   15    0.17134      0.00000     0.32229    0.00636     0.32866
      H   16    0.17015      0.00000     0.32520    0.00465     0.32985
      H   17    0.11326      0.00000     0.38561    0.00114     0.38674
      H   18    0.09865      0.00000     0.40055    0.00080     0.40135
      H   19    0.09784      0.00000     0.40091    0.00125     0.40216
      H   20    0.16985      0.00000     0.32891    0.00124     0.33015
      H   21    0.21362      0.00000     0.28385    0.00253     0.28638
 =======================================================================
   * Total *    0.00000     14.99673    31.77229    0.23098    47.00000

 Normal termination of Gaussian 16 at Tue Dec  8 22:13:54 2020.
