 Gaussian 16, Revision A.03,

 -----------------------------------------------------------
 # opt freq B3LYP/6-31G(d) empiricaldispersion=gd3bj scf=xqc
 -----------------------------------------------------------

 ------------------------------
 CID_65643593_JID_7728_neutraal
 ------------------------------
 Symbolic Z-matrix:
 Charge =  0 Multiplicity = 1

 SCF Done:  E(RB3LYP) =  -1120.09824250     A.U. after   15 cycles
 SCF Done:  E(RB3LYP) =  -1120.10716317     A.U. after   13 cycles
 SCF Done:  E(RB3LYP) =  -1120.11207677     A.U. after   14 cycles
 SCF Done:  E(RB3LYP) =  -1120.11489589     A.U. after   14 cycles
 SCF Done:  E(RB3LYP) =  -1120.11559507     A.U. after   12 cycles
 SCF Done:  E(RB3LYP) =  -1120.11586486     A.U. after   12 cycles
 SCF Done:  E(RB3LYP) =  -1120.11606039     A.U. after   11 cycles
 SCF Done:  E(RB3LYP) =  -1120.11634102     A.U. after   12 cycles
 SCF Done:  E(RB3LYP) =  -1120.11654140     A.U. after   11 cycles
 SCF Done:  E(RB3LYP) =  -1120.11662627     A.U. after   11 cycles
 SCF Done:  E(RB3LYP) =  -1120.11669633     A.U. after    9 cycles
 SCF Done:  E(RB3LYP) =  -1120.11669678     A.U. after    7 cycles
 SCF Done:  E(RB3LYP) =  -1120.11669690     A.U. after    8 cycles
 SCF Done:  E(RB3LYP) =  -1120.11669722     A.U. after    8 cycles
 SCF Done:  E(RB3LYP) =  -1120.11669732     A.U. after    7 cycles
 SCF Done:  E(RB3LYP) =  -1120.11669738     A.U. after    7 cycles
 Optimization completed.
    -- Stationary point found.
 Normal termination of Gaussian 16 at Fri Dec 11 13:12:26 2020.

 --------------------------------------------------------------------
 #N Geom=AllCheck Guess=TCheck SCRF=Check GenChk RB3LYP/6-31G(d) Freq
 --------------------------------------------------------------------

 Structure from the checkpoint file:  "JID_7728.chk"
 ------------------------------
 CID_65643593_JID_7728_neutraal
 ------------------------------
 Charge =  0 Multiplicity = 1

 SCF Done:  E(RB3LYP) =  -1120.11669738     A.U. after    1 cycles

  Exact polarizability: 250.999 -16.514 184.043   4.263   5.613  83.600
 Approx polarizability: 342.366 -14.101 303.010   8.165  15.862 128.814

                      1                      2                      3
                      A                      A                      A
 Frequencies --     32.5759                45.3527                54.9101
 Red. masses --      3.7079                 3.2364                 4.2035
 Frc consts  --      0.0023                 0.0039                 0.0075
 IR Inten    --      0.4627                 1.6238                 0.7097

                      4                      5                      6
                      A                      A                      A
 Frequencies --     65.9620                85.6050                94.6795
 Red. masses --      4.4145                 3.7820                 1.1051
 Frc consts  --      0.0113                 0.0163                 0.0058
 IR Inten    --      2.0048                 1.0119                 0.0966

                      7                      8                      9
                      A                      A                      A
 Frequencies --    134.4086               153.3923               177.3186
 Red. masses --      4.0604                 2.2567                 5.2299
 Frc consts  --      0.0432                 0.0313                 0.0969
 IR Inten    --      1.1454                 0.5155                 0.3222

                     10                     11                     12
                      A                      A                      A
 Frequencies --    198.2267               217.3135               229.1718
 Red. masses --      7.1051                 1.5449                 6.6470
 Frc consts  --      0.1645                 0.0430                 0.2057
 IR Inten    --      2.3932                 0.5360                 1.2191

                     13                     14                     15
                      A                      A                      A
 Frequencies --    263.4791               270.6059               296.6634
 Red. masses --      4.2416                 3.6390                 1.3324
 Frc consts  --      0.1735                 0.1570                 0.0691
 IR Inten    --      0.4470                 0.2846               283.9275

                     16                     17                     18
                      A                      A                      A
 Frequencies --    302.1700               308.8492               366.6098
 Red. masses --      2.0599                 3.5967                 3.6162
 Frc consts  --      0.1108                 0.2021                 0.2864
 IR Inten    --      7.8984                26.1472                 0.4711

                     19                     20                     21
                      A                      A                      A
 Frequencies --    404.5458               444.9971               492.5803
 Red. masses --      3.6937                 2.6330                 5.4285
 Frc consts  --      0.3562                 0.3072                 0.7760
 IR Inten    --      8.8480                 2.2395                 8.8062

                     22                     23                     24
                      A                      A                      A
 Frequencies --    540.6055               572.1798               580.1985
 Red. masses --      1.2089                 3.8764                 3.1196
 Frc consts  --      0.2082                 0.7477                 0.6187
 IR Inten    --      3.9953                 0.6158                 0.2532

                     25                     26                     27
                      A                      A                      A
 Frequencies --    600.6755               614.2293               677.4839
 Red. masses --      5.3583                 6.2847                 5.4052
 Frc consts  --      1.1391                 1.3970                 1.4617
 IR Inten    --     11.6995                 3.3331                 0.4647

                     28                     29                     30
                      A                      A                      A
 Frequencies --    699.8240               727.9258               744.2193
 Red. masses --      5.6577                 7.7446                11.1209
 Frc consts  --      1.6325                 2.4178                 3.6290
 IR Inten    --      6.0457                 0.3247                 0.1907

                     31                     32                     33
                      A                      A                      A
 Frequencies --    758.8536               784.0563               820.0749
 Red. masses --      6.6385                 1.4415                 1.5252
 Frc consts  --      2.2523                 0.5221                 0.6043
 IR Inten    --      1.7987                 3.9304                59.9031

                     34                     35                     36
                      A                      A                      A
 Frequencies --    835.7844               868.0945               897.2619
 Red. masses --      4.2903                 4.3467                 2.5299
 Frc consts  --      1.7657                 1.9299                 1.2000
 IR Inten    --     11.9047                 6.8743                 1.8056

                     37                     38                     39
                      A                      A                      A
 Frequencies --    915.8989               931.3735               978.2971
 Red. masses --      1.4256                 1.2656                 2.4366
 Frc consts  --      0.7046                 0.6468                 1.3740
 IR Inten    --      0.0965                 4.4067                26.2135

                     40                     41                     42
                      A                      A                      A
 Frequencies --    996.6910              1007.4251              1055.0838
 Red. masses --      5.7819                 2.2006                 1.8418
 Frc consts  --      3.3841                 1.3159                 1.2080
 IR Inten    --      1.7155                30.7665                28.8960

                     43                     44                     45
                      A                      A                      A
 Frequencies --   1069.7120              1079.9324              1092.8470
 Red. masses --      1.4120                 1.3937                 2.3255
 Frc consts  --      0.9520                 0.9576                 1.6364
 IR Inten    --      1.5494                37.5913                55.8158

                     46                     47                     48
                      A                      A                      A
 Frequencies --   1133.4276              1153.2933              1187.9584
 Red. masses --      2.6461                 3.4829                 1.8865
 Frc consts  --      2.0028                 2.7294                 1.5686
 IR Inten    --     35.7152                45.0325                 0.7640

                     49                     50                     51
                      A                      A                      A
 Frequencies --   1193.2972              1201.8670              1254.3636
 Red. masses --      4.0175                 4.6856                 1.4978
 Frc consts  --      3.3706                 3.9878                 1.3886
 IR Inten    --     28.9774                41.2950                31.9684

                     52                     53                     54
                      A                      A                      A
 Frequencies --   1282.7934              1297.9125              1321.2331
 Red. masses --      1.1522                 7.0432                 1.1838
 Frc consts  --      1.1171                 6.9905                 1.2175
 IR Inten    --      2.2886                11.2735                 0.3691

                     55                     56                     57
                      A                      A                      A
 Frequencies --   1371.3320              1384.2001              1412.2761
 Red. masses --      2.8796                 1.5884                 1.6846
 Frc consts  --      3.1905                 1.7931                 1.9797
 IR Inten    --     76.6645               313.6831               170.1551

                     58                     59                     60
                      A                      A                      A
 Frequencies --   1437.9211              1441.4479              1445.5353
 Red. masses --      2.2529                 1.4153                 1.7961
 Frc consts  --      2.7445                 1.7326                 2.2113
 IR Inten    --    223.2445                41.6246                33.0290

                     61                     62                     63
                      A                      A                      A
 Frequencies --   1471.8501              1508.0670              1508.5595
 Red. masses --      2.9655                 1.0426                 2.0501
 Frc consts  --      3.7851                 1.3971                 2.7489
 IR Inten    --    264.3315                 7.6702               256.9687

                     64                     65                     66
                      A                      A                      A
 Frequencies --   1510.1287              1521.6089              1526.1807
 Red. masses --      1.1714                 1.2837                 1.1321
 Frc consts  --      1.5739                 1.7511                 1.5536
 IR Inten    --     42.5236                85.8649                22.8460

                     67                     68                     69
                      A                      A                      A
 Frequencies --   1537.7532              1540.8064              1553.6475
 Red. masses --      1.2374                 1.0622                 2.7767
 Frc consts  --      1.7240                 1.4858                 3.9490
 IR Inten    --     84.1333                 9.2777               137.0939

                     70                     71                     72
                      A                      A                      A
 Frequencies --   1589.0277              1608.0958              1618.4038
 Red. masses --      6.6549                 7.7253                 4.4280
 Frc consts  --      9.9004                11.7703                 6.8333
 IR Inten    --    528.1439               847.0082                14.2963

                     73                     74                     75
                      A                      A                      A
 Frequencies --   1674.2875              3046.7100              3046.9772
 Red. masses --      2.0002                 1.0368                 1.0609
 Frc consts  --      3.3035                 5.6703                 5.8031
 IR Inten    --    463.9002                41.9364                19.8678

                     76                     77                     78
                      A                      A                      A
 Frequencies --   3051.2920              3063.3577              3084.4397
 Red. masses --      1.0389                 1.0606                 1.0979
 Frc consts  --      5.6990                 5.8642                 6.1539
 IR Inten    --     25.3186                16.3350                21.9524

                     79                     80                     81
                      A                      A                      A
 Frequencies --   3099.1206              3109.7034              3117.4348
 Red. masses --      1.1015                 1.1072                 1.1024
 Frc consts  --      6.2331                 6.3083                 6.3122
 IR Inten    --     14.1574                24.1592                55.8996

                     82                     83                     84
                      A                      A                      A
 Frequencies --   3130.7864              3139.5586              3213.5434
 Red. masses --      1.1011                 1.1019                 1.0916
 Frc consts  --      6.3592                 6.3992                 6.6418
 IR Inten    --     13.4220                31.8810                16.6562

                     85                     86                     87
                      A                      A                      A
 Frequencies --   3249.4289              3611.8479              3738.5888
 Red. masses --      1.0947                 1.0449                 1.1049
 Frc consts  --      6.8102                 8.0309                 9.0990
 IR Inten    --      1.2878                86.9918                43.8994

 - Thermochemistry -
 -------------------
 Temperature   298.150 Kelvin.  Pressure   1.00000 Atm.
 Atom     1 has atomic number  6 and mass  12.00000

 Molecular mass:   250.08883 amu.
 Principal axes and moments of inertia in atomic units:
                           1         2         3
     Eigenvalues --  2589.215078305.69789**********
           X            0.99993   0.01160  -0.00162
           Y           -0.01161   0.99991  -0.00610
           Z            0.00155   0.00611   0.99998
 This molecule is an asymmetric top.
 Rotational symmetry number  1.
 Warning -- assumption of classical behavior for rotation
           may cause significant error
 Rotational temperatures (Kelvin)      0.03345     0.01043     0.00808
 Rotational constants (GHZ):           0.69702     0.21729     0.16835
 Zero-point vibrational energy     651236.3 (Joules/Mol)
                                  155.64922 (Kcal/Mol)
 Warning -- explicit consideration of  26 degrees of freedom as
           vibrations may cause significant error
 Vibrational temperatures:     46.87    65.25    79.00    94.90   123.17
          (Kelvin)            136.22   193.38   220.70   255.12   285.20
                              312.67   329.73   379.09   389.34   426.83
                              434.76   444.37   527.47   582.05   640.25
                              708.71   777.81   823.24   834.78   864.24
                              883.74   974.75  1006.89  1047.32  1070.77
                             1091.82  1128.08  1179.90  1202.51  1248.99
                             1290.96  1317.77  1340.04  1407.55  1434.02
                             1449.46  1518.03  1539.08  1553.78  1572.36
                             1630.75  1659.33  1709.21  1716.89  1729.22
                             1804.75  1845.65  1867.41  1900.96  1973.04
                             1991.56  2031.95  2068.85  2073.92  2079.80
                             2117.66  2169.77  2170.48  2172.74  2189.26
                             2195.83  2212.48  2216.88  2235.35  2286.26
                             2313.69  2328.52  2408.93  4383.54  4383.92
                             4390.13  4407.49  4437.82  4458.94  4474.17
                             4485.29  4504.50  4517.12  4623.57  4675.20
                             5196.64  5379.00

 Zero-point correction=                           0.248043 (Hartree/Particle)
 Thermal correction to Energy=                    0.264845
 Thermal correction to Enthalpy=                  0.265789
 Thermal correction to Gibbs Free Energy=         0.202062
 Sum of electronic and zero-point Energies=          -1119.868655
 Sum of electronic and thermal Energies=             -1119.851852
 Sum of electronic and thermal Enthalpies=           -1119.850908
 Sum of electronic and thermal Free Energies=        -1119.914635

                     E (Thermal)             CV                S
                      KCal/Mol        Cal/Mol-Kelvin    Cal/Mol-Kelvin
 Total                  166.193             61.745            134.125
 Electronic               0.000              0.000              0.000
 Translational            0.889              2.981             42.450
 Rotational               0.889              2.981             33.799
 Vibrational            164.415             55.783             57.875
 Vibration     1          0.594              1.983              5.666
 Vibration     2          0.595              1.979              5.010
 Vibration     3          0.596              1.976              4.632
 Vibration     4          0.597              1.971              4.270
 Vibration     5          0.601              1.959              3.758
 Vibration     6          0.603              1.953              3.561
 Vibration     7          0.613              1.919              2.882
 Vibration     8          0.619              1.899              2.630
 Vibration     9          0.628              1.870              2.356
 Vibration    10          0.637              1.842              2.149
 Vibration    11          0.646              1.815              1.981
 Vibration    12          0.652              1.796              1.885
 Vibration    13          0.670              1.740              1.639
 Vibration    14          0.674              1.727              1.592
 Vibration    15          0.690              1.680              1.436
 Vibration    16          0.694              1.670              1.405
 Vibration    17          0.698              1.657              1.368
 Vibration    18          0.740              1.541              1.094
 Vibration    19          0.770              1.460              0.946
 Vibration    20          0.804              1.372              0.811
 Vibration    21          0.848              1.266              0.677
 Vibration    22          0.896              1.160              0.564
 Vibration    23          0.928              1.091              0.500
 Vibration    24          0.937              1.074              0.485
 Vibration    25          0.959              1.030              0.448
 Vibration    26          0.974              1.002              0.426

 Optimization completed.
    -- Stationary point found.
 Normal termination of Gaussian 16 at Fri Dec 11 13:21:35 2020.

 ----------------------------------------------------------------------
 # B3LYP/6-311++G(d,p) empiricaldispersion=gd3bj scf=xqc pop=npa geom=c
 heck
 ----------------------------------------------------------------------

 --------------------------------------
 CID_65643593_JID_7728_Energie_neutraal
 --------------------------------------
 Structure from the checkpoint file:  "JID_7728.chk"
 Charge =  0 Multiplicity = 1

 SCF Done:  E(RB3LYP) =  -1120.34210389     A.U. after   15 cycles
 Normal termination of Gaussian 16 at Fri Dec 11 13:26:10 2020.

 ----------------------------------------------------------------------
 # B3LYP/6-311++G(d,p) empiricaldispersion=gd3bj scf=xqc pop=npa geom=c
 heck
 ----------------------------------------------------------------------

 ------------------------------------
 CID_65643593_JID_7728_Energie_kation
 ------------------------------------
 Structure from the checkpoint file:  "JID_7728.chk"
 Charge =  1 Multiplicity = 2

 SCF Done:  E(UB3LYP) =  -1120.05063559     A.U. after   28 cycles
 Normal termination of Gaussian 16 at Fri Dec 11 13:38:19 2020.
 Gaussian 16:  ES64L-G16RevA.03 25-Dec-2016

 ----------------------------------------------------------------------
 # B3LYP/6-311++G(d,p) empiricaldispersion=gd3bj scf=xqc pop=npa geom=c
 heck
 ----------------------------------------------------------------------

 -----------------------------------
 CID_65643593_JID_7728_Energie_anion
 -----------------------------------
 Structure from the checkpoint file:  "JID_7728.chk"
 Charge = -1 Multiplicity = 2

                         Standard orientation:
 ---------------------------------------------------------------------
 Center     Atomic      Atomic             Coordinates (Angstroms)
 Number     Number       Type             X           Y           Z
 ---------------------------------------------------------------------
      1          6           0       -4.544277   -2.614197    0.828807
      2          6           0       -4.742453   -1.705332   -0.386653
      3          6           0       -3.942218   -0.415744   -0.304091
      4          8           0       -2.548347   -0.781706   -0.285561
      5          6           0       -1.645892    0.192556   -0.155306
      6          7           0       -0.377506   -0.231721   -0.130120
      7          6           0        0.527717    0.751913   -0.004730
      8          7           0        0.249756    2.063385    0.094343
      9          6           0       -1.060433    2.349742    0.061272
     10          7           0       -2.062950    1.455522   -0.068148
     11          7           0       -1.416621    3.652549    0.190850
     12          6           0        1.927903    0.361692    0.024168
     13          6           0        3.032242    1.172081    0.148751
     14          6           0        4.252532    0.446667    0.138978
     15          6           0        4.078030   -0.911364    0.007574
     16         16           0        2.387857   -1.319933   -0.107219
     17          6           0        5.135442   -1.971407   -0.039639
     18          1           0       -3.492090   -2.894227    0.933696
     19          1           0       -5.135833   -3.531056    0.735525
     20          1           0       -4.851830   -2.107698    1.751945
     21          1           0       -4.462610   -2.235964   -1.305038
     22          1           0       -5.800689   -1.431009   -0.488935
     23          1           0       -4.128773    0.238725   -1.161962
     24          1           0       -4.176209    0.149625    0.604622
     25          1           0       -2.370340    3.906275   -0.015756
     26          1           0       -0.691847    4.348682    0.107818
     27          1           0        2.945282    2.247395    0.243290
     28          1           0        5.231780    0.905951    0.226207
     29          1           0        5.023375   -2.693996    0.777535
     30          1           0        5.105149   -2.534256   -0.980262
     31          1           0        6.125382   -1.513672    0.048039
 ---------------------------------------------------------------------

 SCF Done:  E(UB3LYP) =  -1120.35031666     A.U. after   28 cycles

 The electronic state is 2-A.
 Alpha  occ. eigenvalues --  -88.70748 -19.03318 -14.20776 -14.15514 -14.14449
 Alpha  occ. eigenvalues --  -14.14115 -10.14755 -10.13483 -10.11852 -10.08271
 Alpha  occ. eigenvalues --  -10.07283 -10.07057 -10.05285 -10.04106 -10.02874
 Alpha  occ. eigenvalues --  -10.02222 -10.00635  -7.79396  -5.75688  -5.75334
 Alpha  occ. eigenvalues --   -5.75001  -0.96566  -0.86791  -0.79900  -0.74593
 Alpha  occ. eigenvalues --   -0.72082  -0.71744  -0.69225  -0.62642  -0.60118
 Alpha  occ. eigenvalues --   -0.57833  -0.55637  -0.52224  -0.51078  -0.48566
 Alpha  occ. eigenvalues --   -0.44097  -0.43802  -0.39321  -0.38348  -0.37739
 Alpha  occ. eigenvalues --   -0.36652  -0.36324  -0.33644  -0.33573  -0.32981
 Alpha  occ. eigenvalues --   -0.31239  -0.30194  -0.29440  -0.28014  -0.26931
 Alpha  occ. eigenvalues --   -0.26158  -0.25313  -0.24020  -0.23494  -0.23060
 Alpha  occ. eigenvalues --   -0.23006  -0.22593  -0.21733  -0.19010  -0.18548
 Alpha  occ. eigenvalues --   -0.15064  -0.12342  -0.11648  -0.11456  -0.10106
 Alpha  occ. eigenvalues --   -0.07760   0.04702
 Alpha virt. eigenvalues --    0.06632   0.07888   0.08415   0.08793   0.09478
 Alpha virt. eigenvalues --    0.10441   0.10941   0.11486   0.11951   0.12218
 Alpha virt. eigenvalues --    0.12575   0.13392   0.13674   0.14076   0.14809

  Beta  occ. eigenvalues --  -88.70701 -19.03294 -14.20766 -14.15301 -14.14375
  Beta  occ. eigenvalues --  -14.14044 -10.14701 -10.13436 -10.11853 -10.08271
  Beta  occ. eigenvalues --  -10.07283 -10.06604 -10.05317 -10.03710 -10.02852
  Beta  occ. eigenvalues --  -10.02353 -10.00340  -7.79354  -5.75670  -5.75315
  Beta  occ. eigenvalues --   -5.74843  -0.96489  -0.86536  -0.79700  -0.74172
  Beta  occ. eigenvalues --   -0.71808  -0.71468  -0.69176  -0.62287  -0.60053
  Beta  occ. eigenvalues --   -0.57589  -0.55207  -0.52162  -0.50936  -0.48292
  Beta  occ. eigenvalues --   -0.43881  -0.43704  -0.39003  -0.38271  -0.37534
  Beta  occ. eigenvalues --   -0.36541  -0.36219  -0.33521  -0.33403  -0.32839
  Beta  occ. eigenvalues --   -0.30729  -0.29796  -0.29325  -0.27863  -0.26860
  Beta  occ. eigenvalues --   -0.26100  -0.25159  -0.23678  -0.23325  -0.22959
  Beta  occ. eigenvalues --   -0.22323  -0.22041  -0.21542  -0.18313  -0.18048
  Beta  occ. eigenvalues --   -0.14142  -0.12123  -0.11338  -0.10953  -0.09264
  Beta  occ. eigenvalues --   -0.06237
  Beta virt. eigenvalues --    0.06597   0.07859   0.08352   0.08742   0.09438
  Beta virt. eigenvalues --    0.10304   0.10416   0.10906   0.11444   0.12200
  Beta virt. eigenvalues --    0.12398   0.12545   0.13396   0.13857   0.14045

 Mulliken charges and spin densities:
               1          2
     1  C   -0.456059  -0.020222
     2  C   -0.411042   0.006776
     3  C    0.158590  -0.000678
     4  O   -0.020163   0.003231
     5  C    0.440243   0.023214
     6  N   -0.195885   0.026072
     7  C   -0.801569   0.270735
     8  N   -0.176620   0.027059
     9  C    0.214716   0.028058
    10  N   -0.288542   0.111488
    11  N   -0.317272   0.005303
    12  C    0.246790  -0.048762
    13  C   -0.012149   0.294088
    14  C    0.070129  -0.066028
    15  C   -0.301555   0.205386
    16  S   -0.486210   0.099557
    17  C   -0.724444  -0.047863
    18  H    0.175450   0.006016
    19  H    0.112186   0.004061
    20  H    0.104555   0.004516
    21  H    0.137378   0.000817
    22  H    0.126065   0.001332
    23  H    0.166713   0.003588
    24  H    0.176535  -0.001831
    25  H    0.234335   0.007813
    26  H    0.258644  -0.001967
    27  H    0.123736  -0.016069
    28  H    0.108743   0.005506
    29  H    0.106146   0.034860
    30  H    0.107131   0.033664
    31  H    0.123426   0.000280
 Sum of Mulliken charges =  -1.00000   1.00000

 Dipole moment (field-independent basis, Debye):
    X=             -5.7514    Y=              0.7391    Z=             -0.3548  Tot=              5.8095
 Quadrupole moment (field-independent basis, Debye-Ang):
   XX=           -140.7681   YY=           -119.5664   ZZ=           -118.3631
   XY=              0.4916   XZ=              1.1331   YZ=             -1.8521

 Summary of Natural Population Analysis:

                                       Natural Population
                Natural  -----------------------------------------------
    Atom  No    Charge         Core      Valence    Rydberg      Total
 -----------------------------------------------------------------------
      C    1   -0.28902      0.99967     2.28456    0.00478     3.28902
      C    2   -0.20127      0.99966     2.19433    0.00729     3.20127
      C    3   -0.00342      0.99949     1.99471    0.00922     3.00342
      O    4   -0.27757      0.99983     3.26501    0.01273     4.27757
      C    5    0.38109      0.99956     1.60031    0.01903     2.61891
      N    6   -0.28418      0.99965     2.77272    0.01181     3.78418
      C    7    0.29277      0.99941     1.69125    0.01657     2.70723
      N    8   -0.29113      0.99965     2.78063    0.01086     3.79113
      C    9    0.30890      0.99967     1.67362    0.01781     2.69110
      N   10   -0.31527      0.99963     2.80411    0.01153     3.81527
      N   11   -0.39799      0.99969     2.88939    0.00891     3.89799
      C   12   -0.12640      0.99946     2.11298    0.01395     3.12640
      C   13   -0.04887      0.99950     2.03985    0.00952     3.04887
      C   14   -0.17329      0.99948     2.16392    0.00989     3.17329
      C   15   -0.03288      0.99952     2.02129    0.01207     3.03288
      S   16    0.22079      4.99938     2.75958    0.02024     7.77921
      C   17   -0.29870      0.99962     2.29405    0.00503     3.29870
      H   18    0.10961      0.00000     0.38945    0.00094     0.39039
      H   19    0.09217      0.00000     0.40699    0.00084     0.40783
      H   20    0.09311      0.00000     0.40594    0.00095     0.40689
      H   21    0.09691      0.00000     0.40179    0.00130     0.40309
      H   22    0.09062      0.00000     0.40825    0.00113     0.40938
      H   23    0.08894      0.00000     0.40951    0.00155     0.41106
      H   24    0.08760      0.00000     0.41080    0.00160     0.41240
      H   25    0.18935      0.00000     0.30943    0.00122     0.31065
      H   26    0.19262      0.00000     0.30622    0.00116     0.30738
      H   27    0.10382      0.00000     0.39536    0.00081     0.39618
      H   28    0.09279      0.00000     0.40606    0.00115     0.40721
      H   29    0.10091      0.00000     0.39800    0.00109     0.39909
      H   30    0.10083      0.00000     0.39808    0.00109     0.39917
      H   31    0.09733      0.00000     0.40172    0.00096     0.40267
 =======================================================================
   * Total *    0.00019     20.99287    44.78990    0.21704    65.99981

 Normal termination of Gaussian 16 at Fri Dec 11 13:50:10 2020.
