 Gaussian 16, Revision A.03,

 -----------------------------------------------------------
 # opt freq B3LYP/6-31G(d) empiricaldispersion=gd3bj scf=xqc
 -----------------------------------------------------------

 ---------------------------
 CID_20678039_JID_7_neutraal
 ---------------------------
 Symbolic Z-matrix:
 Charge =  0 Multiplicity = 1

 SCF Done:  E(RB3LYP) =  -464.936774516     A.U. after   13 cycles
 SCF Done:  E(RB3LYP) =  -464.941409968     A.U. after   11 cycles
 SCF Done:  E(RB3LYP) =  -464.942259383     A.U. after   11 cycles
 SCF Done:  E(RB3LYP) =  -464.942361513     A.U. after   11 cycles
 SCF Done:  E(RB3LYP) =  -464.942798835     A.U. after   10 cycles
 SCF Done:  E(RB3LYP) =  -464.942812007     A.U. after    9 cycles
 SCF Done:  E(RB3LYP) =  -464.942813305     A.U. after    7 cycles
 SCF Done:  E(RB3LYP) =  -464.942813536     A.U. after    7 cycles
 Optimization completed.
    -- Stationary point found.

 1\1\GINC-NODE373\FOpt\RB3LYP\6-31G(d)\C8H16O2\VSC10255\08-Dec-2020\0\\
 # opt freq B3LYP/6-31G(d) empiricaldispersion=gd3bj scf=xqc\\CID_20678
 039_JID_7_neutraal\\0,1\C,0.8594622941,-0.0787711139,-0.0246782485\C,0
 .564833884,-0.0662045668,-1.5309131581\C,1.3014666646,-1.2218274009,-2
 .2237213741\C,-0.9476406448,-0.081942804,-1.794715485\O,-1.6226887571,
 -1.1642705002,-1.1023742295\C,-2.2981802954,-0.1680832599,-0.342022786
 \O,-1.6236968978,0.9129965404,-0.9744377039\C,-1.4489755246,0.03251485
 08,-3.2462953736\C,-0.7910699361,1.1996061822,-3.9908153803\C,-1.39087

 Normal termination of Gaussian 16 at Tue Dec  8 10:15:02 2020.

 --------------------------------------------------------------------
 #N Geom=AllCheck Guess=TCheck SCRF=Check GenChk RB3LYP/6-31G(d) Freq
 --------------------------------------------------------------------

 Structure from the checkpoint file:  "JID_7.chk"
 ---------------------------
 CID_20678039_JID_7_neutraal
 ---------------------------
 Charge =  0 Multiplicity = 1

 SCF Done:  E(RB3LYP) =  -464.942813536     A.U. after    1 cycles

  Exact polarizability:  94.701  -1.949  91.097  -0.107   1.826  76.309
 Approx polarizability: 119.855  -4.482 123.853  -1.063   2.080 114.758

                      1                      2                      3
                      A                      A                      A
 Frequencies --     59.4206                87.3702               154.2739
 Red. masses --      2.5908                 2.7162                 2.3270
 Frc consts  --      0.0054                 0.0122                 0.0326
 IR Inten    --      0.0366                 0.0240                 3.2545

                      4                      5                      6
                      A                      A                      A
 Frequencies --    195.8936               201.5653               211.7944
 Red. masses --      1.6567                 2.0466                 1.3591
 Frc consts  --      0.0375                 0.0490                 0.0359
 IR Inten    --      0.1579                 0.1987                 0.1282

                      7                      8                      9
                      A                      A                      A
 Frequencies --    248.5282               253.3345               274.0874
 Red. masses --      1.1109                 3.3477                 1.0971
 Frc consts  --      0.0404                 0.1266                 0.0486
 IR Inten    --      0.0616                 0.6327                 0.0753

                     10                     11                     12
                      A                      A                      A
 Frequencies --    300.5438               310.3498               344.6972
 Red. masses --      1.8797                 1.9949                 2.9950
 Frc consts  --      0.1000                 0.1132                 0.2097
 IR Inten    --      0.2847                 0.5505                 6.1489

                     13                     14                     15
                      A                      A                      A
 Frequencies --    371.3691               420.5417               485.7933
 Red. masses --      2.4848                 2.8221                 3.0817
 Frc consts  --      0.2019                 0.2941                 0.4285
 IR Inten    --      1.6800                 1.4676                 6.2604

                     16                     17                     18
                      A                      A                      A
 Frequencies --    518.1045               550.2689               650.6094
 Red. masses --      4.1677                 2.7432                 2.6855
 Frc consts  --      0.6592                 0.4894                 0.6698
 IR Inten    --      6.8938                 1.3846                 2.6725

                     19                     20                     21
                      A                      A                      A
 Frequencies --    883.6976               886.7087               923.7080
 Red. masses --      3.0704                 3.2922                 3.2838
 Frc consts  --      1.4127                 1.5251                 1.6508
 IR Inten    --      6.6051                 3.6847                 7.1965

                     22                     23                     24
                      A                      A                      A
 Frequencies --    941.7867               946.2443               951.9866
 Red. masses --      1.6608                 1.1605                 1.7679
 Frc consts  --      0.8679                 0.6122                 0.9440
 IR Inten    --      7.3058                 0.1554                 9.8223

                     25                     26                     27
                      A                      A                      A
 Frequencies --    982.8325               988.2863              1012.2866
 Red. masses --      1.4205                 1.5517                 3.9973
 Frc consts  --      0.8084                 0.8930                 2.4134
 IR Inten    --      2.6071                 2.0941                37.8715

                     28                     29                     30
                      A                      A                      A
 Frequencies --   1025.1513              1066.4845              1108.2450
 Red. masses --      1.8395                 3.4672                 1.1040
 Frc consts  --      1.1390                 2.3235                 0.7989
 IR Inten    --     42.8411               205.6157                 6.4220

                     31                     32                     33
                      A                      A                      A
 Frequencies --   1115.1914              1140.7939              1157.9189
 Red. masses --      3.2643                 2.3838                 1.5912
 Frc consts  --      2.3919                 1.8278                 1.2570
 IR Inten    --     87.4509                 0.5354                 0.4417

                     34                     35                     36
                      A                      A                      A
 Frequencies --   1173.8635              1178.9291              1207.8117
 Red. masses --      2.1725                 1.9834                 1.9758
 Frc consts  --      1.7638                 1.6242                 1.6982
 IR Inten    --      4.3664                28.5057                 1.0644

                     37                     38                     39
                      A                      A                      A
 Frequencies --   1227.1663              1263.8003              1353.3712
 Red. masses --      2.1896                 2.3044                 1.4059
 Frc consts  --      1.9428                 2.1685                 1.5171
 IR Inten    --     11.5022                10.7287                 1.0995

                     40                     41                     42
                      A                      A                      A
 Frequencies --   1365.8360              1381.6204              1403.1384
 Red. masses --      1.3655                 1.5501                 1.4041
 Frc consts  --      1.5009                 1.7433                 1.6287
 IR Inten    --      1.8156                 1.6170                 6.7320

                     43                     44                     45
                      A                      A                      A
 Frequencies --   1414.6319              1423.3769              1431.6368
 Red. masses --      1.3258                 1.2779                 1.3012
 Frc consts  --      1.5632                 1.5255                 1.5713
 IR Inten    --     12.7287                 0.9713                 2.4338

                     46                     47                     48
                      A                      A                      A
 Frequencies --   1443.9591              1450.5878              1517.8878
 Red. masses --      1.2401                 1.2251                 1.0498
 Frc consts  --      1.5234                 1.5188                 1.4251
 IR Inten    --     10.4623                 7.3317                 2.3765

                     49                     50                     51
                      A                      A                      A
 Frequencies --   1521.1947              1524.6834              1531.2803
 Red. masses --      1.0481                 1.0464                 1.0477
 Frc consts  --      1.4290                 1.4332                 1.4475
 IR Inten    --      2.1596                 0.9062                 4.6227

                     52                     53                     54
                      A                      A                      A
 Frequencies --   1532.8367              1543.7201              1547.6620
 Red. masses --      1.0455                 1.0545                 1.0472
 Frc consts  --      1.4473                 1.4806                 1.4779
 IR Inten    --      4.3533                 9.7079                 6.9156

                     55                     56                     57
                      A                      A                      A
 Frequencies --   1555.8284              1591.0570              3004.6771
 Red. masses --      1.0572                 1.1095                 1.0518
 Frc consts  --      1.5078                 1.6548                 5.5950
 IR Inten    --     12.0760                 9.7914               137.8259

                     58                     59                     60
                      A                      A                      A
 Frequencies --   3040.0286              3044.9583              3046.2972
 Red. masses --      1.0848                 1.0912                 1.0971
 Frc consts  --      5.9067                 5.9607                 5.9986
 IR Inten    --     15.3130                24.2393                55.0153

                     61                     62                     63
                      A                      A                      A
 Frequencies --   3051.4334              3057.6340              3061.9257
 Red. masses --      1.0438                 1.0364                 1.0366
 Frc consts  --      5.7263                 5.7088                 5.7259
 IR Inten    --     30.9568                10.3386                37.4894

                     64                     65                     66
                      A                      A                      A
 Frequencies --   3064.8350              3115.3554              3118.9212
 Red. masses --      1.0392                 1.1018                 1.1027
 Frc consts  --      5.7511                 6.3003                 6.3200
 IR Inten    --     22.1953                19.9668                20.5551

                     67                     68                     69
                      A                      A                      A
 Frequencies --   3123.4179              3125.1408              3127.4213
 Red. masses --      1.1027                 1.1013                 1.0992
 Frc consts  --      6.3381                 6.3370                 6.3345
 IR Inten    --     21.3885                66.1633                25.6522

                     70                     71                     72
                      A                      A                      A
 Frequencies --   3141.4575              3148.1403              3155.6339
 Red. masses --      1.1017                 1.1016                 1.0999
 Frc consts  --      6.4056                 6.4323                 6.4531
 IR Inten    --      9.4124                19.0018                35.4508

 - Thermochemistry -
 -------------------
 Temperature   298.150 Kelvin.  Pressure   1.00000 Atm.
 Atom     1 has atomic number  6 and mass  12.00000

 Molecular mass:   144.11503 amu.
 Principal axes and moments of inertia in atomic units:
                           1         2         3
     Eigenvalues --  1141.162481427.272761810.66717
           X            0.99944   0.03329   0.00181
           Y           -0.03329   0.99944   0.00187
           Z           -0.00174  -0.00193   1.00000
 This molecule is an asymmetric top.
 Rotational symmetry number  1.
 Warning -- assumption of classical behavior for rotation
           may cause significant error
 Rotational temperatures (Kelvin)      0.07590     0.06068     0.04784
 Rotational constants (GHZ):           1.58149     1.26447     0.99673
 Zero-point vibrational energy     614779.0 (Joules/Mol)
                                  146.93571 (Kcal/Mol)
 Warning -- explicit consideration of  17 degrees of freedom as
           vibrations may cause significant error
 Vibrational temperatures:     85.49   125.71   221.97   281.85   290.01
          (Kelvin)            304.72   357.58   364.49   394.35   432.42
                              446.52   495.94   534.32   605.07   698.95
                              745.44   791.71   936.08  1271.44  1275.78
                             1329.01  1355.02  1361.43  1369.70  1414.08
                             1421.92  1456.45  1474.96  1534.43  1594.52
                             1604.51  1641.35  1665.99  1688.93  1696.22
                             1737.77  1765.62  1818.33  1947.20  1965.13
                             1987.84  2018.80  2035.34  2047.92  2059.81
                             2077.54  2087.07  2183.90  2188.66  2193.68
                             2203.17  2205.41  2221.07  2226.74  2238.49
                             2289.18  4323.06  4373.92  4381.02  4382.94
                             4390.33  4399.25  4405.43  4409.61  4482.30
                             4487.43  4493.90  4496.38  4499.66  4519.86
                             4529.47  4540.25

 Zero-point correction=                           0.234157 (Hartree/Particle)
 Thermal correction to Energy=                    0.245630
 Thermal correction to Enthalpy=                  0.246574
 Thermal correction to Gibbs Free Energy=         0.197892
 Sum of electronic and zero-point Energies=           -464.708657
 Sum of electronic and thermal Energies=              -464.697183
 Sum of electronic and thermal Enthalpies=            -464.696239
 Sum of electronic and thermal Free Energies=         -464.744921

                     E (Thermal)             CV                S
                      KCal/Mol        Cal/Mol-Kelvin    Cal/Mol-Kelvin
 Total                  154.135             43.145            102.460
 Electronic               0.000              0.000              0.000
 Translational            0.889              2.981             40.807
 Rotational               0.889              2.981             29.468
 Vibrational            152.358             37.183             32.185
 Vibration     1          0.597              1.974              4.476
 Vibration     2          0.601              1.958              3.718
 Vibration     3          0.620              1.898              2.619
 Vibration     4          0.636              1.846              2.171
 Vibration     5          0.638              1.838              2.119
 Vibration     6          0.643              1.823              2.028
 Vibration     7          0.662              1.765              1.741
 Vibration     8          0.665              1.757              1.707
 Vibration     9          0.676              1.721              1.570
 Vibration    10          0.693              1.673              1.414
 Vibration    11          0.699              1.654              1.360
 Vibration    12          0.723              1.586              1.190
 Vibration    13          0.743              1.531              1.074
 Vibration    14          0.783              1.426              0.890
 Vibration    15          0.842              1.282              0.695
 Vibration    16          0.873              1.210              0.614
 Vibration    17          0.906              1.139              0.544

                           ! Non-Optimized Parameters !

 1\1\GINC-NODE373\Freq\RB3LYP\6-31G(d)\C8H16O2\VSC10255\08-Dec-2020\0\\
 #N Geom=AllCheck Guess=TCheck SCRF=Check GenChk RB3LYP/6-31G(d) Freq\\
 CID_20678039_JID_7_neutraal\\0,1\C,0.8594622941,-0.0787711139,-0.02467
 82485\C,0.564833884,-0.0662045668,-1.5309131581\C,1.3014666646,-1.2218
 274009,-2.2237213741\C,-0.9476406448,-0.081942804,-1.794715485\O,-1.62
 26887571,-1.1642705002,-1.1023742295\C,-2.2981802954,-0.1680832599,-0.
 342022786\O,-1.6236968978,0.9129965404,-0.9744377039\C,-1.4489755246,0
 .0325148508,-3.2462953736\C,-0.7910699361,1.1996061822,-3.9908153803\C

 Normal termination of Gaussian 16 at Tue Dec  8 10:20:14 2020.

 ----------------------------------------------------------------------
 # B3LYP/6-311++G(d,p) empiricaldispersion=gd3bj scf=xqc pop=npa geom=c
 heck
 ----------------------------------------------------------------------

 -----------------------------------
 CID_20678039_JID_7_Energie_neutraal
 -----------------------------------
 Structure from the checkpoint file:  "JID_7.chk"
 Charge =  0 Multiplicity = 1

 SCF Done:  E(RB3LYP) =  -465.076305254     A.U. after   13 cycles
 Normal termination of Gaussian 16 at Tue Dec  8 10:22:01 2020.

 ----------------------------------------------------------------------
 # B3LYP/6-311++G(d,p) empiricaldispersion=gd3bj scf=xqc pop=npa geom=c
 heck
 ----------------------------------------------------------------------

 ---------------------------------
 CID_20678039_JID_7_Energie_kation
 ---------------------------------
 Structure from the checkpoint file:  "JID_7.chk"
 Charge =  1 Multiplicity = 2

 SCF Done:  E(UB3LYP) =  -464.748077837     A.U. after   20 cycles
 Normal termination of Gaussian 16 at Tue Dec  8 10:25:33 2020.
 Gaussian 16:  ES64L-G16RevA.03 25-Dec-2016

 --------------------------------
 CID_20678039_JID_7_Energie_anion
 --------------------------------
 Structure from the checkpoint file:  "JID_7.chk"
 Charge = -1 Multiplicity = 2

                         Standard orientation:
 ---------------------------------------------------------------------
 Center     Atomic      Atomic             Coordinates (Angstroms)
 Number     Number       Type             X           Y           Z
 ---------------------------------------------------------------------
      1          6           0        2.240534    1.003091    0.396130
      2          6           0        0.707686    1.080326    0.385179
      3          6           0        0.240301    2.180763   -0.578495
      4          6           0        0.091128   -0.289497    0.067596
      5          8           0        0.629745   -0.874940   -1.146327
      6          6           0        1.181349   -1.900933   -0.327862
      7          8           0        0.700804   -1.330076    0.883257
      8          6           0       -1.440575   -0.442342    0.112842
      9          6           0       -2.036095    0.121993    1.407498
     10          6           0       -2.164298    0.070141   -1.140676
     11          1           0        2.619623    0.762957   -0.602864
     12          1           0        2.592249    0.242318    1.097135
     13          1           0        2.662665    1.968265    0.695204
     14          1           0        0.373756    1.331953    1.400550
     15          1           0        0.381450    1.869512   -1.619299
     16          1           0       -0.810507    2.444020   -0.437958
     17          1           0        0.830988    3.088973   -0.417848
     18          1           0        2.279260   -1.942502   -0.375547
     19          1           0        0.749005   -2.891237   -0.537308
     20          1           0       -1.579543   -1.530833    0.132828
     21          1           0       -1.989843    1.216737    1.429760
     22          1           0       -3.089722   -0.164672    1.495568
     23          1           0       -1.507156   -0.263033    2.285890
     24          1           0       -1.644396   -0.253828   -2.046633
     25          1           0       -3.180514   -0.338987   -1.165896
     26          1           0       -2.251888    1.159227   -1.162286
 ---------------------------------------------------------------------

 SCF Done:  E(UB3LYP) =  -465.057057706     A.U. after   31 cycles

 The electronic state is 2-A.
 Alpha  occ. eigenvalues --  -19.02926 -19.02772 -10.17634 -10.17084 -10.07454
 Alpha  occ. eigenvalues --  -10.07262 -10.05486 -10.05432 -10.05029 -10.05026
 Alpha  occ. eigenvalues --   -1.02599  -0.86072  -0.71863  -0.68035  -0.60294
 Alpha  occ. eigenvalues --   -0.58330  -0.57817  -0.51381  -0.49619  -0.42389
 Alpha  occ. eigenvalues --   -0.40689  -0.40097  -0.39257  -0.35996  -0.34069
 Alpha  occ. eigenvalues --   -0.32740  -0.31375  -0.29879  -0.29312  -0.28441
 Alpha  occ. eigenvalues --   -0.27700  -0.26383  -0.25461  -0.24731  -0.23663
 Alpha  occ. eigenvalues --   -0.22836  -0.21851  -0.21676  -0.20113  -0.14637
 Alpha  occ. eigenvalues --    0.04916
 Alpha virt. eigenvalues --    0.07072   0.07169   0.08469   0.09176   0.09448
 Alpha virt. eigenvalues --    0.10475   0.10986   0.11133   0.12013   0.12463
 Alpha virt. eigenvalues --    0.13619   0.13748   0.13845   0.14537   0.15802

  Beta  occ. eigenvalues --  -19.02918 -19.02769 -10.17633 -10.17055 -10.07445
  Beta  occ. eigenvalues --  -10.07250 -10.05456 -10.05399 -10.04999 -10.04998
  Beta  occ. eigenvalues --   -1.02589  -0.86060  -0.71834  -0.68002  -0.60243
  Beta  occ. eigenvalues --   -0.58270  -0.57757  -0.51308  -0.49559  -0.42361
  Beta  occ. eigenvalues --   -0.40663  -0.40069  -0.39224  -0.35949  -0.34031
  Beta  occ. eigenvalues --   -0.32704  -0.31339  -0.29830  -0.29270  -0.28407
  Beta  occ. eigenvalues --   -0.27664  -0.26343  -0.25426  -0.24700  -0.23627
  Beta  occ. eigenvalues --   -0.22801  -0.21824  -0.21643  -0.20103  -0.14616
  Beta virt. eigenvalues --    0.07237   0.08126   0.08201   0.08947   0.10030
  Beta virt. eigenvalues --    0.10240   0.11043   0.11219   0.11494   0.12682
  Beta virt. eigenvalues --    0.13085   0.13947   0.14038   0.14209   0.14956

 Mulliken charges and spin densities:
               1          2
     1  C    1.552188  -2.269277
     2  C   -2.740673   3.492138
     3  C    0.795776  -1.505232
     4  C    0.791993  -2.280512
     5  O   -0.147715   0.080896
     6  C    1.080438  -0.823148
     7  O   -0.144565   0.054822
     8  C   -1.227204   1.914003
     9  C    1.044936  -1.676006
    10  C    0.935445  -1.480855
    11  H   -0.090893   0.252819
    12  H   -0.059258   0.216990
    13  H   -0.251501   0.410577
    14  H   -0.175186   0.372253
    15  H   -0.042655   0.230982
    16  H    0.001830   0.127186
    17  H   -0.387038   0.536207
    18  H   -0.076013   0.225367
    19  H   -0.490594   0.640284
    20  H   -0.113114   0.287458
    21  H   -0.358788   0.515590
    22  H   -0.377972   0.540485
    23  H    0.053119   0.109101
    24  H   -0.014677   0.184189
    25  H   -0.517499   0.680734
    26  H   -0.040378   0.162950
 Sum of Mulliken charges =  -1.00000   1.00000

 Dipole moment (field-independent basis, Debye):
    X=              1.9788    Y=             -1.3318    Z=             -0.1319  Tot=              2.3889
 Quadrupole moment (field-independent basis, Debye-Ang):
   XX=           -120.0966   YY=           -112.1183   ZZ=            -97.2468
   XY=             -4.3094   XZ=              0.0347   YZ=             -3.1469

 Summary of Natural Population Analysis:

                                       Natural Population
                Natural  -----------------------------------------------
    Atom  No    Charge         Core      Valence    Rydberg      Total
 -----------------------------------------------------------------------
      C    1   -0.28714      0.99965     2.28062    0.00687     3.28714
      C    2   -0.13700      0.99952     2.12573    0.01175     3.13700
      C    3   -0.28554      0.99964     2.27958    0.00631     3.28554
      C    4    0.32160      0.99950     1.65513    0.02377     2.67840
      O    5   -0.32070      0.99989     3.31001    0.01081     4.32070
      C    6    0.17285      0.99962     1.81561    0.01192     2.82715
      O    7   -0.32067      0.99989     3.31063    0.01015     4.32067
      C    8   -0.13395      0.99952     2.12128    0.01315     3.13395
      C    9   -0.28593      0.99964     2.28010    0.00618     3.28593
      C   10   -0.28451      0.99964     2.27871    0.00616     3.28451
      H   11    0.10029      0.00000     0.39834    0.00137     0.39971
      H   12    0.10437      0.00000     0.39419    0.00144     0.39563
      H   13    0.10056      0.00000     0.39839    0.00105     0.39944
      H   14    0.10424      0.00000     0.39399    0.00177     0.39576
      H   15    0.10150      0.00000     0.39717    0.00134     0.39850
      H   16    0.10081      0.00000     0.39792    0.00127     0.39919
      H   17    0.10206      0.00000     0.39673    0.00121     0.39794
      H   18    0.06875      0.00000     0.42951    0.00174     0.43125
      H   19    0.06868      0.00000     0.42917    0.00214     0.43132
      H   20    0.10174      0.00000     0.39610    0.00216     0.39826
      H   21    0.09806      0.00000     0.40063    0.00130     0.40194
      H   22    0.10307      0.00000     0.39577    0.00116     0.39693
      H   23    0.10245      0.00000     0.39602    0.00153     0.39755
      H   24    0.10630      0.00000     0.39198    0.00172     0.39370
      H   25    0.10159      0.00000     0.39700    0.00140     0.39841
      H   26    0.09660      0.00000     0.40211    0.00129     0.40340
 =======================================================================
   * Total *    0.00007      9.99652    29.87243    0.13099    39.99993

 Normal termination of Gaussian 16 at Tue Dec  8 10:30:57 2020.
