 Gaussian 16, Revision A.03,

 -----------------------------------------------------------
 # opt freq B3LYP/6-31G(d) empiricaldispersion=gd3bj scf=xqc
 -----------------------------------------------------------

 -------------------------------
 CID_149763148_JID_1134_neutraal
 -------------------------------
 Symbolic Z-matrix:
 Charge =  0 Multiplicity = 1

 SCF Done:  E(RB3LYP) =  -1537.55284279     A.U. after   14 cycles
 SCF Done:  E(RB3LYP) =  -1537.55872399     A.U. after   13 cycles
 SCF Done:  E(RB3LYP) =  -1537.55999262     A.U. after   13 cycles
 SCF Done:  E(RB3LYP) =  -1537.56065711     A.U. after   12 cycles
 SCF Done:  E(RB3LYP) =  -1537.56092037     A.U. after   12 cycles
 SCF Done:  E(RB3LYP) =  -1537.56113226     A.U. after   13 cycles
 SCF Done:  E(RB3LYP) =  -1537.56131713     A.U. after   11 cycles
 SCF Done:  E(RB3LYP) =  -1537.56140775     A.U. after   12 cycles
 SCF Done:  E(RB3LYP) =  -1537.56162082     A.U. after   12 cycles
 SCF Done:  E(RB3LYP) =  -1537.56152088     A.U. after   11 cycles
 SCF Done:  E(RB3LYP) =  -1537.56221373     A.U. after   12 cycles
 SCF Done:  E(RB3LYP) =  -1537.56222255     A.U. after   10 cycles
 SCF Done:  E(RB3LYP) =  -1537.56222647     A.U. after   10 cycles
 SCF Done:  E(RB3LYP) =  -1537.56222697     A.U. after   10 cycles
 SCF Done:  E(RB3LYP) =  -1537.56222701     A.U. after    8 cycles
 SCF Done:  E(RB3LYP) =  -1537.56222703     A.U. after    7 cycles
 Optimization completed.
    -- Stationary point found.
 Normal termination of Gaussian 16 at Tue Dec  8 19:19:08 2020.

 --------------------------------------------------------------------
 #N Geom=AllCheck Guess=TCheck SCRF=Check GenChk RB3LYP/6-31G(d) Freq
 --------------------------------------------------------------------

 Structure from the checkpoint file:  "JID_1134.chk"
 -------------------------------
 CID_149763148_JID_1134_neutraal
 -------------------------------
 Charge =  0 Multiplicity = 1

 SCF Done:  E(RB3LYP) =  -1537.56222703     A.U. after    1 cycles

  Exact polarizability: 181.636  -2.999 146.349  -0.702   0.235  64.020
 Approx polarizability: 276.888 -10.604 243.100  -2.213   2.749 103.920

                      1                      2                      3
                      A                      A                      A
 Frequencies --     76.2169                98.1557               136.6503
 Red. masses --      7.9480                 1.2654                 2.8456
 Frc consts  --      0.0272                 0.0072                 0.0313
 IR Inten    --      1.0624                 8.5666                 2.9589

                      4                      5                      6
                      A                      A                      A
 Frequencies --    142.8704               163.9253               202.4525
 Red. masses --      3.2928                 1.1514                10.2377
 Frc consts  --      0.0396                 0.0182                 0.2472
 IR Inten    --      0.4344                32.1150                 0.4141

                      7                      8                      9
                      A                      A                      A
 Frequencies --    222.6433               233.7925               284.6713
 Red. masses --      1.2669                 9.0290                 5.4536
 Frc consts  --      0.0370                 0.2908                 0.2604
 IR Inten    --     16.6914                 4.1351                 1.5816

                     10                     11                     12
                      A                      A                      A
 Frequencies --    301.0753               323.5930               335.5957
 Red. masses --      3.6895                10.0309                 3.3713
 Frc consts  --      0.1970                 0.6189                 0.2237
 IR Inten    --      6.0737                 0.6685                 3.0532

                     13                     14                     15
                      A                      A                      A
 Frequencies --    364.6647               370.1181               393.7030
 Red. masses --      1.6354                 2.4381                 7.5435
 Frc consts  --      0.1281                 0.1968                 0.6889
 IR Inten    --      2.0175                 6.8503                 1.4361

                     16                     17                     18
                      A                      A                      A
 Frequencies --    484.6799               535.4795               540.6627
 Red. masses --      7.8245                 1.9542                 1.4394
 Frc consts  --      1.0830                 0.3301                 0.2479
 IR Inten    --      1.2350                16.9716                 8.4811

                     19                     20                     21
                      A                      A                      A
 Frequencies --    572.7040               599.9379               636.4653
 Red. masses --      4.8089                 5.0075                 5.1843
 Frc consts  --      0.9293                 1.0619                 1.2373
 IR Inten    --      4.4610                15.1571                 5.6850

                     22                     23                     24
                      A                      A                      A
 Frequencies --    716.8301               743.9538               773.3200
 Red. masses --      2.9519                 4.7371                 1.7584
 Frc consts  --      0.8937                 1.5447                 0.6196
 IR Inten    --    131.4116                29.5962               144.8610

                     25                     26                     27
                      A                      A                      A
 Frequencies --    827.8223               882.8274               897.2732
 Red. masses --      1.5029                 1.2401                 1.6858
 Frc consts  --      0.6068                 0.5695                 0.7997
 IR Inten    --    331.3807                24.5903                 9.4220

                     28                     29                     30
                      A                      A                      A
 Frequencies --    937.4988               943.0847               952.1199
 Red. masses --      1.3506                 1.1927                 4.8850
 Frc consts  --      0.6994                 0.6250                 2.6092
 IR Inten    --     10.9779                25.2464                13.8965

                     31                     32                     33
                      A                      A                      A
 Frequencies --    976.0561              1139.0797              1166.3848
 Red. masses --      1.9142                 1.8508                 1.6786
 Frc consts  --      1.0744                 1.4149                 1.3455
 IR Inten    --     15.3417                22.7428                 8.8509

                     34                     35                     36
                      A                      A                      A
 Frequencies --   1236.3619              1278.3868              1307.6165
 Red. masses --      2.4178                 2.4033                 2.8788
 Frc consts  --      2.1775                 2.3141                 2.9002
 IR Inten    --      9.1618                 6.6011                 8.7991

                     37                     38                     39
                      A                      A                      A
 Frequencies --   1365.4295              1446.9397              1487.7626
 Red. masses --      4.4025                 4.9625                 4.2837
 Frc consts  --      4.8360                 6.1214                 5.5865
 IR Inten    --      2.0861                41.1523               114.7281

                     40                     41                     42
                      A                      A                      A
 Frequencies --   1588.2744              1612.6557              1669.7381
 Red. masses --      3.7702                 4.8449                 1.3035
 Frc consts  --      5.6036                 7.4237                 2.1413
 IR Inten    --      5.0940                 6.5031               143.4102

                     43                     44                     45
                      A                      A                      A
 Frequencies --   1682.4483              2624.1748              2631.0237
 Red. masses --      1.2591                 1.0389                 1.0389
 Frc consts  --      2.0999                 4.2152                 4.2370
 IR Inten    --     57.3619                29.5426                28.3801

                     46                     47                     48
                      A                      A                      A
 Frequencies --   2636.7988              3226.6932              3489.0547
 Red. masses --      1.0376                 1.0915                 1.0510
 Frc consts  --      4.2502                 6.6957                 7.5382
 IR Inten    --     31.1870                 0.0132                 4.8901

                     49                     50                     51
                      A                      A                      A
 Frequencies --   3499.9095              3590.0658              3607.8110
 Red. masses --      1.0467                 1.0926                 1.0986
 Frc consts  --      7.5544                 8.2968                 8.4254
 IR Inten    --     18.6798                18.0620                37.4254

 - Thermochemistry -
 -------------------
 Temperature   298.150 Kelvin.  Pressure   1.00000 Atm.
 Atom     1 has atomic number  6 and mass  12.00000

 Molecular mass:   203.98496 amu.
 Principal axes and moments of inertia in atomic units:
                           1         2         3
     Eigenvalues --  1791.459513298.541865058.51467
           X            0.99982  -0.01907  -0.00101
           Y            0.01906   0.99980  -0.00665
           Z            0.00114   0.00663   0.99998
 This molecule is an asymmetric top.
 Rotational symmetry number  1.
 Warning -- assumption of classical behavior for rotation
           may cause significant error
 Rotational temperatures (Kelvin)      0.04835     0.02626     0.01712
 Rotational constants (GHZ):           1.00741     0.54713     0.35677
 Zero-point vibrational energy     346662.6 (Joules/Mol)
                                   82.85434 (Kcal/Mol)
 Warning -- explicit consideration of  20 degrees of freedom as
           vibrations may cause significant error
 Vibrational temperatures:    109.66   141.22   196.61   205.56   235.85
          (Kelvin)            291.28   320.33   336.38   409.58   433.18
                              465.58   482.85   524.67   532.52   566.45
                              697.35   770.44   777.89   823.99   863.18
                              915.73  1031.36  1070.38  1112.64  1191.05
                             1270.19  1290.98  1348.85  1356.89  1369.89
                             1404.33  1638.88  1678.17  1778.85  1839.31
                             1881.37  1964.55  2081.82  2140.56  2285.17
                             2320.25  2402.38  2420.67  3775.60  3785.46
                             3793.77  4642.49  5019.97  5035.59  5165.30
                             5190.84

 Zero-point correction=                           0.132037 (Hartree/Particle)
 Thermal correction to Energy=                    0.144417
 Thermal correction to Enthalpy=                  0.145361
 Thermal correction to Gibbs Free Energy=         0.093636
 Sum of electronic and zero-point Energies=          -1537.430190
 Sum of electronic and thermal Energies=             -1537.417810
 Sum of electronic and thermal Enthalpies=           -1537.416866
 Sum of electronic and thermal Free Energies=        -1537.468591

                     E (Thermal)             CV                S
                      KCal/Mol        Cal/Mol-Kelvin    Cal/Mol-Kelvin
 Total                   90.623             45.928            108.864
 Electronic               0.000              0.000              0.000
 Translational            0.889              2.981             41.843
 Rotational               0.889              2.981             31.769
 Vibrational             88.845             39.966             35.252
 Vibration     1          0.599              1.965              3.986
 Vibration     2          0.604              1.950              3.491
 Vibration     3          0.614              1.917              2.850
 Vibration     4          0.616              1.910              2.765
 Vibration     5          0.623              1.887              2.504
 Vibration     6          0.639              1.836              2.111
 Vibration     7          0.648              1.807              1.937
 Vibration     8          0.654              1.789              1.850
 Vibration     9          0.683              1.702              1.505
 Vibration    10          0.693              1.672              1.411
 Vibration    11          0.708              1.628              1.292
 Vibration    12          0.717              1.604              1.233
 Vibration    13          0.738              1.545              1.102
 Vibration    14          0.742              1.534              1.079
 Vibration    15          0.761              1.484              0.986
 Vibration    16          0.841              1.284              0.698
 Vibration    17          0.890              1.172              0.575
 Vibration    18          0.896              1.160              0.564
 Vibration    19          0.929              1.090              0.499
 Vibration    20          0.958              1.032              0.450

 Optimization completed.
    -- Stationary point found.
 Normal termination of Gaussian 16 at Tue Dec  8 19:23:21 2020.

 ----------------------------------------------------------------------
 # B3LYP/6-311++G(d,p) empiricaldispersion=gd3bj scf=xqc pop=npa geom=c
 heck
 ----------------------------------------------------------------------

 ---------------------------------------
 CID_149763148_JID_1134_Energie_neutraal
 ---------------------------------------
 Structure from the checkpoint file:  "JID_1134.chk"
 Charge =  0 Multiplicity = 1

 SCF Done:  E(RB3LYP) =  -1537.75547883     A.U. after   16 cycles
 Normal termination of Gaussian 16 at Tue Dec  8 19:25:20 2020.

 ----------------------------------------------------------------------
 # B3LYP/6-311++G(d,p) empiricaldispersion=gd3bj scf=xqc pop=npa geom=c
 heck
 ----------------------------------------------------------------------

 -------------------------------------
 CID_149763148_JID_1134_Energie_kation
 -------------------------------------
 Structure from the checkpoint file:  "JID_1134.chk"
 Charge =  1 Multiplicity = 2

 SCF Done:  E(UB3LYP) =  -1537.47434110     A.U. after   28 cycles
 Normal termination of Gaussian 16 at Tue Dec  8 19:30:32 2020.
 Gaussian 16:  ES64L-G16RevA.03 25-Dec-2016

 ----------------------------------------------------------------------
 # B3LYP/6-311++G(d,p) empiricaldispersion=gd3bj scf=xqc pop=npa geom=c
 heck
 ----------------------------------------------------------------------

 ------------------------------------
 CID_149763148_JID_1134_Energie_anion
 ------------------------------------
 Structure from the checkpoint file:  "JID_1134.chk"
 Charge = -1 Multiplicity = 2

                         Standard orientation:
 ---------------------------------------------------------------------
 Center     Atomic      Atomic             Coordinates (Angstroms)
 Number     Number       Type             X           Y           Z
 ---------------------------------------------------------------------
      1          6           0       -0.486338   -1.409425    0.019025
      2          6           0       -1.557391   -0.516287    0.025232
      3          6           0       -1.316603    0.869034   -0.006534
      4          6           0        0.018386    1.337645   -0.001795
      5          6           0        1.087990    0.432334   -0.002453
      6          6           0        0.833436   -0.958854   -0.004234
      7         16           0        2.136235   -2.187988   -0.091766
      8         16           0        2.733341    1.121734    0.049426
      9          7           0        0.184522    2.745438   -0.064717
     10          7           0       -2.337759    1.803734   -0.002346
     11         16           0       -3.232174   -1.151744   -0.043797
     12          1           0       -0.684064   -2.474826    0.038273
     13          1           0        2.621327   -2.053410    1.166064
     14          1           0        3.342822    0.003259   -0.402733
     15          1           0       -0.089926    3.209765    0.798809
     16          1           0        1.130757    3.020555   -0.308840
     17          1           0       -3.219647    1.444341   -0.353997
     18          1           0       -2.055373    2.679848   -0.433286
     19          1           0       -3.648555   -0.712445    1.167909
 ---------------------------------------------------------------------

 SCF Done:  E(UB3LYP) =  -1537.74635571     A.U. after   31 cycles

 The electronic state is 2-A.
 Alpha  occ. eigenvalues --  -88.75601 -88.75348 -88.75261 -14.21772 -14.21443
 Alpha  occ. eigenvalues --  -10.12133 -10.11750 -10.11431 -10.10714 -10.10346
 Alpha  occ. eigenvalues --  -10.08268  -7.84343  -7.84049  -7.83960  -5.80691
 Alpha  occ. eigenvalues --   -5.80415  -5.80330  -5.80325  -5.80059  -5.79974
 Alpha  occ. eigenvalues --   -5.79764  -5.79443  -5.79353  -0.84555  -0.79767
 Alpha  occ. eigenvalues --   -0.76020  -0.70376  -0.66925  -0.64804  -0.60329
 Alpha  occ. eigenvalues --   -0.57689  -0.50668  -0.49080  -0.43700  -0.40954
 Alpha  occ. eigenvalues --   -0.39057  -0.38769  -0.35990  -0.34712  -0.33044
 Alpha  occ. eigenvalues --   -0.31013  -0.30556  -0.30098  -0.25818  -0.25034
 Alpha  occ. eigenvalues --   -0.24329  -0.22612  -0.20612  -0.18449  -0.16111
 Alpha  occ. eigenvalues --   -0.15691  -0.11608  -0.10821   0.04224
 Alpha virt. eigenvalues --    0.06353   0.07070   0.07873   0.08558   0.09088
 Alpha virt. eigenvalues --    0.09401   0.10111   0.10725   0.11301   0.11562
 Alpha virt. eigenvalues --    0.12042   0.12836   0.13024   0.13526   0.14008

  Beta  occ. eigenvalues --  -88.75586 -88.75326 -88.75240 -14.21727 -14.21376
  Beta  occ. eigenvalues --  -10.12132 -10.11748 -10.11427 -10.10707 -10.10343
  Beta  occ. eigenvalues --  -10.08261  -7.84321  -7.84021  -7.83933  -5.80678
  Beta  occ. eigenvalues --   -5.80394  -5.80314  -5.80305  -5.80030  -5.79947
  Beta  occ. eigenvalues --   -5.79748  -5.79421  -5.79333  -0.84498  -0.79683
  Beta  occ. eigenvalues --   -0.75969  -0.70317  -0.66848  -0.64716  -0.60253
  Beta  occ. eigenvalues --   -0.57621  -0.50623  -0.49026  -0.43651  -0.40894
  Beta  occ. eigenvalues --   -0.38992  -0.38692  -0.35933  -0.34656  -0.32985
  Beta  occ. eigenvalues --   -0.30954  -0.30518  -0.30053  -0.25772  -0.24990
  Beta  occ. eigenvalues --   -0.24294  -0.22568  -0.20558  -0.18404  -0.16059
  Beta  occ. eigenvalues --   -0.15630  -0.11564  -0.10772
  Beta virt. eigenvalues --    0.06559   0.07177   0.07926   0.08090   0.08838
  Beta virt. eigenvalues --    0.09198   0.10049   0.10621   0.10813   0.11567
  Beta virt. eigenvalues --    0.11630   0.12336   0.13045   0.13267   0.13859

 Mulliken charges and spin densities:
               1          2
     1  C   -0.609261   0.182967
     2  C    1.909119  -0.364038
     3  C   -1.518438   0.330231
     4  C   -1.309956   0.492597
     5  C    1.242914   0.126087
     6  C    0.141569   0.244921
     7  S    1.042908  -1.580131
     8  S    0.243394  -0.765327
     9  N   -0.261033  -0.096800
    10  N   -0.225372  -0.067988
    11  S    0.835234  -1.401415
    12  H   -0.195606   0.350481
    13  H   -0.556593   0.613900
    14  H   -0.453957   0.543755
    15  H   -0.353885   0.630586
    16  H   -0.091396   0.329901
    17  H   -0.193564   0.454164
    18  H   -0.109349   0.383151
    19  H   -0.536728   0.592957
 Sum of Mulliken charges =  -1.00000   1.00000

 Dipole moment (field-independent basis, Debye):
    X=              1.0954    Y=             -2.4749    Z=             -1.7598  Tot=              3.2283
 Quadrupole moment (field-independent basis, Debye-Ang):
   XX=           -144.3094   YY=           -136.8033   ZZ=           -112.6211
   XY=              5.9414   XZ=              0.8446   YZ=             -0.8769

 Summary of Natural Population Analysis:

                                       Natural Population
                Natural  -----------------------------------------------
    Atom  No    Charge         Core      Valence    Rydberg      Total
 -----------------------------------------------------------------------
      C    1   -0.09520      0.99943     2.08380    0.01197     3.09520
      C    2   -0.10960      0.99936     2.09794    0.01230     3.10960
      C    3    0.08492      0.99939     1.90190    0.01378     2.91508
      C    4    0.05372      0.99938     1.93376    0.01315     2.94628
      C    5   -0.08940      0.99930     2.07633    0.01377     3.08940
      C    6   -0.11476      0.99933     2.10179    0.01364     3.11476
      S    7   -0.00192      4.99958     2.98537    0.01697     8.00192
      S    8    0.00376      4.99955     2.97942    0.01726     7.99624
      N    9   -0.41730      0.99973     2.90634    0.01123     3.91730
      N   10   -0.39484      0.99971     2.88471    0.01043     3.89484
      S   11   -0.00965      4.99960     2.99260    0.01745     8.00965
      H   12    0.10955      0.00000     0.38921    0.00124     0.39045
      H   13    0.06702      0.00000     0.42819    0.00479     0.43298
      H   14    0.07564      0.00000     0.42002    0.00434     0.42436
      H   15    0.19066      0.00000     0.30380    0.00555     0.30934
      H   16    0.19071      0.00000     0.30653    0.00276     0.30929
      H   17    0.19253      0.00000     0.30431    0.00316     0.30747
      H   18    0.19643      0.00000     0.30014    0.00344     0.30357
      H   19    0.06775      0.00000     0.42789    0.00436     0.43225
 =======================================================================
   * Total *    0.00000     22.99436    29.82406    0.18158    53.00000

 Normal termination of Gaussian 16 at Tue Dec  8 19:36:13 2020.
