 Gaussian 16, Revision A.03,

 -----------------------------------------------------------
 # opt freq B3LYP/6-31G(d) empiricaldispersion=gd3bj scf=xqc
 -----------------------------------------------------------

 ------------------------------
 CID_61225011_JID_3688_neutraal
 ------------------------------
 Symbolic Z-matrix:
 Charge =  0 Multiplicity = 1

 SCF Done:  E(RB3LYP) =  -597.760233666     A.U. after   14 cycles
 SCF Done:  E(RB3LYP) =  -597.763249572     A.U. after   12 cycles
 SCF Done:  E(RB3LYP) =  -597.758486533     A.U. after   14 cycles
 SCF Done:  E(RB3LYP) =  -597.762963995     A.U. after   11 cycles
 SCF Done:  E(RB3LYP) =  -597.764299684     A.U. after    9 cycles
 SCF Done:  E(RB3LYP) =  -597.765125159     A.U. after   12 cycles
 SCF Done:  E(RB3LYP) =  -597.765283386     A.U. after   12 cycles
 SCF Done:  E(RB3LYP) =  -597.765362544     A.U. after   11 cycles
 SCF Done:  E(RB3LYP) =  -597.765436028     A.U. after   12 cycles
 SCF Done:  E(RB3LYP) =  -597.765470525     A.U. after   11 cycles
 SCF Done:  E(RB3LYP) =  -597.765517682     A.U. after    9 cycles
 SCF Done:  E(RB3LYP) =  -597.765526983     A.U. after   10 cycles
 SCF Done:  E(RB3LYP) =  -597.765528515     A.U. after    8 cycles
 SCF Done:  E(RB3LYP) =  -597.765529020     A.U. after    7 cycles
 SCF Done:  E(RB3LYP) =  -597.765529379     A.U. after    7 cycles
 Optimization completed.
    -- Stationary point found.
 Normal termination of Gaussian 16 at Sun Dec 13 20:08:11 2020.

 --------------------------------------------------------------------
 #N Geom=AllCheck Guess=TCheck SCRF=Check GenChk RB3LYP/6-31G(d) Freq
 --------------------------------------------------------------------

 Structure from the checkpoint file:  "JID_3688.chk"
 ------------------------------
 CID_61225011_JID_3688_neutraal
 ------------------------------
 Charge =  0 Multiplicity = 1

 SCF Done:  E(RB3LYP) =  -597.765529379     A.U. after    1 cycles

  Exact polarizability: 117.098  -0.714 120.170   2.208   0.440 104.500
 Approx polarizability: 151.139   1.547 159.522   7.640  -4.609 162.707

                      1                      2                      3
                      A                      A                      A
 Frequencies --     23.1131                44.1901                61.1437
 Red. masses --      3.4814                 4.1291                 2.7641
 Frc consts  --      0.0011                 0.0048                 0.0061
 IR Inten    --      0.7289                 0.9375                 0.8020

                      4                      5                      6
                      A                      A                      A
 Frequencies --     73.4188               106.9815               127.1410
 Red. masses --      2.5328                 3.4926                 3.0828
 Frc consts  --      0.0080                 0.0236                 0.0294
 IR Inten    --      0.5186                 0.2753                 0.4947

                      7                      8                      9
                      A                      A                      A
 Frequencies --    144.4634               161.9308               233.0943
 Red. masses --      2.9178                 3.1033                 1.7022
 Frc consts  --      0.0359                 0.0479                 0.0545
 IR Inten    --      4.0275                 1.6339                 1.4611

                     10                     11                     12
                      A                      A                      A
 Frequencies --    236.1437               240.5547               277.2661
 Red. masses --      1.5799                 1.1862                 1.9939
 Frc consts  --      0.0519                 0.0404                 0.0903
 IR Inten    --      0.7730                 2.5725                 1.0165

                     13                     14                     15
                      A                      A                      A
 Frequencies --    326.8476               368.1452               378.4507
 Red. masses --      2.1347                 2.9352                 2.1798
 Frc consts  --      0.1344                 0.2344                 0.1839
 IR Inten    --      7.8182                 5.6088                 1.0389

                     16                     17                     18
                      A                      A                      A
 Frequencies --    436.3434               442.0337               462.9597
 Red. masses --      3.9594                 1.9478                 2.7764
 Frc consts  --      0.4442                 0.2242                 0.3506
 IR Inten    --     16.3746                 1.3870                 2.2659

                     19                     20                     21
                      A                      A                      A
 Frequencies --    543.9542               598.5398               627.1404
 Red. masses --      3.3555                 3.4110                 3.8447
 Frc consts  --      0.5850                 0.7200                 0.8909
 IR Inten    --      0.8579                 1.8646                 4.4686

                     22                     23                     24
                      A                      A                      A
 Frequencies --    713.5673               799.1996               820.3786
 Red. masses --      2.6125                 1.3583                 1.4075
 Frc consts  --      0.7837                 0.5112                 0.5581
 IR Inten    --      3.3763                 5.3582                 0.7111

                     25                     26                     27
                      A                      A                      A
 Frequencies --    851.2063               867.6718               874.1989
 Red. masses --      3.0842                 2.3672                 2.4075
 Frc consts  --      1.3166                 1.0500                 1.0840
 IR Inten    --      2.6278                 2.4945                 6.3940

                     28                     29                     30
                      A                      A                      A
 Frequencies --    890.7015               934.9217               938.1748
 Red. masses --      2.7669                 2.3636                 1.8120
 Frc consts  --      1.2933                 1.2173                 0.9397
 IR Inten    --      8.8911                 5.8076                 1.1066

                     31                     32                     33
                      A                      A                      A
 Frequencies --    976.6418               980.8265               992.4762
 Red. masses --      1.4606                 2.2620                 1.3170
 Frc consts  --      0.8209                 1.2821                 0.7643
 IR Inten    --      1.0989                 1.8720                 1.9195

                     34                     35                     36
                      A                      A                      A
 Frequencies --   1020.7153              1044.4387              1068.4273
 Red. masses --      2.0262                 2.4612                 3.7355
 Frc consts  --      1.2438                 1.5818                 2.5124
 IR Inten    --      1.9263                17.5575                19.6547

                     37                     38                     39
                      A                      A                      A
 Frequencies --   1100.5085              1132.2772              1152.4594
 Red. masses --      2.3712                 1.9899                 1.8711
 Frc consts  --      1.6920                 1.5031                 1.4642
 IR Inten    --      8.9177                30.2113                60.2581

                     40                     41                     42
                      A                      A                      A
 Frequencies --   1160.4635              1174.6078              1196.8496
 Red. masses --      1.8307                 1.9171                 1.8623
 Frc consts  --      1.4526                 1.5584                 1.5717
 IR Inten    --     26.5624                 4.9107                34.0765

                     43                     44                     45
                      A                      A                      A
 Frequencies --   1206.9893              1215.7659              1251.1752
 Red. masses --      1.7631                 1.6711                 1.2694
 Frc consts  --      1.5133                 1.4553                 1.1708
 IR Inten    --     13.0944                74.1458                24.2673

                     46                     47                     48
                      A                      A                      A
 Frequencies --   1260.0214              1276.2319              1283.9957
 Red. masses --      2.0134                 1.3259                 1.8643
 Frc consts  --      1.8834                 1.2724                 1.8109
 IR Inten    --    138.4130                22.0767                17.3573

                     49                     50                     51
                      A                      A                      A
 Frequencies --   1321.0329              1322.4913              1344.8204
 Red. masses --      1.3126                 1.3269                 1.1254
 Frc consts  --      1.3496                 1.3673                 1.1992
 IR Inten    --     13.4845                 0.8510                 7.3074

                     52                     53                     54
                      A                      A                      A
 Frequencies --   1360.7908              1373.3156              1384.4810
 Red. masses --      1.5131                 1.3263                 1.4309
 Frc consts  --      1.6508                 1.4738                 1.6159
 IR Inten    --     41.7161                 8.0595                30.7035

                     55                     56                     57
                      A                      A                      A
 Frequencies --   1408.9262              1420.4574              1423.1583
 Red. masses --      1.3253                 1.4070                 1.3641
 Frc consts  --      1.5500                 1.6726                 1.6278
 IR Inten    --     35.2017                 4.9308                20.5104

                     58                     59                     60
                      A                      A                      A
 Frequencies --   1433.0846              1441.0780              1443.8865
 Red. masses --      1.5122                 1.2632                 1.3413
 Frc consts  --      1.8298                 1.5456                 1.6476
 IR Inten    --      3.9850                 2.7184                 5.6294

                     61                     62                     63
                      A                      A                      A
 Frequencies --   1503.7242              1512.1296              1515.3575
 Red. masses --      1.1041                 1.1021                 1.0624
 Frc consts  --      1.4709                 1.4848                 1.4374
 IR Inten    --      8.6424                 7.5913                 4.8839

                     64                     65                     66
                      A                      A                      A
 Frequencies --   1518.7897              1524.2988              1527.2283
 Red. masses --      1.0809                 1.0830                 1.0527
 Frc consts  --      1.4690                 1.4826                 1.4467
 IR Inten    --      4.9963                 5.1340                 1.6597

                     67                     68                     69
                      A                      A                      A
 Frequencies --   1530.6071              1535.4620              1552.9678
 Red. masses --      1.0501                 1.0637                 1.0867
 Frc consts  --      1.4494                 1.4776                 1.5442
 IR Inten    --      2.5108                19.0780                 2.0528

                     70                     71                     72
                      A                      A                      A
 Frequencies --   1575.9637              1813.8653              2933.7347
 Red. masses --      1.0916                10.6210                 1.0719
 Frc consts  --      1.5974                20.5885                 5.4356
 IR Inten    --      1.7980               166.6349                57.7568

                     73                     74                     75
                      A                      A                      A
 Frequencies --   3019.2512              3024.3018              3038.6234
 Red. masses --      1.0644                 1.0702                 1.0509
 Frc consts  --      5.7167                 5.7675                 5.7172
 IR Inten    --     65.6721                68.2310                16.1203

                     76                     77                     78
                      A                      A                      A
 Frequencies --   3040.7480              3048.2917              3054.1508
 Red. masses --      1.0673                 1.0954                 1.0892
 Frc consts  --      5.8144                 5.9971                 5.9861
 IR Inten    --     21.7670                29.5773                34.4255

                     79                     80                     81
                      A                      A                      A
 Frequencies --   3060.5538              3065.6635              3068.7238
 Red. masses --      1.0385                 1.0635                 1.0656
 Frc consts  --      5.7312                 5.8888                 5.9122
 IR Inten    --      9.5010                58.9456                12.8895

                     82                     83                     84
                      A                      A                      A
 Frequencies --   3094.9673              3101.1177              3102.9031
 Red. masses --      1.0591                 1.0953                 1.1017
 Frc consts  --      5.9775                 6.2063                 6.2493
 IR Inten    --     28.2908                10.6305                26.2657

                     85                     86                     87
                      A                      A                      A
 Frequencies --   3109.5833              3111.8660              3126.9744
 Red. masses --      1.1024                 1.1025                 1.1019
 Frc consts  --      6.2804                 6.2905                 6.3479
 IR Inten    --     24.5041                88.3447                26.1249

                     88                     89                     90
                      A                      A                      A
 Frequencies --   3137.4802              3139.2960              3158.6581
 Red. masses --      1.0980                 1.1027                 1.1082
 Frc consts  --      6.3684                 6.4026                 6.5142
 IR Inten    --     17.7153                10.2508                25.4575

 - Thermochemistry -
 -------------------
 Temperature   298.150 Kelvin.  Pressure   1.00000 Atm.
 Atom     1 has atomic number  6 and mass  12.00000

 Molecular mass:   185.14158 amu.
 Principal axes and moments of inertia in atomic units:
                           1         2         3
     Eigenvalues --  1777.681623061.599063869.42390
           X            0.99999  -0.00084   0.00540
           Y            0.00075   0.99986   0.01649
           Z           -0.00542  -0.01649   0.99985
 This molecule is an asymmetric top.
 Rotational symmetry number  1.
 Warning -- assumption of classical behavior for rotation
           may cause significant error
 Rotational temperatures (Kelvin)      0.04872     0.02829     0.02238
 Rotational constants (GHZ):           1.01522     0.58948     0.46641
 Zero-point vibrational energy     755582.6 (Joules/Mol)
                                  180.58859 (Kcal/Mol)
 Warning -- explicit consideration of  20 degrees of freedom as
           vibrations may cause significant error
 Vibrational temperatures:     33.25    63.58    87.97   105.63   153.92
          (Kelvin)            182.93   207.85   232.98   335.37   339.76
                              346.10   398.92   470.26   529.68   544.51
                              627.80   635.99   666.10   782.63   861.17
                              902.32  1026.66  1149.87  1180.34  1224.70
                             1248.39  1257.78  1281.52  1345.14  1349.82
                             1405.17  1411.19  1427.95  1468.58  1502.71
                             1537.23  1583.39  1629.09  1658.13  1669.65
                             1690.00  1722.00  1736.59  1749.22  1800.16
                             1812.89  1836.21  1847.38  1900.67  1902.77
                             1934.90  1957.87  1975.89  1991.96  2027.13
                             2043.72  2047.61  2061.89  2073.39  2077.43
                             2163.52  2175.62  2180.26  2185.20  2193.13
                             2197.34  2202.20  2209.19  2234.37  2267.46
                             2609.75  4220.99  4344.03  4351.30  4371.90
                             4374.96  4385.81  4394.24  4403.45  4410.81
                             4415.21  4452.97  4461.82  4464.39  4474.00
                             4477.28  4499.02  4514.13  4516.75  4544.60

 Zero-point correction=                           0.287786 (Hartree/Particle)
 Thermal correction to Energy=                    0.302114
 Thermal correction to Enthalpy=                  0.303058
 Thermal correction to Gibbs Free Energy=         0.245254
 Sum of electronic and zero-point Energies=           -597.477743
 Sum of electronic and thermal Energies=              -597.463416
 Sum of electronic and thermal Enthalpies=            -597.462472
 Sum of electronic and thermal Free Energies=         -597.520276

                     E (Thermal)             CV                S
                      KCal/Mol        Cal/Mol-Kelvin    Cal/Mol-Kelvin
 Total                  189.579             52.384            121.659
 Electronic               0.000              0.000              0.000
 Translational            0.889              2.981             41.554
 Rotational               0.889              2.981             31.421
 Vibrational            187.802             46.423             48.684
 Vibration     1          0.593              1.985              6.347
 Vibration     2          0.595              1.980              5.062
 Vibration     3          0.597              1.973              4.420
 Vibration     4          0.599              1.967              4.060
 Vibration     5          0.606              1.944              3.323
 Vibration     6          0.611              1.926              2.989
 Vibration     7          0.616              1.909              2.744
 Vibration     8          0.622              1.889              2.527
 Vibration     9          0.654              1.790              1.855
 Vibration    10          0.655              1.785              1.832
 Vibration    11          0.658              1.778              1.799
 Vibration    12          0.678              1.716              1.550
 Vibration    13          0.711              1.622              1.276
 Vibration    14          0.741              1.538              1.088
 Vibration    15          0.749              1.516              1.045
 Vibration    16          0.797              1.391              0.838
 Vibration    17          0.802              1.378              0.820
 Vibration    18          0.821              1.332              0.758
 Vibration    19          0.899              1.153              0.557
 Vibration    20          0.957              1.035              0.452

                           ! Non-Optimized Parameters !
 Normal termination of Gaussian 16 at Sun Dec 13 20:17:17 2020.

 ----------------------------------------------------------------------
 # B3LYP/6-311++G(d,p) empiricaldispersion=gd3bj scf=xqc pop=npa geom=c
 heck
 ----------------------------------------------------------------------

 --------------------------------------
 CID_61225011_JID_3688_Energie_neutraal
 --------------------------------------
 Structure from the checkpoint file:  "JID_3688.chk"
 Charge =  0 Multiplicity = 1

 SCF Done:  E(RB3LYP) =  -597.935768040     A.U. after   14 cycles
 Normal termination of Gaussian 16 at Sun Dec 13 20:21:27 2020.

 ----------------------------------------------------------------------
 # B3LYP/6-311++G(d,p) empiricaldispersion=gd3bj scf=xqc pop=npa geom=c
 heck
 ----------------------------------------------------------------------

 ------------------------------------
 CID_61225011_JID_3688_Energie_kation
 ------------------------------------
 Structure from the checkpoint file:  "JID_3688.chk"
 Charge =  1 Multiplicity = 2

 SCF Done:  E(UB3LYP) =  -597.658057394     A.U. after   18 cycles
 Normal termination of Gaussian 16 at Sun Dec 13 20:29:05 2020.
 Gaussian 16:  ES64L-G16RevA.03 25-Dec-2016

 ----------------------------------------------------------------------
 # B3LYP/6-311++G(d,p) empiricaldispersion=gd3bj scf=xqc pop=npa geom=c
 heck
 ----------------------------------------------------------------------

 -----------------------------------
 CID_61225011_JID_3688_Energie_anion
 -----------------------------------
 Structure from the checkpoint file:  "JID_3688.chk"
 Charge = -1 Multiplicity = 2

                         Standard orientation:
 ---------------------------------------------------------------------
 Center     Atomic      Atomic             Coordinates (Angstroms)
 Number     Number       Type             X           Y           Z
 ---------------------------------------------------------------------
      1          6           0        1.646446    2.431502    0.488320
      2          6           0        2.563703    1.621402   -0.412723
      3          8           0        1.877660    0.466573   -0.949470
      4          6           0        1.896866   -0.653757   -0.190182
      5          8           0        2.449010   -0.730075    0.888398
      6          6           0        1.143377   -1.783746   -0.851956
      7          6           0       -0.043486   -2.299715    0.002587
      8          7           0       -1.102973   -1.360093    0.288746
      9          6           0       -0.985924   -0.503730    1.480402
     10          6           0       -1.860977    0.727503    1.162762
     11          6           0       -2.660166    0.336758   -0.097262
     12          6           0       -1.672545   -0.594157   -0.808281
     13          6           0       -3.129864    1.522518   -0.933572
     14          1           0        0.738213    2.725190   -0.047711
     15          1           0        2.158362    3.340344    0.824185
     16          1           0        1.363855    1.850884    1.370619
     17          1           0        2.866134    2.192176   -1.293868
     18          1           0        3.451430    1.283740    0.126771
     19          1           0        0.803529   -1.471543   -1.841930
     20          1           0        1.849285   -2.612839   -0.982947
     21          1           0       -0.464836   -3.162859   -0.532520
     22          1           0        0.347562   -2.671985    0.954960
     23          1           0       -1.348382   -1.051220    2.361579
     24          1           0        0.049285   -0.207899    1.695347
     25          1           0       -1.225344    1.590210    0.930393
     26          1           0       -2.506302    1.015591    1.998440
     27          1           0       -3.526918   -0.264513    0.206540
     28          1           0       -0.927289    0.011800   -1.359649
     29          1           0       -2.157253   -1.260579   -1.534310
     30          1           0       -3.666728    1.193054   -1.830923
     31          1           0       -3.804489    2.169024   -0.360523
     32          1           0       -2.277249    2.132621   -1.257684
 ---------------------------------------------------------------------

 SCF Done:  E(UB3LYP) =  -597.919331563     A.U. after   33 cycles
 SCF Done:  E(UB3LYP) =  -597.919331563     a.u. after    1 cycles

 The electronic state is 2-A.
 Alpha  occ. eigenvalues --  -19.07146 -19.01591 -14.19744 -10.20617 -10.12918
 Alpha  occ. eigenvalues --  -10.10359 -10.09003 -10.08513 -10.08359 -10.07220
 Alpha  occ. eigenvalues --  -10.06840 -10.06584 -10.05856  -1.01044  -0.92513
 Alpha  occ. eigenvalues --   -0.83170  -0.71180  -0.68472  -0.65533  -0.63114
 Alpha  occ. eigenvalues --   -0.59097  -0.56225  -0.53170  -0.47445  -0.46943
 Alpha  occ. eigenvalues --   -0.45478  -0.41619  -0.40010  -0.39075  -0.38765
 Alpha  occ. eigenvalues --   -0.36923  -0.35311  -0.34162  -0.32937  -0.32190
 Alpha  occ. eigenvalues --   -0.31499  -0.30417  -0.29967  -0.29525  -0.28054
 Alpha  occ. eigenvalues --   -0.27254  -0.26735  -0.25621  -0.25418  -0.24664
 Alpha  occ. eigenvalues --   -0.23537  -0.22376  -0.22215  -0.20929  -0.18559
 Alpha  occ. eigenvalues --   -0.10505   0.04524
 Alpha virt. eigenvalues --    0.06257   0.06646   0.07731   0.08633   0.08884
 Alpha virt. eigenvalues --    0.09222   0.09472   0.09803   0.10185   0.10871
 Alpha virt. eigenvalues --    0.11956   0.12071   0.12533   0.13013   0.13313

  Beta  occ. eigenvalues --  -19.07138 -19.01585 -14.19745 -10.20615 -10.12893
  Beta  occ. eigenvalues --  -10.10346 -10.08994 -10.08492 -10.08343 -10.07210
  Beta  occ. eigenvalues --  -10.06808 -10.06571 -10.05824  -1.01030  -0.92499
  Beta  occ. eigenvalues --   -0.83159  -0.71156  -0.68439  -0.65497  -0.63085
  Beta  occ. eigenvalues --   -0.59052  -0.56170  -0.53116  -0.47406  -0.46892
  Beta  occ. eigenvalues --   -0.45439  -0.41589  -0.39980  -0.39052  -0.38729
  Beta  occ. eigenvalues --   -0.36886  -0.35286  -0.34130  -0.32906  -0.32162
  Beta  occ. eigenvalues --   -0.31468  -0.30383  -0.29931  -0.29498  -0.28017
  Beta  occ. eigenvalues --   -0.27220  -0.26702  -0.25597  -0.25391  -0.24636
  Beta  occ. eigenvalues --   -0.23504  -0.22347  -0.22182  -0.20895  -0.18547
  Beta  occ. eigenvalues --   -0.10494
  Beta virt. eigenvalues --    0.06657   0.07116   0.07471   0.08181   0.09161
  Beta virt. eigenvalues --    0.09389   0.09581   0.09961   0.10060   0.10565
  Beta virt. eigenvalues --    0.11326   0.12461   0.12492   0.12801   0.13278

 Mulliken charges and spin densities:
               1          2
     1  C    0.357777  -0.816524
     2  C    0.194032  -0.334343
     3  O    0.050813   0.055502
     4  C   -0.301387  -0.153026
     5  O   -0.222687   0.020525
     6  C    0.350080  -0.423379
     7  C    0.110420  -0.421232
     8  N   -0.010852   0.151380
     9  C   -0.618317   0.318105
    10  C    1.086565  -1.508431
    11  C   -1.578547   1.925499
    12  C    0.945701  -1.510120
    13  C    0.765987  -1.457619
    14  H    0.258949  -0.085439
    15  H   -0.558471   0.706416
    16  H    0.089555   0.066302
    17  H   -0.714373   0.897402
    18  H    0.136210   0.027266
    19  H   -0.024928   0.229590
    20  H   -0.313608   0.491248
    21  H   -0.308525   0.481622
    22  H    0.169919   0.002474
    23  H   -0.009745   0.167995
    24  H   -0.046276   0.183897
    25  H    0.033620   0.076462
    26  H    0.028397   0.126972
    27  H   -0.187839   0.391521
    28  H    0.224850  -0.094300
    29  H   -0.216192   0.372966
    30  H   -0.199904   0.338361
    31  H   -0.252208   0.391484
    32  H   -0.239013   0.381424
 Sum of Mulliken charges =  -1.00000   1.00000

 Dipole moment (field-independent basis, Debye):
    X=              0.5964    Y=             -2.6528    Z=              2.4733  Tot=              3.6756
 Quadrupole moment (field-independent basis, Debye-Ang):
   XX=           -145.4756   YY=           -138.5764   ZZ=           -119.0571
   XY=             -5.4711   XZ=             -3.6006   YZ=              0.6924

 Summary of Natural Population Analysis:

                                       Natural Population
                Natural  -----------------------------------------------
    Atom  No    Charge         Core      Valence    Rydberg      Total
 -----------------------------------------------------------------------
      C    1   -0.29848      0.99966     2.29332    0.00551     3.29848
      C    2   -0.01717      0.99957     2.00569    0.01190     3.01717
      O    3   -0.27986      0.99986     3.27031    0.00969     4.27986
      C    4    0.40959      0.99968     1.56426    0.02648     2.59041
      O    5   -0.31430      0.99987     3.30906    0.00537     4.31430
      C    6   -0.24624      0.99957     2.23797    0.00869     3.24624
      C    7   -0.07325      0.99961     2.06155    0.01209     3.07325
      N    8   -0.28691      0.99972     2.77454    0.01265     3.78691
      C    9   -0.07930      0.99962     2.07142    0.00825     3.07930
      C   10   -0.19350      0.99962     2.18627    0.00762     3.19350
      C   11   -0.11310      0.99960     2.10297    0.01053     3.11310
      C   12   -0.08205      0.99959     2.07102    0.01144     3.08205
      C   13   -0.28382      0.99965     2.27844    0.00574     3.28382
      H   14    0.10218      0.00000     0.39633    0.00149     0.39782
      H   15    0.10412      0.00000     0.39435    0.00153     0.39588
      H   16    0.10231      0.00000     0.39648    0.00122     0.39769
      H   17    0.09309      0.00000     0.40497    0.00194     0.40691
      H   18    0.09392      0.00000     0.40485    0.00123     0.40608
      H   19    0.11000      0.00000     0.38831    0.00169     0.39000
      H   20    0.11262      0.00000     0.38609    0.00129     0.38738
      H   21    0.09451      0.00000     0.40433    0.00117     0.40549
      H   22    0.09877      0.00000     0.40013    0.00110     0.40123
      H   23    0.08733      0.00000     0.41135    0.00133     0.41267
      H   24    0.09060      0.00000     0.40780    0.00160     0.40940
      H   25    0.09700      0.00000     0.40121    0.00179     0.40300
      H   26    0.10002      0.00000     0.39905    0.00094     0.39998
      H   27    0.09511      0.00000     0.40308    0.00181     0.40489
      H   28    0.08273      0.00000     0.41505    0.00222     0.41727
      H   29    0.09619      0.00000     0.40228    0.00153     0.40381
      H   30    0.10003      0.00000     0.39885    0.00113     0.39997
      H   31    0.09951      0.00000     0.39937    0.00112     0.40049
      H   32    0.09837      0.00000     0.40026    0.00137     0.40163
 =======================================================================
   * Total *    0.00000     12.99563    37.84095    0.16342    51.00000

 Normal termination of Gaussian 16 at Sun Dec 13 20:43:08 2020.
