 Gaussian 16, Revision A.03,

 -----------------------------------------------------------
 # opt freq B3LYP/6-31G(d) empiricaldispersion=gd3bj scf=xqc
 -----------------------------------------------------------

 -------------------------------
 CID_71691289_JID_10976_neutraal
 -------------------------------
 Symbolic Z-matrix:
 Charge =  0 Multiplicity = 1

 SCF Done:  E(RB3LYP) =  -896.544307512     A.U. after   15 cycles
 SCF Done:  E(RB3LYP) =  -896.548641466     A.U. after   13 cycles
 SCF Done:  E(RB3LYP) =  -896.549312093     A.U. after   12 cycles
 SCF Done:  E(RB3LYP) =  -896.549942901     A.U. after   12 cycles
 SCF Done:  E(RB3LYP) =  -896.550209229     A.U. after   12 cycles
 SCF Done:  E(RB3LYP) =  -896.550460956     A.U. after   12 cycles
 SCF Done:  E(RB3LYP) =  -896.550666798     A.U. after   13 cycles
 SCF Done:  E(RB3LYP) =  -896.550846446     A.U. after   11 cycles
 SCF Done:  E(RB3LYP) =  -896.550965250     A.U. after   12 cycles
 SCF Done:  E(RB3LYP) =  -896.551019698     A.U. after   11 cycles
 SCF Done:  E(RB3LYP) =  -896.551073138     A.U. after   12 cycles
 SCF Done:  E(RB3LYP) =  -896.551082285     A.U. after   11 cycles
 SCF Done:  E(RB3LYP) =  -896.551088725     A.U. after   11 cycles
 SCF Done:  E(RB3LYP) =  -896.551089046     A.U. after   10 cycles
 SCF Done:  E(RB3LYP) =  -896.551089247     A.U. after    9 cycles
 SCF Done:  E(RB3LYP) =  -896.551089334     A.U. after    8 cycles
 Optimization completed.
    -- Stationary point found.
 Normal termination of Gaussian 16 at Sat Dec 12 16:39:09 2020.

 --------------------------------------------------------------------
 #N Geom=AllCheck Guess=TCheck SCRF=Check GenChk RB3LYP/6-31G(d) Freq
 --------------------------------------------------------------------

 Structure from the checkpoint file:  "JID_10976.chk"
 -------------------------------
 CID_71691289_JID_10976_neutraal
 -------------------------------
 Charge =  0 Multiplicity = 1

 SCF Done:  E(RB3LYP) =  -896.551089334     A.U. after    1 cycles

  Exact polarizability: 258.574   6.176 191.412  -8.774  10.455  98.922
 Approx polarizability: 344.882   6.012 310.729 -19.927  21.593 154.180

                      1                      2                      3
                      A                      A                      A
 Frequencies --     16.9149                36.3840                44.3475
 Red. masses --      5.0576                 3.6211                 4.2242
 Frc consts  --      0.0009                 0.0028                 0.0049
 IR Inten    --      0.9670                 1.0774                 0.8456

                      4                      5                      6
                      A                      A                      A
 Frequencies --     65.5897                70.2896                86.7769
 Red. masses --      3.7723                 2.9004                 3.9984
 Frc consts  --      0.0096                 0.0084                 0.0177
 IR Inten    --      0.2199                 0.2697                 0.3467

                      7                      8                      9
                      A                      A                      A
 Frequencies --    104.0840               106.1358               124.4276
 Red. masses --      4.8632                 4.7345                 4.7900
 Frc consts  --      0.0310                 0.0314                 0.0437
 IR Inten    --      1.8829                 0.8409                 0.9049

                     10                     11                     12
                      A                      A                      A
 Frequencies --    142.7977               197.2320               214.1588
 Red. masses --      2.5824                 2.5620                 2.2420
 Frc consts  --      0.0310                 0.0587                 0.0606
 IR Inten    --      1.0564                 0.4215                 1.7592

                     13                     14                     15
                      A                      A                      A
 Frequencies --    240.7745               273.3171               293.1010
 Red. masses --      2.4820                 4.1797                 4.9625
 Frc consts  --      0.0848                 0.1840                 0.2512
 IR Inten    --      0.5163                 1.1379                 1.7524

                     16                     17                     18
                      A                      A                      A
 Frequencies --    308.3507               345.9222               382.4998
 Red. masses --      2.8713                 5.0558                 4.7484
 Frc consts  --      0.1609                 0.3565                 0.4093
 IR Inten    --      1.9014                11.8532                 1.5160

                     19                     20                     21
                      A                      A                      A
 Frequencies --    407.9595               420.6021               431.0252
 Red. masses --      5.5260                 3.2482                 4.2154
 Frc consts  --      0.5419                 0.3386                 0.4614
 IR Inten    --      0.3245                 0.5531                 3.4830

                     22                     23                     24
                      A                      A                      A
 Frequencies --    450.3359               515.9414               543.1803
 Red. masses --      3.3981                 3.5170                 2.2269
 Frc consts  --      0.4060                 0.5516                 0.3871
 IR Inten    --      1.0187                 4.6618                19.6309

                     25                     26                     27
                      A                      A                      A
 Frequencies --    604.2937               608.6801               631.5602
 Red. masses --      2.3784                 4.6304                 5.9548
 Frc consts  --      0.5117                 1.0108                 1.3994
 IR Inten    --     50.8026                12.0049                 3.2771

                     28                     29                     30
                      A                      A                      A
 Frequencies --    646.1768               669.0956               681.7388
 Red. masses --      4.5942                 5.5302                 5.6566
 Frc consts  --      1.1302                 1.4587                 1.5490
 IR Inten    --     28.8310                 2.4574                11.0936

                     31                     32                     33
                      A                      A                      A
 Frequencies --    704.9176               717.3773               759.2421
 Red. masses --      2.3632                 2.7802                 1.4392
 Frc consts  --      0.6919                 0.8430                 0.4888
 IR Inten    --     11.7296                43.7614                30.6819

                     34                     35                     36
                      A                      A                      A
 Frequencies --    769.8726               775.5406               791.5228
 Red. masses --      2.4192                 1.7364                 1.8827
 Frc consts  --      0.8448                 0.6153                 0.6950
 IR Inten    --     24.3223                33.0028                 4.9128

                     37                     38                     39
                      A                      A                      A
 Frequencies --    797.4218               834.6667               835.1846
 Red. masses --      2.2892                 1.2642                 1.4062
 Frc consts  --      0.8576                 0.5189                 0.5779
 IR Inten    --      4.9613                 0.7516                11.6794

                     40                     41                     42
                      A                      A                      A
 Frequencies --    852.5352               874.0979               912.9700
 Red. masses --      1.2455                 2.1970                 2.4878
 Frc consts  --      0.5334                 0.9890                 1.2217
 IR Inten    --      0.4670                 4.5200                 5.4402

                     43                     44                     45
                      A                      A                      A
 Frequencies --    926.7683               958.8014               970.9790
 Red. masses --      1.4021                 3.4406                 1.3297
 Frc consts  --      0.7095                 1.8636                 0.7386
 IR Inten    --      4.9917                12.8733                 0.5218

                     46                     47                     48
                      A                      A                      A
 Frequencies --    994.8411              1008.5495              1023.2404
 Red. masses --      1.2516                 5.3604                 6.1751
 Frc consts  --      0.7298                 3.2125                 3.8093
 IR Inten    --      0.7308                13.7385                 0.1477

                     49                     50                     51
                      A                      A                      A
 Frequencies --   1038.7913              1042.5790              1061.9325
 Red. masses --      2.1852                 3.8079                 2.0947
 Frc consts  --      1.3893                 2.4387                 1.3918
 IR Inten    --     12.8571                20.6647                23.9630

                     52                     53                     54
                      A                      A                      A
 Frequencies --   1066.3072              1085.7068              1088.3019
 Red. masses --      1.6715                 3.0131                 1.3540
 Frc consts  --      1.1197                 2.0926                 0.9449
 IR Inten    --      0.6485                43.7162                 2.4893

                     55                     56                     57
                      A                      A                      A
 Frequencies --   1112.8259              1128.2651              1134.3932
 Red. masses --      1.6801                 1.9491                 1.1915
 Frc consts  --      1.2258                 1.4619                 0.9034
 IR Inten    --     12.4266                35.2435                 4.4163

                     58                     59                     60
                      A                      A                      A
 Frequencies --   1162.6246              1192.8408              1194.6475
 Red. masses --      1.5067                 2.9023                 1.2500
 Frc consts  --      1.1999                 2.4331                 1.0511
 IR Inten    --      4.2875               111.6781                24.1246

                     61                     62                     63
                      A                      A                      A
 Frequencies --   1210.4665              1214.4104              1216.1920
 Red. masses --      1.3638                 1.1865                 1.7790
 Frc consts  --      1.1774                 1.0309                 1.5503
 IR Inten    --      0.5645                 1.0438                46.0617

                     64                     65                     66
                      A                      A                      A
 Frequencies --   1223.4882              1259.9853              1299.8068
 Red. masses --      2.4458                 1.8774                 5.4940
 Frc consts  --      2.1571                 1.7560                 5.4689
 IR Inten    --      1.8970                20.7671                34.5453

                     67                     68                     69
                      A                      A                      A
 Frequencies --   1333.3518              1343.0377              1360.2102
 Red. masses --      1.4771                 2.0211                 3.1716
 Frc consts  --      1.5472                 2.1479                 3.4573
 IR Inten    --     95.9480               273.1206                 0.9510

                     70                     71                     72
                      A                      A                      A
 Frequencies --   1371.0860              1401.8326              1410.2098
 Red. masses --      1.8903                 1.3426                 1.3058
 Frc consts  --      2.0936                 1.5545                 1.5301
 IR Inten    --      1.4720                15.8660                36.7549

                     73                     74                     75
                      A                      A                      A
 Frequencies --   1429.7199              1442.9862              1469.4449
 Red. masses --      6.5919                 1.2936                 1.6836
 Frc consts  --      7.9389                 1.5870                 2.1419
 IR Inten    --     47.2429                37.9660               104.1418

                     76                     77                     78
                      A                      A                      A
 Frequencies --   1486.0570              1491.4587              1505.8099
 Red. masses --      1.1569                 3.7974                 2.8241
 Frc consts  --      1.5053                 4.9769                 3.7728
 IR Inten    --     15.8947               141.6206               116.9005

                     79                     80                     81
                      A                      A                      A
 Frequencies --   1514.3435              1517.3712              1529.1722
 Red. masses --      1.8255                 1.4381                 1.2087
 Frc consts  --      2.4666                 1.9509                 1.6652
 IR Inten    --     23.3770                31.2031                11.1868

                     82                     83                     84
                      A                      A                      A
 Frequencies --   1529.3961              1541.0523              1556.7883
 Red. masses --      1.2941                 1.1613                 2.7336
 Frc consts  --      1.7834                 1.6249                 3.9034
 IR Inten    --     10.1605                 6.8155                93.4326

                     85                     86                     87
                      A                      A                      A
 Frequencies --   1614.5494              1654.4527              1665.1958
 Red. masses --      5.6381                 6.4238                 5.5762
 Frc consts  --      8.6593                10.3599                 9.1101
 IR Inten    --    144.4653                20.3076                45.1907

                     88                     89                     90
                      A                      A                      A
 Frequencies --   1783.6084              3062.2734              3063.8069
 Red. masses --      8.8361                 1.0663                 1.0360
 Frc consts  --     16.5618                 5.8914                 5.7298
 IR Inten    --    281.3413                33.8624                12.5454

                     91                     92                     93
                      A                      A                      A
 Frequencies --   3127.5301              3133.1616              3145.3317
 Red. masses --      1.1005                 1.1016                 1.0552
 Frc consts  --      6.3422                 6.3713                 6.1507
 IR Inten    --      3.6892                24.1940                16.8355

                     94                     95                     96
                      A                      A                      A
 Frequencies --   3149.8754              3151.6413              3153.8262
 Red. masses --      1.0731                 1.1034                 1.0705
 Frc consts  --      6.2732                 6.4576                 6.2732
 IR Inten    --     17.3589                33.4762                 8.5124

                     97                     98                     99
                      A                      A                      A
 Frequencies --   3188.2589              3198.8221              3212.1745
 Red. masses --      1.0857                 1.0906                 1.0961
 Frc consts  --      6.5023                 6.5748                 6.6635
 IR Inten    --      0.4762                20.2321                34.1250

                    100                    101                    102
                      A                      A                      A
 Frequencies --   3227.0510              3240.5820              3246.5615
 Red. masses --      1.1198                 1.1162                 1.0929
 Frc consts  --      6.8708                 6.9064                 6.7867
 IR Inten    --      0.6178                16.7582                 0.3196

                    103                    104                    105
                      A                      A                      A
 Frequencies --   3257.7087              3325.3339              3573.9581
 Red. masses --      1.0920                 1.0959                 1.0755
 Frc consts  --      6.8281                 7.1402                 8.0943
 IR Inten    --      1.8070                 5.3328                26.7221

 - Thermochemistry -
 -------------------
 Temperature   298.150 Kelvin.  Pressure   1.00000 Atm.
 Atom     1 has atomic number  6 and mass  12.00000

 Molecular mass:   271.13208 amu.
 Principal axes and moments of inertia in atomic units:
                           1         2         3
     Eigenvalues --  3244.343468764.14261**********
           X            0.99989   0.01431   0.00259
           Y           -0.01431   0.99990  -0.00036
           Z           -0.00260   0.00032   1.00000
 This molecule is an asymmetric top.
 Rotational symmetry number  1.
 Warning -- assumption of classical behavior for rotation
           may cause significant error
 Rotational temperatures (Kelvin)      0.02670     0.00988     0.00758
 Rotational constants (GHZ):           0.55627     0.20592     0.15790
 Zero-point vibrational energy     797399.7 (Joules/Mol)
                                  190.58310 (Kcal/Mol)
 Warning -- explicit consideration of  26 degrees of freedom as
           vibrations may cause significant error
 Vibrational temperatures:     24.34    52.35    63.81    94.37   101.13
          (Kelvin)            124.85   149.75   152.71   179.02   205.45
                              283.77   308.13   346.42   393.24   421.71
                              443.65   497.70   550.33   586.96   605.15
                              620.15   647.93   742.32   781.52   869.44
                              875.75   908.67   929.70   962.68   980.87
                             1014.22  1032.15  1092.38  1107.67  1115.83
                             1138.82  1147.31  1200.90  1201.64  1226.61
                             1257.63  1313.56  1333.41  1379.50  1397.02
                             1431.35  1451.08  1472.21  1494.59  1500.04
                             1527.88  1534.18  1562.09  1565.82  1601.11
                             1623.32  1632.14  1672.76  1716.23  1718.83
                             1741.59  1747.27  1749.83  1760.33  1812.84
                             1870.13  1918.40  1932.33  1957.04  1972.69
                             2016.92  2028.98  2057.05  2076.14  2114.20
                             2138.10  2145.88  2166.52  2178.80  2183.16
                             2200.14  2200.46  2217.23  2239.87  2322.98
                             2380.39  2395.85  2566.21  4405.93  4408.13
                             4499.82  4507.92  4525.43  4531.97  4534.51
                             4537.65  4587.19  4602.39  4621.60  4643.01
                             4662.47  4671.08  4687.12  4784.41  5142.13

 Zero-point correction=                           0.303714 (Hartree/Particle)
 Thermal correction to Energy=                    0.321979
 Thermal correction to Enthalpy=                  0.322923
 Thermal correction to Gibbs Free Energy=         0.255022
 Sum of electronic and zero-point Energies=           -896.247376
 Sum of electronic and thermal Energies=              -896.229110
 Sum of electronic and thermal Enthalpies=            -896.228166
 Sum of electronic and thermal Free Energies=         -896.296068

                     E (Thermal)             CV                S
                      KCal/Mol        Cal/Mol-Kelvin    Cal/Mol-Kelvin
 Total                  202.045             69.236            142.910
 Electronic               0.000              0.000              0.000
 Translational            0.889              2.981             42.691
 Rotational               0.889              2.981             34.140
 Vibrational            200.267             63.274             66.079
 Vibration     1          0.593              1.986              6.967
 Vibration     2          0.594              1.982              5.447
 Vibration     3          0.595              1.980              5.055
 Vibration     4          0.597              1.971              4.282
 Vibration     5          0.598              1.968              4.145
 Vibration     6          0.601              1.958              3.731
 Vibration     7          0.605              1.946              3.376
 Vibration     8          0.605              1.944              3.338
 Vibration     9          0.610              1.929              3.030
 Vibration    10          0.616              1.910              2.766
 Vibration    11          0.637              1.844              2.159
 Vibration    12          0.644              1.819              2.008
 Vibration    13          0.658              1.778              1.797
 Vibration    14          0.676              1.723              1.575
 Vibration    15          0.688              1.687              1.456
 Vibration    16          0.698              1.658              1.371
 Vibration    17          0.724              1.584              1.185
 Vibration    18          0.752              1.508              1.029
 Vibration    19          0.773              1.453              0.934
 Vibration    20          0.783              1.425              0.890
 Vibration    21          0.792              1.403              0.855
 Vibration    22          0.809              1.360              0.795
 Vibration    23          0.871              1.215              0.619
 Vibration    24          0.898              1.155              0.558
 Vibration    25          0.963              1.023              0.442
 Vibration    26          0.968              1.013              0.435

 Optimization completed.
    -- Stationary point found.
 Normal termination of Gaussian 16 at Sat Dec 12 16:55:42 2020.

 ----------------------------------------------------------------------
 # B3LYP/6-311++G(d,p) empiricaldispersion=gd3bj scf=xqc pop=npa geom=c
 heck
 ----------------------------------------------------------------------

 ---------------------------------------
 CID_71691289_JID_10976_Energie_neutraal
 ---------------------------------------
 Structure from the checkpoint file:  "JID_10976.chk"
 Charge =  0 Multiplicity = 1

 SCF Done:  E(RB3LYP) =  -896.794625274     A.U. after   16 cycles
 Normal termination of Gaussian 16 at Sat Dec 12 17:02:28 2020.

 ----------------------------------------------------------------------
 # B3LYP/6-311++G(d,p) empiricaldispersion=gd3bj scf=xqc pop=npa geom=c
 heck
 ----------------------------------------------------------------------

 -------------------------------------
 CID_71691289_JID_10976_Energie_kation
 -------------------------------------
 Structure from the checkpoint file:  "JID_10976.chk"
 Charge =  1 Multiplicity = 2

 SCF Done:  E(UB3LYP) =  -896.505714113     A.U. after   31 cycles
 Normal termination of Gaussian 16 at Sat Dec 12 17:19:45 2020.
 Gaussian 16:  ES64L-G16RevA.03 25-Dec-2016

 ----------------------------------------------------------------------
 # B3LYP/6-311++G(d,p) empiricaldispersion=gd3bj scf=xqc pop=npa geom=c
 heck
 ----------------------------------------------------------------------

 ------------------------------------
 CID_71691289_JID_10976_Energie_anion
 ------------------------------------
 Structure from the checkpoint file:  "JID_10976.chk"
 Charge = -1 Multiplicity = 2

                         Standard orientation:
 ---------------------------------------------------------------------
 Center     Atomic      Atomic             Coordinates (Angstroms)
 Number     Number       Type             X           Y           Z
 ---------------------------------------------------------------------
      1          6           0        0.696436    3.689570    0.290309
      2          6           0       -0.046580    3.156038   -0.926039
      3          8           0       -0.901104    2.046876   -0.595962
      4          6           0       -0.290361    0.859418   -0.427240
      5          6           0        1.023989    0.452045   -0.544172
      6          6           0        0.979645   -0.946223   -0.298026
      7          7           0       -0.257568   -1.365708   -0.044281
      8          7           0       -1.036428   -0.249310   -0.111533
      9          6           0       -2.439497   -0.370998    0.084272
     10          6           0       -3.039231   -1.606227   -0.183389
     11          6           0       -4.408008   -1.760037    0.016625
     12          6           0       -5.183430   -0.691798    0.472102
     13          6           0       -4.574516    0.534249    0.738014
     14          6           0       -3.202518    0.702064    0.554437
     15          6           0        2.071103   -1.962509   -0.330055
     16          8           0        1.867429   -3.124102   -0.653732
     17          7           0        3.344192   -1.536267    0.001376
     18          6           0        3.687326   -0.384766    0.791653
     19          6           0        5.150444   -0.070942    0.933899
     20          6           0        4.264751    0.843300    0.124722
     21          1           0       -0.012487    4.001313    1.063613
     22          1           0        1.301679    4.557243    0.005270
     23          1           0        1.359800    2.931410    0.716126
     24          1           0       -0.728091    3.907686   -1.330497
     25          1           0        0.641422    2.851716   -1.723855
     26          1           0        1.880711    1.054872   -0.788460
     27          1           0       -2.421280   -2.424333   -0.532035
     28          1           0       -4.870449   -2.720593   -0.191135
     29          1           0       -6.252067   -0.815392    0.620921
     30          1           0       -5.165994    1.369648    1.101688
     31          1           0       -2.731211    1.650621    0.772706
     32          1           0        3.983506   -2.321834    0.048199
     33          1           0        3.057953   -0.217029    1.663628
     34          1           0        5.508884    0.264176    1.902291
     35          1           0        5.850940   -0.698497    0.389149
     36          1           0        4.368080    0.809410   -0.955752
     37          1           0        4.009328    1.817280    0.534078
 ---------------------------------------------------------------------

 SCF Done:  E(UB3LYP) =  -896.792074525     A.U. after   32 cycles

 The electronic state is 2-A.
 Alpha  occ. eigenvalues --  -19.06730 -18.96974 -14.28323 -14.23112 -14.20634
 Alpha  occ. eigenvalues --  -10.15866 -10.15561 -10.13958 -10.12483 -10.10989
 Alpha  occ. eigenvalues --  -10.09410 -10.08553 -10.08377 -10.07540 -10.07509
 Alpha  occ. eigenvalues --  -10.07368 -10.07161 -10.06799 -10.06622 -10.05944
 Alpha  occ. eigenvalues --   -0.99284  -0.93641  -0.92158  -0.83155  -0.77037
 Alpha  occ. eigenvalues --   -0.74952  -0.72441  -0.69242  -0.65863  -0.64714
 Alpha  occ. eigenvalues --   -0.63329  -0.56144  -0.55718  -0.52811  -0.52376
 Alpha  occ. eigenvalues --   -0.52048  -0.49905  -0.47281  -0.45636  -0.44994
 Alpha  occ. eigenvalues --   -0.42301  -0.40331  -0.39802  -0.39401  -0.37508
 Alpha  occ. eigenvalues --   -0.36223  -0.35981  -0.35500  -0.33896  -0.33452
 Alpha  occ. eigenvalues --   -0.33152  -0.32764  -0.32193  -0.30660  -0.29757
 Alpha  occ. eigenvalues --   -0.29321  -0.28907  -0.28380  -0.26919  -0.26463
 Alpha  occ. eigenvalues --   -0.25166  -0.24414  -0.23939  -0.22801  -0.22358
 Alpha  occ. eigenvalues --   -0.18662  -0.18082  -0.15702  -0.15162  -0.14391
 Alpha  occ. eigenvalues --   -0.12717  -0.11878   0.03893
 Alpha virt. eigenvalues --    0.05745   0.06518   0.07075   0.07676   0.08088
 Alpha virt. eigenvalues --    0.08516   0.08835   0.09088   0.09365   0.09871
 Alpha virt. eigenvalues --    0.10022   0.10874   0.11484   0.12189   0.12517

  Beta  occ. eigenvalues --  -19.06734 -18.96857 -14.28309 -14.23112 -14.20377
  Beta  occ. eigenvalues --  -10.15806 -10.15459 -10.13938 -10.12472 -10.10877
  Beta  occ. eigenvalues --  -10.09399 -10.08525 -10.08339 -10.07565 -10.07503
  Beta  occ. eigenvalues --  -10.07331 -10.07140 -10.06668 -10.06561 -10.05973
  Beta  occ. eigenvalues --   -0.99247  -0.93447  -0.91963  -0.83095  -0.76843
  Beta  occ. eigenvalues --   -0.74907  -0.72260  -0.69130  -0.65754  -0.64606
  Beta  occ. eigenvalues --   -0.63148  -0.56040  -0.55467  -0.52757  -0.52312
  Beta  occ. eigenvalues --   -0.51980  -0.49773  -0.47206  -0.45558  -0.44940
  Beta  occ. eigenvalues --   -0.42258  -0.40253  -0.39721  -0.39323  -0.37315
  Beta  occ. eigenvalues --   -0.36151  -0.35870  -0.35417  -0.33688  -0.33333
  Beta  occ. eigenvalues --   -0.33068  -0.32691  -0.32106  -0.30581  -0.29499
  Beta  occ. eigenvalues --   -0.29162  -0.28775  -0.28325  -0.26574  -0.26403
  Beta  occ. eigenvalues --   -0.25115  -0.24309  -0.23763  -0.22604  -0.22325
  Beta  occ. eigenvalues --   -0.18125  -0.17780  -0.15411  -0.14972  -0.14207
  Beta  occ. eigenvalues --   -0.12256  -0.11271
  Beta virt. eigenvalues --    0.06335   0.06767   0.07212   0.07430   0.07849
  Beta virt. eigenvalues --    0.08396   0.08594   0.08936   0.09249   0.09749
  Beta virt. eigenvalues --    0.09990   0.10717   0.11126   0.11843   0.12253

 Mulliken charges and spin densities:
               1          2
     1  C    0.809914  -1.198034
     2  C   -0.368988   0.158160
     3  O   -0.097241   0.011415
     4  C   -0.449444  -0.051424
     5  C    0.699932   0.166735
     6  C   -0.207436  -0.129368
     7  N   -0.044479   0.140971
     8  N    0.306603  -0.017570
     9  C   -0.353951   0.015997
    10  C   -0.258105   0.203440
    11  C   -0.257777  -0.001680
    12  C   -0.372006   0.077559
    13  C   -0.094598   0.032675
    14  C    0.336614  -0.128457
    15  C   -0.390688  -0.040012
    16  O   -0.358306   0.042776
    17  N   -0.118250   0.002075
    18  C   -0.355859   0.198842
    19  C   -0.270744  -0.271068
    20  C    0.177422  -0.462732
    21  H   -0.020903   0.161492
    22  H   -0.572094   0.722744
    23  H    0.003887   0.145870
    24  H   -0.213140   0.410740
    25  H    0.014527   0.121206
    26  H    0.206142   0.002630
    27  H    0.214720  -0.003873
    28  H    0.142841   0.007508
    29  H    0.115975  -0.013301
    30  H    0.096252   0.057103
    31  H    0.227541  -0.054089
    32  H    0.303861  -0.006829
    33  H    0.190536   0.060659
    34  H   -0.070742   0.227835
    35  H    0.126510  -0.009726
    36  H    0.018197   0.164783
    37  H   -0.116723   0.254949
 Sum of Mulliken charges =  -1.00000   1.00000

 Dipole moment (field-independent basis, Debye):
    X=             -1.1364    Y=             -0.8488    Z=              0.8629  Tot=              1.6603
 Quadrupole moment (field-independent basis, Debye-Ang):
   XX=           -166.1206   YY=           -184.5847   ZZ=           -137.6797
   XY=             -9.7756   XZ=              0.3012   YZ=             -2.1878

 Summary of Natural Population Analysis:

                                       Natural Population
                Natural  -----------------------------------------------
    Atom  No    Charge         Core      Valence    Rydberg      Total
 -----------------------------------------------------------------------
      C    1   -0.30118      0.99966     2.29636    0.00516     3.30118
      C    2   -0.00927      0.99958     1.99787    0.01182     3.00927
      O    3   -0.27410      0.99985     3.26563    0.00861     4.27410
      C    4    0.26255      0.99941     1.72379    0.01425     2.73745
      C    5   -0.20491      0.99948     2.19768    0.00775     3.20491
      C    6    0.03411      0.99956     1.95223    0.01410     2.96589
      N    7   -0.10098      0.99970     2.59105    0.01023     3.60098
      N    8   -0.11722      0.99960     2.60521    0.01242     3.61722
      C    9    0.09917      0.99942     1.88953    0.01188     2.90083
      C   10   -0.09233      0.99954     2.08489    0.00790     3.09233
      C   11   -0.10724      0.99958     2.09909    0.00858     3.10724
      C   12   -0.09142      0.99957     2.08282    0.00903     3.09142
      C   13   -0.10318      0.99958     2.09469    0.00892     3.10318
      C   14   -0.10878      0.99954     2.09876    0.01047     3.10878
      C   15    0.34549      0.99963     1.63289    0.02199     2.65451
      O   16   -0.30192      0.99988     3.29663    0.00541     4.30192
      N   17   -0.32646      0.99967     2.81700    0.00979     3.82646
      C   18   -0.02094      0.99958     2.00889    0.01247     3.02094
      C   19   -0.19972      0.99963     2.19216    0.00793     3.19972
      C   20   -0.20430      0.99962     2.19460    0.01008     3.20430
      H   21    0.10008      0.00000     0.39892    0.00100     0.39992
      H   22    0.10593      0.00000     0.39178    0.00229     0.39407
      H   23    0.10371      0.00000     0.39463    0.00166     0.39629
      H   24    0.09176      0.00000     0.40706    0.00118     0.40824
      H   25    0.08661      0.00000     0.41206    0.00132     0.41339
      H   26    0.11272      0.00000     0.38526    0.00202     0.38728
      H   27    0.11690      0.00000     0.38228    0.00082     0.38310
      H   28    0.09591      0.00000     0.40316    0.00092     0.40409
      H   29    0.09322      0.00000     0.40588    0.00090     0.40678
      H   30    0.09638      0.00000     0.40279    0.00084     0.40362
      H   31    0.11097      0.00000     0.38786    0.00117     0.38903
      H   32    0.18878      0.00000     0.30853    0.00268     0.31122
      H   33    0.10292      0.00000     0.39588    0.00119     0.39708
      H   34    0.10414      0.00000     0.39506    0.00080     0.39586
      H   35    0.10047      0.00000     0.39858    0.00095     0.39953
      H   36    0.10536      0.00000     0.39343    0.00121     0.39464
      H   37    0.10677      0.00000     0.39144    0.00179     0.39323
 =======================================================================
   * Total *    0.00002     19.99207    51.77637    0.23153    71.99998

 Normal termination of Gaussian 16 at Sat Dec 12 17:37:33 2020.
