 Gaussian 16, Revision A.03,

 -----------------------------------------------------------
 # opt freq B3LYP/6-31G(d) empiricaldispersion=gd3bj scf=xqc
 -----------------------------------------------------------

 ------------------------------
 CID_79694009_JID_6539_neutraal
 ------------------------------
 Symbolic Z-matrix:
 Charge =  0 Multiplicity = 1

 SCF Done:  E(RB3LYP) =  -1069.67374520     A.U. after   15 cycles
 SCF Done:  E(RB3LYP) =  -1069.67856878     A.U. after   13 cycles
 SCF Done:  E(RB3LYP) =  -1069.67882028     A.U. after   13 cycles
 SCF Done:  E(RB3LYP) =  -1069.67929670     A.U. after   13 cycles
 SCF Done:  E(RB3LYP) =  -1069.67975109     A.U. after   12 cycles
 SCF Done:  E(RB3LYP) =  -1069.67995188     A.U. after   12 cycles
 SCF Done:  E(RB3LYP) =  -1069.68017127     A.U. after   13 cycles
 SCF Done:  E(RB3LYP) =  -1069.68035352     A.U. after   12 cycles
 SCF Done:  E(RB3LYP) =  -1069.68054470     A.U. after   14 cycles
 SCF Done:  E(RB3LYP) =  -1069.68063277     A.U. after   11 cycles
 SCF Done:  E(RB3LYP) =  -1069.68214830     A.U. after   11 cycles
 SCF Done:  E(RB3LYP) =  -1069.68214813     A.U. after    9 cycles
 SCF Done:  E(RB3LYP) =  -1069.68214786     A.U. after    8 cycles
 SCF Done:  E(RB3LYP) =  -1069.68214882     A.U. after    9 cycles
 SCF Done:  E(RB3LYP) =  -1069.68214888     A.U. after    8 cycles
 SCF Done:  E(RB3LYP) =  -1069.68214889     A.U. after    7 cycles
 Optimization completed.
    -- Stationary point found.
 Normal termination of Gaussian 16 at Thu Dec 10 23:45:45 2020.

 --------------------------------------------------------------------
 #N Geom=AllCheck Guess=TCheck SCRF=Check GenChk RB3LYP/6-31G(d) Freq
 --------------------------------------------------------------------

 Structure from the checkpoint file:  "JID_6539.chk"
 ------------------------------
 CID_79694009_JID_6539_neutraal
 ------------------------------
 Charge =  0 Multiplicity = 1

 SCF Done:  E(RB3LYP) =  -1069.68214889     A.U. after    1 cycles

  Exact polarizability: 233.381 -21.834 143.274   5.814  16.537 110.356
 Approx polarizability: 329.576 -53.769 230.982  15.834  39.515 180.041

                      1                      2                      3
                      A                      A                      A
 Frequencies --     21.1319                23.7071                30.7884
 Red. masses --      4.1610                 3.7728                 4.5532
 Frc consts  --      0.0011                 0.0012                 0.0025
 IR Inten    --      0.8642                 0.9438                 0.2772

                      4                      5                      6
                      A                      A                      A
 Frequencies --     45.5436                61.1950                68.8164
 Red. masses --      4.6562                 3.3642                 5.5642
 Frc consts  --      0.0057                 0.0074                 0.0155
 IR Inten    --      1.1638                 1.1424                 0.9360

                      7                      8                      9
                      A                      A                      A
 Frequencies --     91.0999               104.2098               152.8764
 Red. masses --      2.9197                 4.5709                 4.1435
 Frc consts  --      0.0143                 0.0292                 0.0571
 IR Inten    --      2.5389                 2.6850                 0.3618

                     10                     11                     12
                      A                      A                      A
 Frequencies --    168.0669               200.0129               217.5265
 Red. masses --      2.6164                 3.4174                 2.4548
 Frc consts  --      0.0435                 0.0805                 0.0684
 IR Inten    --      2.6659                 0.9406                 3.4248

                     13                     14                     15
                      A                      A                      A
 Frequencies --    259.2554               283.4390               306.6043
 Red. masses --      2.7870                 1.6607                 3.6259
 Frc consts  --      0.1104                 0.0786                 0.2008
 IR Inten    --     29.9149                 1.5038                 2.1571

                     16                     17                     18
                      A                      A                      A
 Frequencies --    331.6070               344.7604               380.8889
 Red. masses --      2.1228                 2.2599                 4.3105
 Frc consts  --      0.1375                 0.1583                 0.3684
 IR Inten    --     75.3194                61.3524                 7.1738

                     19                     20                     21
                      A                      A                      A
 Frequencies --    395.0088               434.8573               476.0401
 Red. masses --      2.6377                 4.0297                 5.6815
 Frc consts  --      0.2425                 0.4490                 0.7586
 IR Inten    --      3.6848                 4.5791                 0.4024

                     22                     23                     24
                      A                      A                      A
 Frequencies --    508.4042               537.9707               547.3160
 Red. masses --      4.0074                 4.2107                 5.5004
 Frc consts  --      0.6103                 0.7180                 0.9708
 IR Inten    --      0.4725                 3.7312                22.4870

                     25                     26                     27
                      A                      A                      A
 Frequencies --    593.2898               604.9603               618.5783
 Red. masses --      6.2809                 3.2135                 4.2795
 Frc consts  --      1.3026                 0.6929                 0.9648
 IR Inten    --     11.6411                34.5321                13.0196

                     28                     29                     30
                      A                      A                      A
 Frequencies --    700.2595               725.0710               744.9789
 Red. masses --      5.2213                 1.6630                 1.3036
 Frc consts  --      1.5085                 0.5151                 0.4263
 IR Inten    --      1.9598                10.1373                38.3377

                     31                     32                     33
                      A                      A                      A
 Frequencies --    779.1705               813.5432               820.2766
 Red. masses --      1.7178                 2.4474                 2.2710
 Frc consts  --      0.6145                 0.9544                 0.9003
 IR Inten    --     96.0783                19.5514                11.2945

                     34                     35                     36
                      A                      A                      A
 Frequencies --    851.7140               877.1260               880.4086
 Red. masses --      3.1323                 1.4893                 1.6631
 Frc consts  --      1.3388                 0.6751                 0.7595
 IR Inten    --      4.8818                15.7884                 3.7332

                     37                     38                     39
                      A                      A                      A
 Frequencies --    891.9382               951.4926               963.7110
 Red. masses --      4.6223                 2.9351                 2.0570
 Frc consts  --      2.1666                 1.5656                 1.1256
 IR Inten    --     22.4960                16.1991                 3.2272

                     40                     41                     42
                      A                      A                      A
 Frequencies --    982.1312               994.1574              1053.1190
 Red. masses --      1.7619                 1.6512                 6.3745
 Frc consts  --      1.0013                 0.9615                 4.1653
 IR Inten    --      9.1703                28.0655               116.3687

                     43                     44                     45
                      A                      A                      A
 Frequencies --   1058.3207              1090.0269              1129.6687
 Red. masses --      1.5563                 2.1053                 1.7074
 Frc consts  --      1.0270                 1.4738                 1.2838
 IR Inten    --      2.1049                 2.6127                 2.9339

                     46                     47                     48
                      A                      A                      A
 Frequencies --   1153.7829              1169.3080              1218.3818
 Red. masses --      1.8575                 2.6106                 1.6540
 Frc consts  --      1.4569                 2.1030                 1.4466
 IR Inten    --      7.0859                 7.2509                36.6333

                     49                     50                     51
                      A                      A                      A
 Frequencies --   1224.7287              1232.1291              1254.8045
 Red. masses --      1.1524                 2.6824                 1.4378
 Frc consts  --      1.0184                 2.3993                 1.3338
 IR Inten    --     14.1140                24.7727                38.4323

                     52                     53                     54
                      A                      A                      A
 Frequencies --   1286.7109              1333.3568              1354.4181
 Red. masses --      1.3388                 1.4456                 1.5273
 Frc consts  --      1.3059                 1.5142                 1.6508
 IR Inten    --     21.9134               112.4119                90.0162

                     55                     56                     57
                      A                      A                      A
 Frequencies --   1370.1150              1393.3597              1406.9758
 Red. masses --      1.2159                 1.5349                 1.5229
 Frc consts  --      1.3448                 1.7558                 1.7762
 IR Inten    --      3.4583                 1.7800                 1.1583

                     58                     59                     60
                      A                      A                      A
 Frequencies --   1413.4009              1428.5602              1430.4981
 Red. masses --      2.4348                 1.7184                 1.2748
 Frc consts  --      2.8658                 2.0662                 1.5370
 IR Inten    --     21.6828                65.6798               112.5085

                     61                     62                     63
                      A                      A                      A
 Frequencies --   1445.4929              1486.1424              1497.8823
 Red. masses --      1.2644                 1.3944                 5.9341
 Frc consts  --      1.5565                 1.8145                 7.8444
 IR Inten    --      4.5358                24.1804                96.3315

                     64                     65                     66
                      A                      A                      A
 Frequencies --   1510.5901              1516.1330              1523.6189
 Red. masses --      1.0885                 1.0792                 1.0745
 Frc consts  --      1.4635                 1.4616                 1.4696
 IR Inten    --      4.5327                 1.0738                 6.2486

                     67                     68                     69
                      A                      A                      A
 Frequencies --   1528.3783              1535.9884              1540.0117
 Red. masses --      1.1162                 1.0730                 1.0749
 Frc consts  --      1.5362                 1.4914                 1.5020
 IR Inten    --     20.3438                10.8441                 8.5985

                     70                     71                     72
                      A                      A                      A
 Frequencies --   1590.7740              1766.3800              2331.3979
 Red. masses --      6.1746                 8.2774                11.9141
 Frc consts  --      9.2061                15.2164                38.1544
 IR Inten    --     26.7439               300.9064                17.0463

                     73                     74                     75
                      A                      A                      A
 Frequencies --   2995.5084              3034.6886              3042.7522
 Red. masses --      1.0716                 1.0620                 1.0414
 Frc consts  --      5.6651                 5.7622                 5.6809
 IR Inten    --     55.4555                22.8021                12.1485

                     76                     77                     78
                      A                      A                      A
 Frequencies --   3047.1127              3073.6796              3077.1173
 Red. masses --      1.0590                 1.0964                 1.0966
 Frc consts  --      5.7932                 6.1026                 6.1178
 IR Inten    --     23.9635                 9.5714                 4.2817

                     79                     80                     81
                      A                      A                      A
 Frequencies --   3090.8648              3094.9104              3106.1435
 Red. masses --      1.0898                 1.0729                 1.1016
 Frc consts  --      6.1343                 6.0551                 6.2621
 IR Inten    --     18.2906                60.4386                67.7908

                     82                     83                     84
                      A                      A                      A
 Frequencies --   3118.1032              3138.8848              3245.3483
 Red. masses --      1.1008                 1.1013                 1.0932
 Frc consts  --      6.3060                 6.3930                 6.7836
 IR Inten    --     39.9932                31.7524                 0.8845

                     85                     86                     87
                      A                      A                      A
 Frequencies --   3279.7971              3562.5118              3741.2911
 Red. masses --      1.0935                 1.0748                 1.0663
 Frc consts  --      6.9308                 8.0368                 8.7937
 IR Inten    --      6.5636                15.5129                13.9220

 - Thermochemistry -
 -------------------
 Temperature   298.150 Kelvin.  Pressure   1.00000 Atm.
 Atom     1 has atomic number  6 and mass  12.00000

 Molecular mass:   237.08235 amu.
 Principal axes and moments of inertia in atomic units:
                           1         2         3
     Eigenvalues --  2372.759989253.82542**********
           X            0.99985   0.01453  -0.00985
           Y           -0.01452   0.99989   0.00133
           Z            0.00987  -0.00119   0.99995
 This molecule is an asymmetric top.
 Rotational symmetry number  1.
 Warning -- assumption of classical behavior for rotation
           may cause significant error
 Rotational temperatures (Kelvin)      0.03650     0.00936     0.00825
 Rotational constants (GHZ):           0.76061     0.19503     0.17186
 Zero-point vibrational energy     662175.5 (Joules/Mol)
                                  158.26375 (Kcal/Mol)
 Warning -- explicit consideration of  27 degrees of freedom as
           vibrations may cause significant error
 Vibrational temperatures:     30.40    34.11    44.30    65.53    88.05
          (Kelvin)             99.01   131.07   149.93   219.96   241.81
                              287.77   312.97   373.01   407.81   441.14
                              477.11   496.03   548.01   568.33   625.66
                              684.92   731.48   774.02   787.47   853.61
                              870.40   890.00  1007.52  1043.22  1071.86
                             1121.05  1170.51  1180.20  1225.43  1261.99
                             1266.71  1283.30  1368.99  1386.57  1413.07
                             1430.37  1515.20  1522.69  1568.31  1625.34
                             1660.04  1682.37  1752.98  1762.11  1772.76
                             1805.38  1851.29  1918.40  1948.71  1971.29
                             2004.73  2024.32  2033.57  2055.38  2058.17
                             2079.74  2138.23  2155.12  2173.40  2181.38
                             2192.15  2199.00  2209.94  2215.73  2288.77
                             2541.43  3354.36  4309.87  4366.24  4377.84
                             4384.12  4422.34  4427.29  4447.07  4452.89
                             4469.05  4486.26  4516.16  4669.33  4718.90
                             5125.66  5382.88

 Zero-point correction=                           0.252209 (Hartree/Particle)
 Thermal correction to Energy=                    0.269569
 Thermal correction to Enthalpy=                  0.270514
 Thermal correction to Gibbs Free Energy=         0.203297
 Sum of electronic and zero-point Energies=          -1069.429940
 Sum of electronic and thermal Energies=             -1069.412579
 Sum of electronic and thermal Enthalpies=           -1069.411635
 Sum of electronic and thermal Free Energies=        -1069.478852

                     E (Thermal)             CV                S
                      KCal/Mol        Cal/Mol-Kelvin    Cal/Mol-Kelvin
 Total                  169.157             62.000            141.469
 Electronic               0.000              0.000              0.000
 Translational            0.889              2.981             42.291
 Rotational               0.889              2.981             33.799
 Vibrational            167.380             56.038             65.378
 Vibration     1          0.593              1.985              6.525
 Vibration     2          0.593              1.985              6.297
 Vibration     3          0.594              1.984              5.778
 Vibration     4          0.595              1.979              5.002
 Vibration     5          0.597              1.973              4.418
 Vibration     6          0.598              1.969              4.187
 Vibration     7          0.602              1.956              3.636
 Vibration     8          0.605              1.946              3.374
 Vibration     9          0.619              1.899              2.636
 Vibration    10          0.625              1.882              2.457
 Vibration    11          0.638              1.840              2.133
 Vibration    12          0.646              1.814              1.980
 Vibration    13          0.668              1.747              1.667
 Vibration    14          0.682              1.704              1.513
 Vibration    15          0.697              1.661              1.381
 Vibration    16          0.714              1.612              1.252
 Vibration    17          0.723              1.586              1.190
 Vibration    18          0.751              1.511              1.036
 Vibration    19          0.762              1.481              0.981
 Vibration    20          0.795              1.394              0.843
 Vibration    21          0.833              1.303              0.721
 Vibration    22          0.864              1.231              0.637
 Vibration    23          0.893              1.166              0.570
 Vibration    24          0.903              1.146              0.550
 Vibration    25          0.951              1.046              0.461
 Vibration    26          0.964              1.021              0.441
 Vibration    27          0.978              0.993              0.419

 Optimization completed.
    -- Stationary point found.
 Normal termination of Gaussian 16 at Thu Dec 10 23:53:49 2020.

 ----------------------------------------------------------------------
 # B3LYP/6-311++G(d,p) empiricaldispersion=gd3bj scf=xqc pop=npa geom=c
 heck
 ----------------------------------------------------------------------

 --------------------------------------
 CID_79694009_JID_6539_Energie_neutraal
 --------------------------------------
 Structure from the checkpoint file:  "JID_6539.chk"
 Charge =  0 Multiplicity = 1

 SCF Done:  E(RB3LYP) =  -1069.91109514     A.U. after   16 cycles
 Normal termination of Gaussian 16 at Thu Dec 10 23:57:33 2020.

 ----------------------------------------------------------------------
 # B3LYP/6-311++G(d,p) empiricaldispersion=gd3bj scf=xqc pop=npa geom=c
 heck
 ----------------------------------------------------------------------

 ------------------------------------
 CID_79694009_JID_6539_Energie_kation
 ------------------------------------
 Structure from the checkpoint file:  "JID_6539.chk"
 Charge =  1 Multiplicity = 2

 SCF Done:  E(UB3LYP) =  -1069.60940370     A.U. after   26 cycles
 Normal termination of Gaussian 16 at Fri Dec 11 00:05:31 2020.
 Gaussian 16:  ES64L-G16RevA.03 25-Dec-2016

 ----------------------------------------------------------------------
 # B3LYP/6-311++G(d,p) empiricaldispersion=gd3bj scf=xqc pop=npa geom=c
 heck
 ----------------------------------------------------------------------

 -----------------------------------
 CID_79694009_JID_6539_Energie_anion
 -----------------------------------
 Structure from the checkpoint file:  "JID_6539.chk"
 Charge = -1 Multiplicity = 2

                         Standard orientation:
 ---------------------------------------------------------------------
 Center     Atomic      Atomic             Coordinates (Angstroms)
 Number     Number       Type             X           Y           Z
 ---------------------------------------------------------------------
      1          6           0       -5.113944   -1.910118    0.353378
      2          6           0       -4.101014   -1.018757    1.078618
      3          6           0       -2.637721   -1.424122    0.854023
      4          6           0       -2.185658   -1.392939   -0.613805
      5          7           0       -2.438787   -0.112192   -1.285955
      6          6           0       -1.933227    1.102554   -0.867764
      7          8           0       -2.586148    2.136047   -0.966946
      8          6           0       -0.541855    1.115620   -0.326569
      9          6           0       -0.182743    2.016902    0.648049
     10         16           0        1.476236    1.882951    1.088844
     11          6           0        1.731620    0.594836   -0.085648
     12          6           0        0.557347    0.308699   -0.748359
     13          6           0        3.001118    0.009815   -0.253575
     14          6           0        4.110432   -0.465158   -0.387136
     15          6           0        5.413782   -1.117542   -0.530814
     16          8           0        5.685427   -2.077034    0.486511
     17          1           0       -5.015260   -1.842838   -0.736969
     18          1           0       -6.140802   -1.623209    0.603405
     19          1           0       -4.983578   -2.963720    0.629629
     20          1           0       -4.239635    0.025665    0.770749
     21          1           0       -4.304422   -1.044658    2.156317
     22          1           0       -1.985658   -0.756159    1.430901
     23          1           0       -2.468447   -2.439300    1.239703
     24          1           0       -1.121986   -1.631719   -0.671734
     25          1           0       -2.708147   -2.156355   -1.197956
     26          1           0       -3.395280    0.011438   -1.602467
     27          1           0       -0.829294    2.751223    1.107952
     28          1           0        0.505185   -0.427071   -1.540792
     29          1           0        6.216820   -0.376278   -0.457522
     30          1           0        5.482304   -1.565789   -1.535526
     31          1           0        4.936885   -2.693948    0.505582
 ---------------------------------------------------------------------

 SCF Done:  E(UB3LYP) =  -1069.92196768     A.U. after   28 cycles

 The electronic state is 2-A.
 Alpha  occ. eigenvalues --  -88.73367 -19.01747 -18.97338 -14.22273 -10.15616
 Alpha  occ. eigenvalues --  -10.12989 -10.10752 -10.08318 -10.08291 -10.07601
 Alpha  occ. eigenvalues --  -10.07074 -10.04977 -10.04914 -10.04572 -10.04458
 Alpha  occ. eigenvalues --  -10.03502  -7.82029  -5.78330  -5.77962  -5.77649
 Alpha  occ. eigenvalues --   -0.92351  -0.91966  -0.81337  -0.74980  -0.70593
 Alpha  occ. eigenvalues --   -0.65748  -0.63448  -0.62047  -0.60931  -0.56898
 Alpha  occ. eigenvalues --   -0.56366  -0.50711  -0.48239  -0.46862  -0.41974
 Alpha  occ. eigenvalues --   -0.41758  -0.39188  -0.38588  -0.38115  -0.36571
 Alpha  occ. eigenvalues --   -0.36002  -0.34088  -0.33833  -0.31969  -0.31367
 Alpha  occ. eigenvalues --   -0.30037  -0.29544  -0.28893  -0.27323  -0.26550
 Alpha  occ. eigenvalues --   -0.25890  -0.25464  -0.25128  -0.24502  -0.23980
 Alpha  occ. eigenvalues --   -0.21761  -0.18920  -0.17835  -0.15895  -0.14371
 Alpha  occ. eigenvalues --   -0.13862  -0.12838  -0.09749   0.03816
 Alpha virt. eigenvalues --    0.05541   0.07351   0.07735   0.08211   0.09108
 Alpha virt. eigenvalues --    0.09411   0.09981   0.10732   0.10831   0.11318
 Alpha virt. eigenvalues --    0.11525   0.12101   0.12191   0.13260   0.14075

  Beta  occ. eigenvalues --  -88.73291 -19.01661 -18.97333 -14.22261 -10.15577
  Beta  occ. eigenvalues --  -10.12991 -10.10731 -10.08309 -10.08286 -10.07599
  Beta  occ. eigenvalues --  -10.06881 -10.05030 -10.04462 -10.04440 -10.04412
  Beta  occ. eigenvalues --  -10.03365  -7.81961  -5.78299  -5.77932  -5.77392
  Beta  occ. eigenvalues --   -0.92324  -0.91755  -0.81305  -0.74590  -0.70581
  Beta  occ. eigenvalues --   -0.65403  -0.63415  -0.61794  -0.60463  -0.56802
  Beta  occ. eigenvalues --   -0.56244  -0.50546  -0.48134  -0.46305  -0.41743
  Beta  occ. eigenvalues --   -0.41518  -0.39149  -0.38424  -0.38096  -0.36450
  Beta  occ. eigenvalues --   -0.35963  -0.33972  -0.33705  -0.31909  -0.31331
  Beta  occ. eigenvalues --   -0.29985  -0.29405  -0.28729  -0.27125  -0.26309
  Beta  occ. eigenvalues --   -0.25453  -0.25284  -0.25099  -0.24198  -0.23773
  Beta  occ. eigenvalues --   -0.21379  -0.18622  -0.16875  -0.15788  -0.14309
  Beta  occ. eigenvalues --   -0.13793  -0.11879  -0.08129
  Beta virt. eigenvalues --    0.05590   0.07322   0.07697   0.08121   0.08968
  Beta virt. eigenvalues --    0.09238   0.09854   0.10304   0.10708   0.10951
  Beta virt. eigenvalues --    0.11255   0.11533   0.12015   0.12116   0.13327

 Mulliken charges and spin densities:
               1          2
     1  C   -0.211382  -0.378940
     2  C   -0.490717   0.165058
     3  C   -0.327652   0.067207
     4  C    0.189685  -0.295108
     5  N   -0.175276   0.007847
     6  C   -0.733670   0.049071
     7  O   -0.323990   0.000392
     8  C   -0.542015  -0.073315
     9  C    0.742252   0.354189
    10  S   -0.782900   0.115792
    11  C    0.013227   0.042984
    12  C    0.011233   0.123291
    13  C    0.127693   0.053514
    14  C    0.112304   0.196132
    15  C   -0.171819  -0.152381
    16  O   -0.211862  -0.040386
    17  H    0.024993   0.098381
    18  H    0.065890   0.064887
    19  H    0.040713   0.090197
    20  H    0.222082  -0.008849
    21  H    0.118505   0.014488
    22  H    0.178230   0.018880
    23  H    0.102988   0.036039
    24  H    0.053878   0.045784
    25  H    0.005243   0.172961
    26  H    0.274881   0.026923
    27  H    0.246811  -0.025736
    28  H    0.147928  -0.010762
    29  H    0.126553   0.035532
    30  H    0.084481   0.056383
    31  H    0.081714   0.149544
 Sum of Mulliken charges =  -1.00000   1.00000

 Dipole moment (field-independent basis, Debye):
    X=             -5.2273    Y=             -2.7872    Z=              0.0596  Tot=              5.9243
 Quadrupole moment (field-independent basis, Debye-Ang):
   XX=           -179.9783   YY=           -133.0284   ZZ=           -117.1949
   XY=             14.8658   XZ=            -12.1134   YZ=              5.3597

 Summary of Natural Population Analysis:

                                       Natural Population
                Natural  -----------------------------------------------
    Atom  No    Charge         Core      Valence    Rydberg      Total
 -----------------------------------------------------------------------
      C    1   -0.28718      0.99967     2.28306    0.00445     3.28718
      C    2   -0.19772      0.99964     2.18971    0.00836     3.19772
      C    3   -0.19970      0.99963     2.19164    0.00843     3.19970
      C    4   -0.09295      0.99962     2.08157    0.01176     3.09295
      N    5   -0.32681      0.99969     2.81679    0.01033     3.82681
      C    6    0.34757      0.99961     1.63133    0.02149     2.65243
      O    7   -0.32706      0.99988     3.32144    0.00574     4.32706
      C    8   -0.13611      0.99942     2.12305    0.01364     3.13611
      C    9   -0.06424      0.99950     2.05525    0.00949     3.06424
      S   10    0.22985      4.99944     2.74963    0.02108     7.77015
      C   11   -0.11397      0.99943     2.10238    0.01216     3.11397
      C   12   -0.08425      0.99946     2.07573    0.00906     3.08425
      C   13   -0.00551      0.99927     1.99849    0.00774     3.00551
      C   14   -0.01167      0.99927     2.00648    0.00592     3.01167
      C   15   -0.04691      0.99955     2.03315    0.01421     3.04691
      O   16   -0.36359      0.99990     3.35641    0.00728     4.36359
      H   17    0.09438      0.00000     0.40450    0.00111     0.40562
      H   18    0.09737      0.00000     0.40178    0.00086     0.40263
      H   19    0.09436      0.00000     0.40450    0.00114     0.40564
      H   20    0.10130      0.00000     0.39747    0.00123     0.39870
      H   21    0.09452      0.00000     0.40457    0.00091     0.40548
      H   22    0.10813      0.00000     0.39075    0.00112     0.39187
      H   23    0.09383      0.00000     0.40521    0.00096     0.40617
      H   24    0.10628      0.00000     0.39259    0.00113     0.39372
      H   25    0.09268      0.00000     0.40638    0.00094     0.40732
      H   26    0.18403      0.00000     0.31318    0.00279     0.31597
      H   27    0.10393      0.00000     0.39519    0.00088     0.39607
      H   28    0.10223      0.00000     0.39676    0.00100     0.39777
      H   29    0.09449      0.00000     0.40411    0.00140     0.40551
      H   30    0.08472      0.00000     0.41379    0.00149     0.41528
      H   31    0.22800      0.00000     0.26826    0.00373     0.27200
 =======================================================================
   * Total *   -0.00000     19.99298    42.81517    0.19185    63.00000

 Normal termination of Gaussian 16 at Fri Dec 11 00:14:11 2020.
