 Gaussian 16, Revision A.03,

 -----------------------------------------------------------
 # opt freq B3LYP/6-31G(d) empiricaldispersion=gd3bj scf=xqc
 -----------------------------------------------------------

 -----------------------------
 CID_21688111_JID_344_neutraal
 -----------------------------
 Symbolic Z-matrix:
 Charge =  0 Multiplicity = 1

 SCF Done:  E(RB3LYP) =  -439.047596502     A.U. after   15 cycles
 SCF Done:  E(RB3LYP) =  -439.051744230     A.U. after   13 cycles
 SCF Done:  E(RB3LYP) =  -439.052037328     A.U. after   11 cycles
 SCF Done:  E(RB3LYP) =  -439.052058988     A.U. after   10 cycles
 SCF Done:  E(RB3LYP) =  -439.052017116     A.U. after   11 cycles
 SCF Done:  E(RB3LYP) =  -439.052065151     A.U. after   10 cycles
 Optimization completed.
    -- Stationary point found.
 Normal termination of Gaussian 16 at Tue Dec  8 10:23:18 2020.

 --------------------------------------------------------------------
 #N Geom=AllCheck Guess=TCheck SCRF=Check GenChk RB3LYP/6-31G(d) Freq
 --------------------------------------------------------------------

 Structure from the checkpoint file:  "JID_344.chk"
 -----------------------------
 CID_21688111_JID_344_neutraal
 -----------------------------
 Charge =  0 Multiplicity = 1

 SCF Done:  E(RB3LYP) =  -439.052065151     A.U. after    1 cycles

  Exact polarizability: 132.815   0.357  92.349  -0.003   0.001  37.112
 Approx polarizability: 220.598   6.824 154.570   0.020   0.017  57.880

                      1                      2                      3
                      A                      A                      A
 Frequencies --     63.7904               187.0865               213.6242
 Red. masses --      3.6691                 4.0240                 2.9476
 Frc consts  --      0.0088                 0.0830                 0.0793
 IR Inten    --      5.0902                 3.0335                 4.5872

                      4                      5                      6
                      A                      A                      A
 Frequencies --    332.9875               374.1528               433.4276
 Red. masses --      5.2034                 2.9689                 8.8819
 Frc consts  --      0.3399                 0.2449                 0.9831
 IR Inten    --      0.7168                 0.7727                 7.2042

                      7                      8                      9
                      A                      A                      A
 Frequencies --    470.6214               495.6648               588.0751
 Red. masses --      5.5265                 1.4465                 2.5948
 Frc consts  --      0.7212                 0.2094                 0.5287
 IR Inten    --     11.6778                76.0982                 0.0762

                     10                     11                     12
                      A                      A                      A
 Frequencies --    613.0695               632.4075               661.5815
 Red. masses --      5.4431                 2.3913                 2.3495
 Frc consts  --      1.2054                 0.5635                 0.6059
 IR Inten    --     10.8327                 7.2854                10.7494

                     13                     14                     15
                      A                      A                      A
 Frequencies --    703.3914               720.3983               802.0243
 Red. masses --      1.3252                 6.3936                 3.6092
 Frc consts  --      0.3863                 1.9550                 1.3679
 IR Inten    --     38.1111                20.3155                 0.2948

                     16                     17                     18
                      A                      A                      A
 Frequencies --    815.4043               847.8690               858.6704
 Red. masses --      1.3894                 1.4170                 3.9287
 Frc consts  --      0.5443                 0.6002                 1.7067
 IR Inten    --      6.1207                25.0301                 1.8860

                     19                     20                     21
                      A                      A                      A
 Frequencies --    931.0839               952.7103              1009.1847
 Red. masses --      4.4089                 2.8062                 1.3042
 Frc consts  --      2.2519                 1.5007                 0.7826
 IR Inten    --      3.5936                 9.5456                 0.0509

                     22                     23                     24
                      A                      A                      A
 Frequencies --   1090.9906              1100.4075              1135.7982
 Red. masses --      1.4307                 1.8185                 1.4578
 Frc consts  --      1.0033                 1.2974                 1.1080
 IR Inten    --      5.6545                17.3797                10.6200

                     25                     26                     27
                      A                      A                      A
 Frequencies --   1205.6319              1208.7615              1236.3416
 Red. masses --      1.1339                 3.5139                 1.4580
 Frc consts  --      0.9711                 3.0250                 1.3131
 IR Inten    --      1.1455                29.3457                 4.3156

                     28                     29                     30
                      A                      A                      A
 Frequencies --   1254.4741              1298.8077              1359.6785
 Red. masses --      1.8791                 2.0817                 2.0184
 Frc consts  --      1.7423                 2.0690                 2.1985
 IR Inten    --     27.2175                 0.7840                33.1465

                     31                     32                     33
                      A                      A                      A
 Frequencies --   1428.2672              1441.7528              1463.9833
 Red. masses --      2.5305                 2.1911                 1.2511
 Frc consts  --      3.0414                 2.6835                 1.5799
 IR Inten    --     27.0179                59.3780                 5.6020

                     34                     35                     36
                      A                      A                      A
 Frequencies --   1519.8001              1536.8615              1608.7185
 Red. masses --      5.5797                 3.7614                 5.2029
 Frc consts  --      7.5933                 5.2344                 7.9333
 IR Inten    --      5.9984                57.3608                83.5656

                     37                     38                     39
                      A                      A                      A
 Frequencies --   1663.8569              1757.1198              3034.9785
 Red. masses --      5.4446                11.6828                 1.0601
 Frc consts  --      8.8808                21.2520                 5.7534
 IR Inten    --     50.9022               314.8631                10.0425

                     40                     41                     42
                      A                      A                      A
 Frequencies --   3064.4353              3178.8580              3219.5335
 Red. masses --      1.1008                 1.0887                 1.0939
 Frc consts  --      6.0907                 6.4819                 6.6805
 IR Inten    --      5.7226                15.1018                 7.9896

                     43                     44                     45
                      A                      A                      A
 Frequencies --   3260.8487              3289.1627              3655.0208
 Red. masses --      1.0919                 1.1019                 1.0803
 Frc consts  --      6.8406                 7.0236                 8.5028
 IR Inten    --      3.9179                 2.6656                59.0301

 - Thermochemistry -
 -------------------
 Temperature   298.150 Kelvin.  Pressure   1.00000 Atm.
 Atom     1 has atomic number  6 and mass  12.00000

 Molecular mass:   133.05276 amu.
 Principal axes and moments of inertia in atomic units:
                           1         2         3
     Eigenvalues --   534.498241721.053262244.51189
           X            0.99997  -0.00826  -0.00003
           Y            0.00826   0.99997  -0.00005
           Z            0.00003   0.00005   1.00000
 This molecule is an asymmetric top.
 Rotational symmetry number  1.
 Warning -- assumption of classical behavior for rotation
           may cause significant error
 Rotational temperatures (Kelvin)      0.16205     0.05033     0.03859
 Rotational constants (GHZ):           3.37651     1.04863     0.80407
 Zero-point vibrational energy     351231.5 (Joules/Mol)
                                   83.94633 (Kcal/Mol)
 Warning -- explicit consideration of  10 degrees of freedom as
           vibrations may cause significant error
 Vibrational temperatures:     91.78   269.18   307.36   479.09   538.32
          (Kelvin)            623.61   677.12   713.15   846.11   882.07
                              909.89   951.87  1012.02  1036.49  1153.93
                             1173.18  1219.89  1235.44  1339.62  1370.74
                             1451.99  1569.69  1583.24  1634.16  1734.64
                             1739.14  1778.82  1804.91  1868.69  1956.27
                             2054.96  2074.36  2106.35  2186.65  2211.20
                             2314.59  2393.92  2528.10  4366.66  4409.04
                             4573.67  4632.19  4691.63  4732.37  5258.76

 Zero-point correction=                           0.133777 (Hartree/Particle)
 Thermal correction to Energy=                    0.141408
 Thermal correction to Enthalpy=                  0.142353
 Thermal correction to Gibbs Free Energy=         0.101202
 Sum of electronic and zero-point Energies=           -438.918288
 Sum of electronic and thermal Energies=              -438.910657
 Sum of electronic and thermal Enthalpies=            -438.909712
 Sum of electronic and thermal Free Energies=         -438.950863

                     E (Thermal)             CV                S
                      KCal/Mol        Cal/Mol-Kelvin    Cal/Mol-Kelvin
 Total                   88.735             30.301             86.609
 Electronic               0.000              0.000              0.000
 Translational            0.889              2.981             40.569
 Rotational               0.889              2.981             29.114
 Vibrational             86.958             24.339             16.926
 Vibration     1          0.597              1.972              4.336
 Vibration     2          0.632              1.858              2.257
 Vibration     3          0.644              1.820              2.012
 Vibration     4          0.715              1.610              1.246
 Vibration     5          0.745              1.525              1.063
 Vibration     6          0.794              1.397              0.848
 Vibration     7          0.828              1.315              0.736
 Vibration     8          0.851              1.260              0.669
 Vibration     9          0.945              1.057              0.471
 Vibration    10          0.972              1.004              0.428

                           ! Non-Optimized Parameters !
 Normal termination of Gaussian 16 at Tue Dec  8 10:26:02 2020.

 ----------------------------------------------------------------------
 # B3LYP/6-311++G(d,p) empiricaldispersion=gd3bj scf=xqc pop=npa geom=c
 heck
 ----------------------------------------------------------------------

 -------------------------------------
 CID_21688111_JID_344_Energie_neutraal
 -------------------------------------
 Structure from the checkpoint file:  "JID_344.chk"
 Charge =  0 Multiplicity = 1

 SCF Done:  E(RB3LYP) =  -439.174933008     A.U. after   15 cycles
 Normal termination of Gaussian 16 at Tue Dec  8 10:26:42 2020.

 ----------------------------------------------------------------------
 # B3LYP/6-311++G(d,p) empiricaldispersion=gd3bj scf=xqc pop=npa geom=c
 heck
 ----------------------------------------------------------------------

 -----------------------------------
 CID_21688111_JID_344_Energie_kation
 -----------------------------------
 Structure from the checkpoint file:  "JID_344.chk"
 Charge =  1 Multiplicity = 2

 SCF Done:  E(UB3LYP) =  -438.885976123     A.U. after   22 cycles
 Normal termination of Gaussian 16 at Tue Dec  8 10:28:15 2020.
 Gaussian 16:  ES64L-G16RevA.03 25-Dec-2016

 ----------------------------------------------------------------------
 # B3LYP/6-311++G(d,p) empiricaldispersion=gd3bj scf=xqc pop=npa geom=c
 heck
 ----------------------------------------------------------------------

 ----------------------------------
 CID_21688111_JID_344_Energie_anion
 ----------------------------------
 Structure from the checkpoint file:  "JID_344.chk"
 Charge = -1 Multiplicity = 2

                         Standard orientation:
 ---------------------------------------------------------------------
 Center     Atomic      Atomic             Coordinates (Angstroms)
 Number     Number       Type             X           Y           Z
 ---------------------------------------------------------------------
      1          6           0       -0.812421   -1.237347    0.001743
      2          6           0       -1.969684   -0.209773    0.000124
      3          8           0       -3.124343   -0.618136   -0.002035
      4          6           0       -1.635640    1.217666    0.000456
      5          6           0       -0.354205    1.667001    0.000474
      6          6           0        0.765439    0.759794    0.000304
      7          6           0        0.537369   -0.609816    0.000424
      8          7           0        1.753157   -1.230600   -0.000319
      9          6           0        2.766500   -0.282995   -0.000861
     10          6           0        2.183554    0.961040   -0.000360
     11          1           0       -0.965110   -1.881224    0.879101
     12          1           0       -0.965564   -1.885589   -0.872214
     13          1           0       -2.479653    1.899535    0.000106
     14          1           0       -0.155773    2.736867    0.000419
     15          1           0        1.895652   -2.229647   -0.000494
     16          1           0        3.803634   -0.582949   -0.001578
     17          1           0        2.703975    1.908873   -0.000643
 ---------------------------------------------------------------------

 SCF Done:  E(UB3LYP) =  -439.180713553     A.U. after   33 cycles
 SCF Done:  E(UB3LYP) =  -439.180985919     a.u. after    8 cycles

 The electronic state is 2-A.
 Alpha  occ. eigenvalues --  -18.91305 -14.22619 -10.06550 -10.06492 -10.05019
 Alpha  occ. eigenvalues --  -10.03319 -10.02895 -10.01711 -10.00923  -9.99441
 Alpha  occ. eigenvalues --   -0.85256  -0.84651  -0.67282  -0.63715  -0.59190
 Alpha  occ. eigenvalues --   -0.55339  -0.48063  -0.45287  -0.42074  -0.39393
 Alpha  occ. eigenvalues --   -0.33537  -0.31212  -0.31211  -0.29836  -0.27865
 Alpha  occ. eigenvalues --   -0.27353  -0.26341  -0.24269  -0.21812  -0.20228
 Alpha  occ. eigenvalues --   -0.19939  -0.16082  -0.10487  -0.07592  -0.06043
 Alpha  occ. eigenvalues --    0.05014
 Alpha virt. eigenvalues --    0.06947   0.09185   0.10221   0.11914   0.12357
 Alpha virt. eigenvalues --    0.13244   0.14187   0.14608   0.16422   0.16503
 Alpha virt. eigenvalues --    0.17532   0.18271   0.18661   0.20060   0.20103

  Beta  occ. eigenvalues --  -18.90926 -14.22562 -10.06531 -10.06312 -10.04785
  Beta  occ. eigenvalues --  -10.03371 -10.02844 -10.01787 -10.00490  -9.99402
  Beta  occ. eigenvalues --   -0.84701  -0.84367  -0.66876  -0.63566  -0.58737
  Beta  occ. eigenvalues --   -0.55112  -0.47573  -0.45111  -0.41623  -0.39197
  Beta  occ. eigenvalues --   -0.33241  -0.31005  -0.30595  -0.29733  -0.27707
  Beta  occ. eigenvalues --   -0.27041  -0.25899  -0.23954  -0.21639  -0.19707
  Beta  occ. eigenvalues --   -0.18594  -0.14681  -0.09904  -0.07248  -0.05000
  Beta virt. eigenvalues --    0.07584   0.09483   0.10261   0.10885   0.11894
  Beta virt. eigenvalues --    0.12563   0.13488   0.14213   0.14819   0.16335
  Beta virt. eigenvalues --    0.16382   0.17495   0.18872   0.19032   0.19953

 Mulliken charges and spin densities:
               1          2
     1  C   -0.385823  -0.237929
     2  C   -0.397347   0.169205
     3  O   -0.426019   0.135577
     4  C    0.198140   0.032656
     5  C   -1.018641   0.255951
     6  C    1.884194  -0.362505
     7  C   -0.821949   0.189589
     8  N   -0.092832   0.050768
     9  C    0.076818  -0.181317
    10  C   -0.071168  -0.024903
    11  H   -0.044486   0.220902
    12  H    0.174151  -0.008479
    13  H    0.123758  -0.004828
    14  H    0.079718  -0.024099
    15  H   -0.044986   0.317710
    16  H   -0.316928   0.453258
    17  H    0.083401   0.018443
 Sum of Mulliken charges =  -1.00000   1.00000

 Dipole moment (field-independent basis, Debye):
    X=              4.2543    Y=              0.7906    Z=             -0.6399  Tot=              4.3742
 Quadrupole moment (field-independent basis, Debye-Ang):
   XX=           -103.4249   YY=            -71.8731   ZZ=            -69.8753
   XY=             -1.3254   XZ=             -0.4604   YZ=              2.0124

 Summary of Natural Population Analysis:

                                       Natural Population
                Natural  -----------------------------------------------
    Atom  No    Charge         Core      Valence    Rydberg      Total
 -----------------------------------------------------------------------
      C    1   -0.25286      0.99957     2.24331    0.00998     3.25286
      C    2    0.29362      0.99965     1.68675    0.01998     2.70638
      O    3   -0.28500      0.99988     3.27792    0.00721     4.28500
      C    4   -0.15667      0.99953     2.14735    0.00979     3.15667
      C    5    0.01186      0.99954     1.98024    0.00836     2.98814
      C    6   -0.09365      0.99947     2.08403    0.01015     3.09365
      C    7    0.13624      0.99948     1.85216    0.01211     2.86376
      N    8   -0.26064      0.99965     2.75167    0.00931     3.76064
      C    9   -0.05294      0.99958     2.03899    0.01437     3.05294
      C   10   -0.12862      0.99953     2.11946    0.00962     3.12862
      H   11    0.11549      0.00000     0.38216    0.00235     0.38451
      H   12    0.11405      0.00000     0.38478    0.00117     0.38595
      H   13    0.09204      0.00000     0.40602    0.00195     0.40796
      H   14    0.08148      0.00000     0.41694    0.00158     0.41852
      H   15    0.19527      0.00000     0.30183    0.00290     0.30473
      H   16    0.09326      0.00000     0.40571    0.00103     0.40674
      H   17    0.09706      0.00000     0.40220    0.00075     0.40294
 =======================================================================
   * Total *    0.00000      9.99589    24.88151    0.12261    35.00000

 Normal termination of Gaussian 16 at Tue Dec  8 10:57:10 2020.
