 Gaussian 16, Revision A.03,

 -----------------------------------------------------------
 # opt freq B3LYP/6-31G(d) empiricaldispersion=gd3bj scf=xqc
 -----------------------------------------------------------

 ------------------------------
 CID_143081168_JID_172_neutraal
 ------------------------------
 Symbolic Z-matrix:
 Charge =  0 Multiplicity = 1

 SCF Done:  E(RB3LYP) =  -781.697634007     A.U. after   14 cycles
 SCF Done:  E(RB3LYP) =  -781.697995837     A.U. after   13 cycles
 SCF Done:  E(RB3LYP) =  -781.700234875     A.U. after   13 cycles
 SCF Done:  E(RB3LYP) =  -781.699634951     A.U. after   13 cycles
 SCF Done:  E(RB3LYP) =  -781.701811015     A.U. after   12 cycles
 SCF Done:  E(RB3LYP) =  -781.701999253     A.U. after   12 cycles
 SCF Done:  E(RB3LYP) =  -781.702042680     A.U. after   11 cycles
 SCF Done:  E(RB3LYP) =  -781.702056935     A.U. after    9 cycles
 SCF Done:  E(RB3LYP) =  -781.702065268     A.U. after    9 cycles
 SCF Done:  E(RB3LYP) =  -781.702069223     A.U. after    9 cycles
 SCF Done:  E(RB3LYP) =  -781.702070860     A.U. after    8 cycles
 SCF Done:  E(RB3LYP) =  -781.702072649     A.U. after    8 cycles
 SCF Done:  E(RB3LYP) =  -781.702073119     A.U. after    7 cycles
 SCF Done:  E(RB3LYP) =  -781.702073551     A.U. after    7 cycles
 SCF Done:  E(RB3LYP) =  -781.702073608     A.U. after    7 cycles
 Optimization completed.
    -- Stationary point found.
 Normal termination of Gaussian 16 at Tue Dec  8 10:20:38 2020.

 --------------------------------------------------------------------
 #N Geom=AllCheck Guess=TCheck SCRF=Check GenChk RB3LYP/6-31G(d) Freq
 --------------------------------------------------------------------

 Structure from the checkpoint file:  "JID_172.chk"
 ------------------------------
 CID_143081168_JID_172_neutraal
 ------------------------------
 Charge =  0 Multiplicity = 1

 SCF Done:  E(RB3LYP) =  -781.702073608     A.U. after    1 cycles

  Exact polarizability:  98.789   2.406 102.339 -12.855  -0.637  84.963
 Approx polarizability: 137.295   8.675 166.852 -25.126   0.760 132.532

                      1                      2                      3
                      A                      A                      A
 Frequencies --     55.1231                78.8510               101.0085
 Red. masses --      3.2279                 5.2406                 2.6880
 Frc consts  --      0.0058                 0.0192                 0.0162
 IR Inten    --      0.1337                 1.0014                 4.2162

                      4                      5                      6
                      A                      A                      A
 Frequencies --    146.8364               151.1661               195.2041
 Red. masses --      1.5659                 1.2816                 1.6164
 Frc consts  --      0.0199                 0.0173                 0.0363
 IR Inten    --      0.2197                 0.2534                 1.3251

                      7                      8                      9
                      A                      A                      A
 Frequencies --    219.0896               256.5545               284.3552
 Red. masses --      3.3639                 2.9797                 3.0088
 Frc consts  --      0.0951                 0.1156                 0.1433
 IR Inten    --      1.7693                 0.4133                 0.0811

                     10                     11                     12
                      A                      A                      A
 Frequencies --    305.0464               412.9634               456.0242
 Red. masses --      2.2008                 2.4680                 2.6966
 Frc consts  --      0.1207                 0.2480                 0.3304
 IR Inten    --      0.4670                 0.3571                 4.9061

                     13                     14                     15
                      A                      A                      A
 Frequencies --    628.2198               643.2163               675.5747
 Red. masses --      4.0930                 3.6065                 3.7800
 Frc consts  --      0.9517                 0.8791                 1.0165
 IR Inten    --      0.5357                 3.1745                 1.7546

                     16                     17                     18
                      A                      A                      A
 Frequencies --    677.6356               705.7798               717.7586
 Red. masses --      3.9816                 3.3300                 5.4742
 Frc consts  --      1.0772                 0.9773                 1.6616
 IR Inten    --     16.5691                 2.3123                 1.3838

                     19                     20                     21
                      A                      A                      A
 Frequencies --    793.6766               832.3990               886.1061
 Red. masses --      1.3899                 1.3064                 1.9457
 Frc consts  --      0.5158                 0.5333                 0.9001
 IR Inten    --     12.2947                11.7985                 7.0980

                     22                     23                     24
                      A                      A                      A
 Frequencies --    934.8674               965.6107               990.7799
 Red. masses --      3.4753                 2.1817                 1.3312
 Frc consts  --      1.7895                 1.1986                 0.7699
 IR Inten    --     13.3977                 4.3664                 3.3048

                     25                     26                     27
                      A                      A                      A
 Frequencies --   1007.3646              1017.6907              1053.8105
 Red. masses --      1.3545                 1.5123                 1.8649
 Frc consts  --      0.8099                 0.9229                 1.2202
 IR Inten    --      7.8255                 3.7697                12.3815

                     28                     29                     30
                      A                      A                      A
 Frequencies --   1079.5351              1152.7966              1167.3043
 Red. masses --      1.4361                 2.1171                 1.7353
 Frc consts  --      0.9861                 1.6577                 1.3932
 IR Inten    --      1.2525                17.0125                 2.0383

                     31                     32                     33
                      A                      A                      A
 Frequencies --   1239.7853              1251.4710              1275.0197
 Red. masses --      2.0421                 1.3174                 1.4318
 Frc consts  --      1.8494                 1.2156                 1.3714
 IR Inten    --      6.4560                 8.0227                 9.3197

                     34                     35                     36
                      A                      A                      A
 Frequencies --   1307.4343              1333.1392              1393.8218
 Red. masses --      2.3151                 1.4497                 1.2783
 Frc consts  --      2.3316                 1.5180                 1.4632
 IR Inten    --     17.7357                12.0228                 0.7426

                     37                     38                     39
                      A                      A                      A
 Frequencies --   1406.2689              1420.1666              1430.1512
 Red. masses --      1.3331                 2.9383                 2.8867
 Frc consts  --      1.5533                 3.4916                 3.4787
 IR Inten    --     24.4797                20.7360                 2.1121

                     40                     41                     42
                      A                      A                      A
 Frequencies --   1449.9257              1482.6083              1496.9177
 Red. masses --      1.2892                 1.0950                 1.0633
 Frc consts  --      1.5969                 1.4181                 1.4037
 IR Inten    --      4.1975                 4.4183                11.9290

                     43                     44                     45
                      A                      A                      A
 Frequencies --   1506.6450              1510.4756              1515.5057
 Red. masses --      1.4351                 1.1984                 1.0733
 Frc consts  --      1.9193                 1.6109                 1.4524
 IR Inten    --     19.2746                17.7709                11.4305

                     46                     47                     48
                      A                      A                      A
 Frequencies --   1518.0523              1547.2601              1617.4865
 Red. masses --      1.0589                 1.7477                 5.2539
 Frc consts  --      1.4377                 2.4652                 8.0986
 IR Inten    --      8.2666                33.0576                 5.3158

                     49                     50                     51
                      A                      A                      A
 Frequencies --   3033.4695              3059.0808              3067.7395
 Red. masses --      1.0401                 1.0645                 1.0358
 Frc consts  --      5.6392                 5.8694                 5.7431
 IR Inten    --     31.6308                24.8278                15.0205

                     52                     53                     54
                      A                      A                      A
 Frequencies --   3072.6806              3077.6767              3116.6853
 Red. masses --      1.0605                 1.0969                 1.1038
 Frc consts  --      5.8995                 6.1215                 6.3171
 IR Inten    --     39.4463                24.2908                 3.4173

                     55                     56                     57
                      A                      A                      A
 Frequencies --   3131.0925              3135.8992              3149.6174
 Red. masses --      1.1019                 1.0972                 1.1034
 Frc consts  --      6.3649                 6.3572                 6.4490
 IR Inten    --     26.0309                 7.4700                 9.5696

                     58                     59                     60
                      A                      A                      A
 Frequencies --   3179.4088              3252.1231              3267.7686
 Red. masses --      1.1056                 1.0961                 1.0973
 Frc consts  --      6.5846                 6.8304                 6.9035
 IR Inten    --      0.7376                11.1577                 0.3151

 - Thermochemistry -
 -------------------
 Temperature   298.150 Kelvin.  Pressure   1.00000 Atm.
 Atom     1 has atomic number  6 and mass  12.00000

 Molecular mass:   156.07212 amu.
 Principal axes and moments of inertia in atomic units:
                           1         2         3
     Eigenvalues --  1055.165442059.682362352.91597
           X            0.99963  -0.02449  -0.01172
           Y            0.02425   0.99950  -0.02039
           Z            0.01222   0.02010   0.99972
 This molecule is an asymmetric top.
 Rotational symmetry number  1.
 Warning -- assumption of classical behavior for rotation
           may cause significant error
 Rotational temperatures (Kelvin)      0.08209     0.04205     0.03681
 Rotational constants (GHZ):           1.71039     0.87622     0.76702
 Zero-point vibrational energy     489498.3 (Joules/Mol)
                                  116.99290 (Kcal/Mol)
 Warning -- explicit consideration of  12 degrees of freedom as
           vibrations may cause significant error
 Vibrational temperatures:     79.31   113.45   145.33   211.26   217.49
          (Kelvin)            280.86   315.22   369.12   409.12   438.89
                              594.16   656.12   903.87   925.44   972.00
                              974.97  1015.46  1032.69  1141.92  1197.64
                             1274.91  1345.07  1389.30  1425.51  1449.37
                             1464.23  1516.20  1553.21  1658.62  1679.49
                             1783.77  1800.59  1834.47  1881.11  1918.09
                             2005.40  2023.31  2043.30  2057.67  2086.12
                             2133.14  2153.73  2167.73  2173.24  2180.47
                             2184.14  2226.16  2327.20  4364.49  4401.33
                             4413.79  4420.90  4428.09  4484.21  4504.94
                             4511.86  4531.60  4574.46  4679.08  4701.59

 Zero-point correction=                           0.186440 (Hartree/Particle)
 Thermal correction to Energy=                    0.197258
 Thermal correction to Enthalpy=                  0.198202
 Thermal correction to Gibbs Free Energy=         0.149514
 Sum of electronic and zero-point Energies=           -781.515634
 Sum of electronic and thermal Energies=              -781.504816
 Sum of electronic and thermal Enthalpies=            -781.503872
 Sum of electronic and thermal Free Energies=         -781.552560

                     E (Thermal)             CV                S
                      KCal/Mol        Cal/Mol-Kelvin    Cal/Mol-Kelvin
 Total                  123.781             39.193            102.473
 Electronic               0.000              0.000              0.000
 Translational            0.889              2.981             41.045
 Rotational               0.889              2.981             30.015
 Vibrational            122.004             33.232             31.414
 Vibration     1          0.596              1.976              4.625
 Vibration     2          0.600              1.963              3.919
 Vibration     3          0.604              1.948              3.435
 Vibration     4          0.617              1.906              2.713
 Vibration     5          0.619              1.901              2.657
 Vibration     6          0.636              1.847              2.178
 Vibration     7          0.647              1.812              1.967
 Vibration     8          0.666              1.752              1.685
 Vibration     9          0.683              1.703              1.507
 Vibration    10          0.696              1.664              1.389
 Vibration    11          0.777              1.442              0.916
 Vibration    12          0.814              1.348              0.778

 Optimization completed.
    -- Stationary point found.
 Normal termination of Gaussian 16 at Tue Dec  8 10:24:49 2020.

 ----------------------------------------------------------------------
 # B3LYP/6-311++G(d,p) empiricaldispersion=gd3bj scf=xqc pop=npa geom=c
 heck
 ----------------------------------------------------------------------

 --------------------------------------
 CID_143081168_JID_172_Energie_neutraal
 --------------------------------------
 Structure from the checkpoint file:  "JID_172.chk"
 Charge =  0 Multiplicity = 1

 SCF Done:  E(RB3LYP) =  -781.833747002     A.U. after   14 cycles
 Normal termination of Gaussian 16 at Tue Dec  8 10:26:30 2020.

 ----------------------------------------------------------------------
 # B3LYP/6-311++G(d,p) empiricaldispersion=gd3bj scf=xqc pop=npa geom=c
 heck
 ----------------------------------------------------------------------

 ------------------------------------
 CID_143081168_JID_172_Energie_kation
 ------------------------------------
 Structure from the checkpoint file:  "JID_172.chk"
 Charge =  1 Multiplicity = 2

 SCF Done:  E(UB3LYP) =  -781.538160116     A.U. after   23 cycles
 Normal termination of Gaussian 16 at Tue Dec  8 10:30:32 2020.
 Gaussian 16:  ES64L-G16RevA.03 25-Dec-2016

 ----------------------------------------------------------------------
 # B3LYP/6-311++G(d,p) empiricaldispersion=gd3bj scf=xqc pop=npa geom=c
 heck
 ----------------------------------------------------------------------

 -----------------------------------
 CID_143081168_JID_172_Energie_anion
 -----------------------------------
 Structure from the checkpoint file:  "JID_172.chk"
 Charge = -1 Multiplicity = 2

                         Standard orientation:
 ---------------------------------------------------------------------
 Center     Atomic      Atomic             Coordinates (Angstroms)
 Number     Number       Type             X           Y           Z
 ---------------------------------------------------------------------
      1          6           0       -1.862479    1.689498    0.998632
      2          6           0       -1.648620    0.391377    0.295312
      3          6           0       -2.260577   -0.833220    0.427706
      4          7           0       -1.743843   -1.750054   -0.464770
      5          6           0       -0.827033   -1.088842   -1.137923
      6          7           0       -0.723581    0.215612   -0.727834
      7          6           0        0.285238    1.162832   -1.162438
      8          6           0        1.481463    1.266541   -0.206851
      9         16           0        2.422942   -0.285279    0.027558
     10          6           0        1.469159   -1.093284    1.364686
     11          1           0       -0.985668    2.011006    1.575794
     12          1           0       -2.696434    1.589124    1.698613
     13          1           0       -2.111129    2.501872    0.303139
     14          1           0       -3.055064   -1.099344    1.112726
     15          1           0       -0.192323   -1.487594   -1.917419
     16          1           0        0.629600    0.846806   -2.150623
     17          1           0       -0.178709    2.150439   -1.273163
     18          1           0        2.192563    1.991607   -0.616659
     19          1           0        1.166729    1.638203    0.773555
     20          1           0        1.332832   -0.404125    2.203347
     21          1           0        0.503037   -1.464874    1.020722
     22          1           0        2.076559   -1.936980    1.702524
 ---------------------------------------------------------------------

 SCF Done:  E(UB3LYP) =  -781.821917770     A.U. after   30 cycles

 The electronic state is 2-A.
 Alpha  occ. eigenvalues --  -88.74037 -14.26359 -14.18994 -10.11559 -10.11552
 Alpha  occ. eigenvalues --  -10.09950 -10.09932 -10.09200 -10.07477 -10.06666
 Alpha  occ. eigenvalues --   -7.82632  -5.79036  -5.78664  -5.77994  -0.91440
 Alpha  occ. eigenvalues --   -0.78694  -0.70509  -0.67347  -0.64140  -0.58581
 Alpha  occ. eigenvalues --   -0.56960  -0.50095  -0.49374  -0.44829  -0.41830
 Alpha  occ. eigenvalues --   -0.37764  -0.35279  -0.34722  -0.33229  -0.32065
 Alpha  occ. eigenvalues --   -0.31460  -0.30961  -0.30260  -0.29134  -0.28473
 Alpha  occ. eigenvalues --   -0.27270  -0.25845  -0.21163  -0.17263  -0.16939
 Alpha  occ. eigenvalues --   -0.12937  -0.12108   0.04711
 Alpha virt. eigenvalues --    0.07257   0.08112   0.08698   0.09550   0.10176
 Alpha virt. eigenvalues --    0.10637   0.11407   0.11817   0.12403   0.13121
 Alpha virt. eigenvalues --    0.13141   0.13945   0.14315   0.15025   0.15327

  Beta  occ. eigenvalues --  -88.74034 -14.26360 -14.18990 -10.11551 -10.11508
  Beta  occ. eigenvalues --  -10.09925 -10.09900 -10.09187 -10.07472 -10.06593
  Beta  occ. eigenvalues --   -7.82629  -5.79035  -5.78658  -5.77992  -0.91427
  Beta  occ. eigenvalues --   -0.78673  -0.70470  -0.67304  -0.64092  -0.58500
  Beta  occ. eigenvalues --   -0.56893  -0.50042  -0.49352  -0.44756  -0.41773
  Beta  occ. eigenvalues --   -0.37700  -0.35229  -0.34686  -0.33195  -0.32032
  Beta  occ. eigenvalues --   -0.31384  -0.30918  -0.30218  -0.29081  -0.28419
  Beta  occ. eigenvalues --   -0.27219  -0.25800  -0.21121  -0.17253  -0.16913
  Beta  occ. eigenvalues --   -0.12912  -0.12073
  Beta virt. eigenvalues --    0.07496   0.08134   0.08486   0.09293   0.10378
  Beta virt. eigenvalues --    0.10813   0.11003   0.11921   0.12089   0.12632
  Beta virt. eigenvalues --    0.13289   0.13685   0.14395   0.14808   0.15296

 Mulliken charges and spin densities:
               1          2
     1  C    3.259088  -3.824007
     2  C   -2.243201   2.594706
     3  C    0.222504  -0.764788
     4  N   -0.143864   0.018381
     5  C   -0.219756   0.090454
     6  N   -0.031426   0.142534
     7  C    1.131969  -1.561758
     8  C    0.047988  -0.251196
     9  S   -0.039097   0.267437
    10  C   -0.175930  -0.507523
    11  H   -0.594301   0.736710
    12  H   -0.354073   0.515367
    13  H   -0.495164   0.676507
    14  H   -0.063460   0.190131
    15  H    0.122819   0.012734
    16  H   -0.419672   0.598189
    17  H   -0.507302   0.673836
    18  H   -0.908672   1.138864
    19  H    0.137934   0.056032
    20  H   -0.098541   0.275796
    21  H    0.171579  -0.044990
    22  H    0.200577  -0.033415
 Sum of Mulliken charges =  -1.00000   1.00000

 Dipole moment (field-independent basis, Debye):
    X=              1.2516    Y=             -7.1942    Z=              0.2744  Tot=              7.3074
 Quadrupole moment (field-independent basis, Debye-Ang):
   XX=           -114.3325   YY=           -126.1265   ZZ=           -100.8997
   XY=             -4.1723   XZ=              4.6623   YZ=             -1.0235

 Summary of Natural Population Analysis:

                                       Natural Population
                Natural  -----------------------------------------------
    Atom  No    Charge         Core      Valence    Rydberg      Total
 -----------------------------------------------------------------------
      C    1   -0.30346      0.99963     2.29787    0.00595     3.30346
      C    2    0.06578      0.99951     1.92131    0.01339     2.93422
      C    3   -0.04342      0.99950     2.02907    0.01484     3.04342
      N    4   -0.26144      0.99973     2.75184    0.00987     3.76144
      C    5    0.10128      0.99963     1.88152    0.01757     2.89872
      N    6   -0.21572      0.99962     2.70259    0.01351     3.71572
      C    7   -0.08972      0.99959     2.07523    0.01490     3.08972
      C    8   -0.25744      0.99959     2.24520    0.01265     3.25744
      S    9    0.08104      4.99964     2.90111    0.01822     7.91896
      C   10   -0.34832      0.99961     2.34297    0.00574     3.34832
      H   11    0.10866      0.00000     0.38799    0.00334     0.39134
      H   12    0.11013      0.00000     0.38851    0.00136     0.38987
      H   13    0.11045      0.00000     0.38718    0.00236     0.38955
      H   14    0.09561      0.00000     0.40336    0.00103     0.40439
      H   15    0.09472      0.00000     0.40392    0.00136     0.40528
      H   16    0.10286      0.00000     0.39510    0.00204     0.39714
      H   17    0.11205      0.00000     0.38303    0.00492     0.38795
      H   18    0.11539      0.00000     0.38075    0.00386     0.38461
      H   19    0.10732      0.00000     0.39002    0.00266     0.39268
      H   20    0.10304      0.00000     0.39565    0.00131     0.39696
      H   21    0.10920      0.00000     0.38886    0.00194     0.39080
      H   22    0.10197      0.00000     0.39735    0.00069     0.39803
 =======================================================================
   * Total *   -0.00000     13.99605    27.85044    0.15351    42.00000

 Normal termination of Gaussian 16 at Tue Dec  8 10:37:59 2020.
