 Gaussian 16, Revision A.03,

 -----------------------------------------------------------
 # opt freq B3LYP/6-31G(d) empiricaldispersion=gd3bj scf=xqc
 -----------------------------------------------------------

 ------------------------------
 CID_13024419_JID_1673_neutraal
 ------------------------------
 Symbolic Z-matrix:
 Charge =  0 Multiplicity = 1

 SCF Done:  E(RB3LYP) =  -517.908425584     A.U. after   15 cycles
 SCF Done:  E(RB3LYP) =  -517.912731319     A.U. after   12 cycles
 SCF Done:  E(RB3LYP) =  -517.912664919     A.U. after   13 cycles
 SCF Done:  E(RB3LYP) =  -517.912964767     A.U. after   12 cycles
 SCF Done:  E(RB3LYP) =  -517.913553651     A.U. after   11 cycles
 SCF Done:  E(RB3LYP) =  -517.913591477     A.U. after   11 cycles
 SCF Done:  E(RB3LYP) =  -517.913608845     A.U. after   11 cycles
 SCF Done:  E(RB3LYP) =  -517.913614620     A.U. after   10 cycles
 SCF Done:  E(RB3LYP) =  -517.913620585     A.U. after   10 cycles
 SCF Done:  E(RB3LYP) =  -517.913621448     A.U. after    9 cycles
 SCF Done:  E(RB3LYP) =  -517.913621565     A.U. after    7 cycles
 SCF Done:  E(RB3LYP) =  -517.913621698     A.U. after    8 cycles
 SCF Done:  E(RB3LYP) =  -517.913621770     A.U. after    7 cycles
 SCF Done:  E(RB3LYP) =  -517.913621832     A.U. after    7 cycles
 Optimization completed.
    -- Stationary point found.
 Normal termination of Gaussian 16 at Tue Dec  8 21:00:58 2020.

 --------------------------------------------------------------------
 #N Geom=AllCheck Guess=TCheck SCRF=Check GenChk RB3LYP/6-31G(d) Freq
 --------------------------------------------------------------------

 Structure from the checkpoint file:  "JID_1673.chk"
 ------------------------------
 CID_13024419_JID_1673_neutraal
 ------------------------------
 Charge =  0 Multiplicity = 1

 SCF Done:  E(RB3LYP) =  -517.913621832     A.U. after    1 cycles

  Exact polarizability: 108.364   5.998  83.792  -2.451  -2.650  81.184
 Approx polarizability: 131.526  12.320 128.948  -4.642 -11.288 130.590

                      1                      2                      3
                      A                      A                      A
 Frequencies --     39.8669                51.5159                58.8021
 Red. masses --      4.3936                 2.4553                 4.5295
 Frc consts  --      0.0041                 0.0038                 0.0092
 IR Inten    --      1.1983                 0.3691                 2.8857

                      4                      5                      6
                      A                      A                      A
 Frequencies --    144.6691               163.2748               188.1695
 Red. masses --      2.5520                 1.1477                 2.1139
 Frc consts  --      0.0315                 0.0180                 0.0441
 IR Inten    --      1.8756                 0.3802                 1.1440

                      7                      8                      9
                      A                      A                      A
 Frequencies --    213.3740               235.1475               259.5074
 Red. masses --      1.4908                 1.6165                 1.5648
 Frc consts  --      0.0400                 0.0527                 0.0621
 IR Inten    --      0.3697                 1.7347                 0.4062

                     10                     11                     12
                      A                      A                      A
 Frequencies --    299.9850               312.0187               367.3812
 Red. masses --      2.2585                 2.2191                 3.1139
 Frc consts  --      0.1197                 0.1273                 0.2476
 IR Inten    --      0.8915                 1.2356                 4.1304

                     13                     14                     15
                      A                      A                      A
 Frequencies --    395.7138               441.6398               563.8093
 Red. masses --      3.9947                 3.1660                 4.1496
 Frc consts  --      0.3685                 0.3638                 0.7772
 IR Inten    --      2.1319                 3.6511                 2.4608

                     16                     17                     18
                      A                      A                      A
 Frequencies --    578.2114               607.2693               648.6985
 Red. masses --      3.1758                 3.2389                 3.7588
 Frc consts  --      0.6256                 0.7037                 0.9319
 IR Inten    --     15.2259                 3.4783                 6.2853

                     19                     20                     21
                      A                      A                      A
 Frequencies --    715.7716               784.5598               810.3127
 Red. masses --      3.3592                 3.4600                 1.3186
 Frc consts  --      1.0140                 1.2548                 0.5101
 IR Inten    --      4.7168                 4.1912                 2.0499

                     22                     23                     24
                      A                      A                      A
 Frequencies --    872.7734               925.1903               953.8310
 Red. masses --      3.0186                 2.3706                 3.4776
 Frc consts  --      1.3547                 1.1956                 1.8641
 IR Inten    --     10.2514                14.8104                 8.8975

                     25                     26                     27
                      A                      A                      A
 Frequencies --    972.7168               988.6968               999.2816
 Red. masses --      2.1155                 1.7244                 2.2698
 Frc consts  --      1.1793                 0.9931                 1.3354
 IR Inten    --      9.4668                 3.1899                 5.0972

                     28                     29                     30
                      A                      A                      A
 Frequencies --   1025.3610              1049.7063              1096.5789
 Red. masses --      3.1058                 1.8867                 2.0119
 Frc consts  --      1.9239                 1.2248                 1.4254
 IR Inten    --    122.5878                 9.6306                11.7179

                     31                     32                     33
                      A                      A                      A
 Frequencies --   1125.1612              1137.3848              1171.2444
 Red. masses --      1.7462                 1.9746                 2.5082
 Frc consts  --      1.3025                 1.5051                 2.0272
 IR Inten    --      3.1240                75.6375                36.8051

                     34                     35                     36
                      A                      A                      A
 Frequencies --   1201.7674              1219.3791              1267.9245
 Red. masses --      2.2573                 2.2699                 1.8346
 Frc consts  --      1.9208                 1.9886                 1.7378
 IR Inten    --      7.3220                21.4446                48.8202

                     37                     38                     39
                      A                      A                      A
 Frequencies --   1301.0482              1318.9173              1348.7165
 Red. masses --      2.0399                 1.3817                 1.4901
 Frc consts  --      2.0345                 1.4161                 1.5970
 IR Inten    --      3.0189                23.1908                33.6993

                     40                     41                     42
                      A                      A                      A
 Frequencies --   1395.7346              1412.4585              1437.3728
 Red. masses --      2.0058                 1.3137                 1.2394
 Frc consts  --      2.3022                 1.5442                 1.5087
 IR Inten    --     21.3815                43.7136                 6.2299

                     43                     44                     45
                      A                      A                      A
 Frequencies --   1438.2697              1492.9747              1504.3044
 Red. masses --      1.2454                 1.0503                 1.0732
 Frc consts  --      1.5179                 1.3793                 1.4309
 IR Inten    --      5.5442                11.8344                 9.9889

                     46                     47                     48
                      A                      A                      A
 Frequencies --   1504.4867              1520.7827              1525.5874
 Red. masses --      1.0613                 1.0515                 1.0684
 Frc consts  --      1.4154                 1.4329                 1.4650
 IR Inten    --      3.9427                 1.6301                 4.0079

                     49                     50                     51
                      A                      A                      A
 Frequencies --   1528.3710              1532.5109              1539.2286
 Red. masses --      1.0408                 1.0734                 1.0631
 Frc consts  --      1.4324                 1.4853                 1.4839
 IR Inten    --      8.3939                 4.1284                 7.2484

                     52                     53                     54
                      A                      A                      A
 Frequencies --   1751.9997              1826.9811              3040.9505
 Red. masses --      9.3112                11.3938                 1.0627
 Frc consts  --     16.8393                22.4072                 5.7901
 IR Inten    --    123.3867               121.7536                36.8805

                     55                     56                     57
                      A                      A                      A
 Frequencies --   3054.3041              3060.0296              3062.9265
 Red. masses --      1.0381                 1.0469                 1.0360
 Frc consts  --      5.7059                 5.7757                 5.7262
 IR Inten    --      1.4586                13.0636                12.0804

                     58                     59                     60
                      A                      A                      A
 Frequencies --   3063.4389              3080.9173              3114.1688
 Red. masses --      1.0536                 1.1026                 1.0991
 Frc consts  --      5.8259                 6.1664                 6.2801
 IR Inten    --     26.1825                23.6751                 8.2928

                     61                     62                     63
                      A                      A                      A
 Frequencies --   3124.0000              3131.3069              3135.6092
 Red. masses --      1.0981                 1.1033                 1.1035
 Frc consts  --      6.3143                 6.3738                 6.3927
 IR Inten    --      9.2108                21.8575                14.8535

                     64                     65                     66
                      A                      A                      A
 Frequencies --   3139.7415              3147.5295              3169.2416
 Red. masses --      1.1028                 1.1015                 1.1020
 Frc consts  --      6.4052                 6.4297                 6.5215
 IR Inten    --     19.8309                29.4563                 8.4529

 - Thermochemistry -
 -------------------
 Temperature   298.150 Kelvin.  Pressure   1.00000 Atm.
 Atom     1 has atomic number  6 and mass  12.00000

 Molecular mass:   155.09463 amu.
 Principal axes and moments of inertia in atomic units:
                           1         2         3
     Eigenvalues --   876.255092491.654882593.29141
           X            0.99968   0.02258  -0.01162
           Y           -0.02086   0.99112   0.13130
           Z            0.01448  -0.13102   0.99127
 This molecule is an asymmetric top.
 Rotational symmetry number  1.
 Warning -- assumption of classical behavior for rotation
           may cause significant error
 Rotational temperatures (Kelvin)      0.09885     0.03476     0.03340
 Rotational constants (GHZ):           2.05961     0.72431     0.69593
 Zero-point vibrational energy     535870.8 (Joules/Mol)
                                  128.07620 (Kcal/Mol)
 Warning -- explicit consideration of  17 degrees of freedom as
           vibrations may cause significant error
 Vibrational temperatures:     57.36    74.12    84.60   208.15   234.92
          (Kelvin)            270.73   307.00   338.32   373.37   431.61
                              448.93   528.58   569.34   635.42   811.20
                              831.92   873.73   933.33  1029.84  1128.81
                             1165.86  1255.73  1331.14  1372.35  1399.52
                             1422.51  1437.74  1475.27  1510.29  1577.73
                             1618.86  1636.44  1685.16  1729.08  1754.41
                             1824.26  1871.92  1897.63  1940.50  2008.15
                             2032.21  2068.06  2069.35  2148.06  2164.36
                             2164.62  2188.07  2194.98  2198.98  2204.94
                             2214.61  2520.74  2628.62  4375.25  4394.46
                             4402.70  4406.87  4407.61  4432.75  4480.59
                             4494.74  4505.25  4511.44  4517.39  4528.59
                             4559.83

 Zero-point correction=                           0.204102 (Hartree/Particle)
 Thermal correction to Energy=                    0.216039
 Thermal correction to Enthalpy=                  0.216983
 Thermal correction to Gibbs Free Energy=         0.165536
 Sum of electronic and zero-point Energies=           -517.709519
 Sum of electronic and thermal Energies=              -517.697583
 Sum of electronic and thermal Enthalpies=            -517.696639
 Sum of electronic and thermal Free Energies=         -517.748086

                     E (Thermal)             CV                S
                      KCal/Mol        Cal/Mol-Kelvin    Cal/Mol-Kelvin
 Total                  135.566             43.156            108.279
 Electronic               0.000              0.000              0.000
 Translational            0.889              2.981             41.026
 Rotational               0.889              2.981             30.116
 Vibrational            133.789             37.194             37.137
 Vibration     1          0.594              1.981              5.266
 Vibration     2          0.596              1.977              4.758
 Vibration     3          0.596              1.974              4.497
 Vibration     4          0.616              1.908              2.741
 Vibration     5          0.623              1.888              2.512
 Vibration     6          0.633              1.856              2.246
 Vibration     7          0.644              1.821              2.015
 Vibration     8          0.655              1.787              1.839
 Vibration     9          0.668              1.747              1.665
 Vibration    10          0.693              1.674              1.417
 Vibration    11          0.700              1.651              1.352
 Vibration    12          0.740              1.539              1.091
 Vibration    13          0.762              1.479              0.979
 Vibration    14          0.801              1.379              0.821
 Vibration    15          0.920              1.110              0.516
 Vibration    16          0.935              1.078              0.489
 Vibration    17          0.966              1.016              0.437

 Optimization completed.
    -- Stationary point found.
 Normal termination of Gaussian 16 at Tue Dec  8 21:07:31 2020.

 ----------------------------------------------------------------------
 # B3LYP/6-311++G(d,p) empiricaldispersion=gd3bj scf=xqc pop=npa geom=c
 heck
 ----------------------------------------------------------------------

 --------------------------------------
 CID_13024419_JID_1673_Energie_neutraal
 --------------------------------------
 Structure from the checkpoint file:  "JID_1673.chk"
 Charge =  0 Multiplicity = 1

 SCF Done:  E(RB3LYP) =  -518.062440119     A.U. after   14 cycles
 Normal termination of Gaussian 16 at Tue Dec  8 21:10:11 2020.

 ----------------------------------------------------------------------
 # B3LYP/6-311++G(d,p) empiricaldispersion=gd3bj scf=xqc pop=npa geom=c
 heck
 ----------------------------------------------------------------------

 ------------------------------------
 CID_13024419_JID_1673_Energie_kation
 ------------------------------------
 Structure from the checkpoint file:  "JID_1673.chk"
 Charge =  1 Multiplicity = 2

 SCF Done:  E(UB3LYP) =  -517.738246112     A.U. after   22 cycles
 Normal termination of Gaussian 16 at Tue Dec  8 21:15:14 2020.
 Gaussian 16:  ES64L-G16RevA.03 25-Dec-2016

 ----------------------------------------------------------------------
 # B3LYP/6-311++G(d,p) empiricaldispersion=gd3bj scf=xqc pop=npa geom=c
 heck
 ----------------------------------------------------------------------

 -----------------------------------
 CID_13024419_JID_1673_Energie_anion
 -----------------------------------
 Structure from the checkpoint file:  "JID_1673.chk"
 Charge = -1 Multiplicity = 2

                         Standard orientation:
 ---------------------------------------------------------------------
 Center     Atomic      Atomic             Coordinates (Angstroms)
 Number     Number       Type             X           Y           Z
 ---------------------------------------------------------------------
      1          6           0        3.459220   -0.084992   -0.847811
      2          6           0        2.662966    0.714988    0.194774
      3          6           0        1.322497    0.117109    0.469944
      4          7           0        0.887551   -0.300450    1.592468
      5          6           0       -0.459970   -0.816688    1.354724
      6          6           0       -0.765637   -0.474320   -0.145701
      7          8           0        0.508756   -0.000185   -0.624916
      8          6           0       -1.188424   -1.674088   -0.985082
      9          6           0       -1.757045    0.701485   -0.200668
     10          8           0       -1.367432    1.842818   -0.324426
     11          6           0       -3.227762    0.362819   -0.036414
     12          1           0        3.638839   -1.108179   -0.500515
     13          1           0        4.429437    0.387425   -1.030709
     14          1           0        2.916346   -0.136285   -1.795920
     15          1           0        3.199763    0.770258    1.144946
     16          1           0        2.507625    1.739255   -0.166656
     17          1           0       -1.172424   -0.352911    2.046571
     18          1           0       -0.490242   -1.899986    1.531999
     19          1           0       -2.122087   -2.106423   -0.612612
     20          1           0       -1.326849   -1.394276   -2.034411
     21          1           0       -0.410622   -2.441787   -0.933287
     22          1           0       -3.613553   -0.075410   -0.965100
     23          1           0       -3.390079   -0.373233    0.759126
     24          1           0       -3.784672    1.275770    0.181434
 ---------------------------------------------------------------------

 SCF Done:  E(UB3LYP) =  -518.050650676     A.U. after   33 cycles
 SCF Done:  E(UB3LYP) =  -518.050650676     a.u. after    1 cycles

 The electronic state is 2-A.
 Alpha  occ. eigenvalues --  -19.05037 -19.00607 -14.19183 -10.15708 -10.15111
 Alpha  occ. eigenvalues --  -10.13888 -10.10045 -10.08482 -10.07028 -10.06784
 Alpha  occ. eigenvalues --  -10.06428  -0.98939  -0.93784  -0.80300  -0.71636
 Alpha  occ. eigenvalues --   -0.67491  -0.63036  -0.59326  -0.54486  -0.53205
 Alpha  occ. eigenvalues --   -0.47240  -0.42638  -0.39496  -0.38659  -0.36177
 Alpha  occ. eigenvalues --   -0.34932  -0.33937  -0.33535  -0.32563  -0.30446
 Alpha  occ. eigenvalues --   -0.30231  -0.29596  -0.29389  -0.28419  -0.26812
 Alpha  occ. eigenvalues --   -0.26249  -0.25764  -0.24160  -0.24070  -0.17750
 Alpha  occ. eigenvalues --   -0.15951  -0.13949   0.04553
 Alpha virt. eigenvalues --    0.06411   0.07569   0.08193   0.08820   0.09555
 Alpha virt. eigenvalues --    0.09992   0.10313   0.11022   0.11806   0.11922
 Alpha virt. eigenvalues --    0.12649   0.12984   0.13672   0.14199   0.14871

  Beta  occ. eigenvalues --  -19.05020 -19.00528 -14.19178 -10.15702 -10.15033
  Beta  occ. eigenvalues --  -10.13888 -10.10022 -10.08475 -10.06997 -10.06740
  Beta  occ. eigenvalues --  -10.06368  -0.98905  -0.93639  -0.80274  -0.71588
  Beta  occ. eigenvalues --   -0.67434  -0.62936  -0.59251  -0.54426  -0.53112
  Beta  occ. eigenvalues --   -0.47164  -0.42548  -0.39436  -0.38556  -0.36103
  Beta  occ. eigenvalues --   -0.34886  -0.33869  -0.33428  -0.32462  -0.30396
  Beta  occ. eigenvalues --   -0.30183  -0.29541  -0.29329  -0.28357  -0.26722
  Beta  occ. eigenvalues --   -0.26185  -0.25609  -0.24086  -0.23955  -0.17716
  Beta  occ. eigenvalues --   -0.15897  -0.13883
  Beta virt. eigenvalues --    0.06779   0.07633   0.08350   0.08886   0.09403
  Beta virt. eigenvalues --    0.09901   0.10540   0.10879   0.11362   0.12204
  Beta virt. eigenvalues --    0.12493   0.12955   0.13248   0.14432   0.14549

 Mulliken charges and spin densities:
               1          2
     1  C    0.592753  -1.052479
     2  C   -1.017983   0.686869
     3  C    0.074920  -0.123234
     4  N   -0.139734   0.121907
     5  C    1.393910  -1.792850
     6  C   -2.066654   2.244936
     7  O    0.085443  -0.007024
     8  C    2.583075  -3.209730
     9  C   -1.359027   1.655944
    10  O   -0.292267   0.027025
    11  C    1.648265  -2.263017
    12  H   -0.118583   0.258943
    13  H   -0.265280   0.411560
    14  H    0.025855   0.138852
    15  H    0.080086   0.070685
    16  H    0.060873   0.110214
    17  H    0.099852   0.103825
    18  H   -0.342460   0.539262
    19  H   -0.461077   0.640225
    20  H   -0.328314   0.496879
    21  H   -0.268779   0.437468
    22  H   -0.313872   0.490279
    23  H   -0.646100   0.823405
    24  H   -0.024900   0.190056
 Sum of Mulliken charges =  -1.00000   1.00000

 Dipole moment (field-independent basis, Debye):
    X=              3.4720    Y=              2.9741    Z=              0.2653  Tot=              4.5794
 Quadrupole moment (field-independent basis, Debye-Ang):
   XX=           -129.3638   YY=           -107.1241   ZZ=            -99.9802
   XY=             -6.7796   XZ=              2.7474   YZ=              0.2907

 Summary of Natural Population Analysis:

                                       Natural Population
                Natural  -----------------------------------------------
    Atom  No    Charge         Core      Valence    Rydberg      Total
 -----------------------------------------------------------------------
      C    1   -0.28028      0.99966     2.27674    0.00388     3.28028
      C    2   -0.21643      0.99959     2.20934    0.00751     3.21643
      C    3    0.29773      0.99956     1.68215    0.02057     2.70227
      N    4   -0.26658      0.99966     2.75690    0.01002     3.76658
      C    5   -0.09997      0.99957     2.08854    0.01186     3.09997
      C    6    0.08233      0.99950     1.90178    0.01639     2.91767
      O    7   -0.28154      0.99986     3.27246    0.00922     4.28154
      C    8   -0.29193      0.99962     2.28497    0.00735     3.29193
      C    9    0.29824      0.99961     1.67982    0.02232     2.70176
      O   10   -0.27537      0.99987     3.26842    0.00708     4.27537
      C   11   -0.33894      0.99962     2.33292    0.00639     3.33894
      H   12    0.09848      0.00000     0.40013    0.00138     0.40152
      H   13    0.09709      0.00000     0.40148    0.00144     0.40291
      H   14    0.10385      0.00000     0.39461    0.00153     0.39615
      H   15    0.10745      0.00000     0.39100    0.00155     0.39255
      H   16    0.10799      0.00000     0.39064    0.00137     0.39201
      H   17    0.09914      0.00000     0.39909    0.00177     0.40086
      H   18    0.09891      0.00000     0.39952    0.00157     0.40109
      H   19    0.10965      0.00000     0.38692    0.00343     0.39035
      H   20    0.10583      0.00000     0.39262    0.00155     0.39417
      H   21    0.10707      0.00000     0.39100    0.00193     0.39293
      H   22    0.11399      0.00000     0.38484    0.00117     0.38601
      H   23    0.11351      0.00000     0.38239    0.00411     0.38649
      H   24    0.10979      0.00000     0.38912    0.00109     0.39021
 =======================================================================
   * Total *   -0.00000     10.99612    30.85739    0.14649    42.00000

 Normal termination of Gaussian 16 at Tue Dec  8 21:23:10 2020.
