 Gaussian 16, Revision A.03,

 -----------------------------------------------------------
 # opt freq B3LYP/6-31G(d) empiricaldispersion=gd3bj scf=xqc
 -----------------------------------------------------------

 -------------------------------
 CID_154159049_JID_2327_neutraal
 -------------------------------
 Symbolic Z-matrix:
 Charge =  0 Multiplicity = 1

 SCF Done:  E(RB3LYP) =  -552.185322775     A.U. after   15 cycles
 SCF Done:  E(RB3LYP) =  -552.190061890     A.U. after   13 cycles
 SCF Done:  E(RB3LYP) =  -552.190582582     A.U. after   12 cycles
 SCF Done:  E(RB3LYP) =  -552.190684578     A.U. after   11 cycles
 SCF Done:  E(RB3LYP) =  -552.190705659     A.U. after   10 cycles
 SCF Done:  E(RB3LYP) =  -552.190712525     A.U. after   11 cycles
 SCF Done:  E(RB3LYP) =  -552.190720424     A.U. after   10 cycles
 SCF Done:  E(RB3LYP) =  -552.190768806     A.U. after   11 cycles
 SCF Done:  E(RB3LYP) =  -552.135259760     A.U. after   14 cycles
 SCF Done:  E(RB3LYP) =  -552.190967984     A.U. after   14 cycles
 SCF Done:  E(RB3LYP) =  -552.191480475     A.U. after    9 cycles
 SCF Done:  E(RB3LYP) =  -552.191482886     A.U. after    9 cycles
 SCF Done:  E(RB3LYP) =  -552.191483846     A.U. after    8 cycles
 SCF Done:  E(RB3LYP) =  -552.191484147     A.U. after    8 cycles
 Optimization completed.
    -- Stationary point found.
 Normal termination of Gaussian 16 at Wed Dec  9 17:07:16 2020.

 --------------------------------------------------------------------
 #N Geom=AllCheck Guess=TCheck SCRF=Check GenChk RB3LYP/6-31G(d) Freq
 --------------------------------------------------------------------

 Structure from the checkpoint file:  "JID_2327.chk"
 -------------------------------
 CID_154159049_JID_2327_neutraal
 -------------------------------
 Charge =  0 Multiplicity = 1

 SCF Done:  E(RB3LYP) =  -552.191484147     A.U. after    1 cycles

  Exact polarizability: 141.773   0.300 105.032  -1.567  -1.258  70.031
 Approx polarizability: 200.364 -16.877 179.303  -2.652  -4.866 102.697

                      1                      2                      3
                      A                      A                      A
 Frequencies --     56.1429                79.7487               102.1127
 Red. masses --      3.9803                 2.7864                 3.9310
 Frc consts  --      0.0074                 0.0104                 0.0241
 IR Inten    --      0.0529                 0.1656                 8.0862

                      4                      5                      6
                      A                      A                      A
 Frequencies --    155.6910               172.3633               193.9896
 Red. masses --      1.0692                 1.0554                 2.0261
 Frc consts  --      0.0153                 0.0185                 0.0449
 IR Inten    --      0.4979                 0.0188                 0.3883

                      7                      8                      9
                      A                      A                      A
 Frequencies --    216.0788               229.9765               259.4718
 Red. masses --      2.5388                 1.3120                 1.1888
 Frc consts  --      0.0698                 0.0409                 0.0472
 IR Inten    --      1.4149                 0.9104                 0.3663

                     10                     11                     12
                      A                      A                      A
 Frequencies --    264.2879               291.6534               304.9802
 Red. masses --      3.5454                 2.9513                 2.9750
 Frc consts  --      0.1459                 0.1479                 0.1630
 IR Inten    --      0.1871                 2.8157                 1.6364

                     13                     14                     15
                      A                      A                      A
 Frequencies --    390.7880               401.9091               443.5007
 Red. masses --      3.4280                 4.0466                 3.0928
 Frc consts  --      0.3084                 0.3851                 0.3584
 IR Inten    --      4.3843                 4.8947                 2.3629

                     16                     17                     18
                      A                      A                      A
 Frequencies --    467.8868               498.2485               514.1521
 Red. masses --      7.0213                 5.5981                 4.4920
 Frc consts  --      0.9056                 0.8188                 0.6996
 IR Inten    --      4.9564                 7.2622                 9.1756

                     19                     20                     21
                      A                      A                      A
 Frequencies --    618.6370               691.9089               718.4950
 Red. masses --      4.5091                 4.7628                 6.5057
 Frc consts  --      1.0167                 1.3434                 1.9788
 IR Inten    --      7.9690                 2.4706                 0.5810

                     22                     23                     24
                      A                      A                      A
 Frequencies --    735.0659               783.7378               890.4920
 Red. masses --      4.5819                 7.2191                 2.8987
 Frc consts  --      1.4586                 2.6126                 1.3543
 IR Inten    --      1.4437                10.5463                 6.2683

                     25                     26                     27
                      A                      A                      A
 Frequencies --    948.7118               950.7863               973.2499
 Red. masses --      3.3058                 1.2669                 2.2726
 Frc consts  --      1.7530                 0.6748                 1.2683
 IR Inten    --      3.9822                 1.9303                 3.2779

                     28                     29                     30
                      A                      A                      A
 Frequencies --    983.0817              1063.1209              1064.4861
 Red. masses --      1.5107                 1.5195                 2.0786
 Frc consts  --      0.8602                 1.0119                 1.3877
 IR Inten    --      0.4099                 1.2241                 0.1863

                     31                     32                     33
                      A                      A                      A
 Frequencies --   1088.4787              1127.5017              1154.6399
 Red. masses --      2.1084                 2.2485                 1.9232
 Frc consts  --      1.4718                 1.6841                 1.5107
 IR Inten    --      2.4333                17.7213                 3.3225

                     34                     35                     36
                      A                      A                      A
 Frequencies --   1158.1381              1164.8504              1223.6264
 Red. masses --      1.5725                 2.3373                 2.0723
 Frc consts  --      1.2427                 1.8686                 1.8281
 IR Inten    --     25.8295                69.0826                 0.8840

                     37                     38                     39
                      A                      A                      A
 Frequencies --   1271.7074              1334.2647              1350.3819
 Red. masses --      5.0529                 2.5792                 1.6319
 Frc consts  --      4.8146                 2.7053                 1.7533
 IR Inten    --     11.5681                28.1662                 5.7269

                     40                     41                     42
                      A                      A                      A
 Frequencies --   1365.5156              1422.3110              1434.9585
 Red. masses --      2.2499                 1.2966                 1.5157
 Frc consts  --      2.4718                 1.5455                 1.8388
 IR Inten    --      6.8692                 4.1127                 4.8579

                     43                     44                     45
                      A                      A                      A
 Frequencies --   1438.2238              1449.1018              1469.1749
 Red. masses --      1.4578                 1.2676                 1.4913
 Frc consts  --      1.7767                 1.5683                 1.8966
 IR Inten    --     10.1570                 3.4864                55.8927

                     46                     47                     48
                      A                      A                      A
 Frequencies --   1492.2915              1498.9120              1512.8824
 Red. masses --      1.1789                 1.0453                 1.0441
 Frc consts  --      1.5468                 1.3838                 1.4080
 IR Inten    --      6.0080                 7.5876                 3.1328

                     49                     50                     51
                      A                      A                      A
 Frequencies --   1520.2242              1523.0989              1529.1746
 Red. masses --      1.0529                 1.0906                 1.0477
 Frc consts  --      1.4336                 1.4906                 1.4434
 IR Inten    --      2.4848                34.3443                 8.9789

                     52                     53                     54
                      A                      A                      A
 Frequencies --   1539.1690              1546.0550              1571.5226
 Red. masses --      1.0823                 1.0587                 4.0924
 Frc consts  --      1.5107                 1.4911                 5.9549
 IR Inten    --      5.7651                 8.8678                91.3233

                     55                     56                     57
                      A                      A                      A
 Frequencies --   1623.6296              1772.2955              3054.1083
 Red. masses --      7.3491                11.4919                 1.0346
 Frc consts  --     11.4146                21.2673                 5.6859
 IR Inten    --     90.3281               298.2225                22.6162

                     58                     59                     60
                      A                      A                      A
 Frequencies --   3059.9418              3063.8504              3073.4993
 Red. masses --      1.0371                 1.0398                 1.0741
 Frc consts  --      5.7214                 5.7510                 5.9783
 IR Inten    --     10.0332                24.9450                 5.5827

                     61                     62                     63
                      A                      A                      A
 Frequencies --   3084.9819              3112.7014              3121.2504
 Red. masses --      1.0428                 1.0997                 1.1023
 Frc consts  --      5.8471                 6.2777                 6.3270
 IR Inten    --     32.6879                 8.9557                29.3159

                     64                     65                     66
                      A                      A                      A
 Frequencies --   3128.6979              3136.3526              3155.9985
 Red. masses --      1.1025                 1.1033                 1.1031
 Frc consts  --      6.3585                 6.3946                 6.4733
 IR Inten    --     29.7979                21.0238                13.0334

                     67                     68                     69
                      A                      A                      A
 Frequencies --   3162.9787              3168.8231              3200.9371
 Red. masses --      1.1006                 1.1025                 1.1024
 Frc consts  --      6.4874                 6.5227                 6.6548
 IR Inten    --     13.8898                 7.1415                 0.7628

 - Thermochemistry -
 -------------------
 Temperature   298.150 Kelvin.  Pressure   1.00000 Atm.
 Atom     1 has atomic number  6 and mass  12.00000

 Molecular mass:   167.10586 amu.
 Principal axes and moments of inertia in atomic units:
                           1         2         3
     Eigenvalues --  1096.843082589.821513341.88168
           X            0.99981   0.01930   0.00003
           Y           -0.01930   0.99980   0.00597
           Z            0.00009  -0.00597   0.99998
 This molecule is an asymmetric top.
 Rotational symmetry number  1.
 Warning -- assumption of classical behavior for rotation
           may cause significant error
 Rotational temperatures (Kelvin)      0.07897     0.03344     0.02592
 Rotational constants (GHZ):           1.64540     0.69686     0.54004
 Zero-point vibrational energy     553697.6 (Joules/Mol)
                                  132.33690 (Kcal/Mol)
 Warning -- explicit consideration of  19 degrees of freedom as
           vibrations may cause significant error
 Vibrational temperatures:     80.78   114.74   146.92   224.00   247.99
          (Kelvin)            279.11   310.89   330.88   373.32   380.25
                              419.62   438.80   562.26   578.26   638.10
                              673.18   716.87   739.75   890.08   995.50
                             1033.75  1057.60  1127.62  1281.22  1364.98
                             1367.97  1400.29  1414.44  1529.59  1531.56
                             1566.08  1622.22  1661.27  1666.30  1675.96
                             1760.53  1829.70  1919.71  1942.90  1964.67
                             2046.39  2064.59  2069.28  2084.93  2113.81
                             2147.07  2156.60  2176.70  2187.26  2191.40
                             2200.14  2214.52  2224.43  2261.07  2336.04
                             2549.94  4394.18  4402.57  4408.20  4422.08
                             4438.60  4478.48  4490.78  4501.50  4512.51
                             4540.78  4550.82  4559.23  4605.43

 Zero-point correction=                           0.210892 (Hartree/Particle)
 Thermal correction to Energy=                    0.223355
 Thermal correction to Enthalpy=                  0.224300
 Thermal correction to Gibbs Free Energy=         0.172694
 Sum of electronic and zero-point Energies=           -551.980592
 Sum of electronic and thermal Energies=              -551.968129
 Sum of electronic and thermal Enthalpies=            -551.967184
 Sum of electronic and thermal Free Energies=         -552.018790

                     E (Thermal)             CV                S
                      KCal/Mol        Cal/Mol-Kelvin    Cal/Mol-Kelvin
 Total                  140.158             46.057            108.613
 Electronic               0.000              0.000              0.000
 Translational            0.889              2.981             41.249
 Rotational               0.889              2.981             30.630
 Vibrational            138.380             40.096             36.735
 Vibration     1          0.596              1.975              4.588
 Vibration     2          0.600              1.963              3.897
 Vibration     3          0.604              1.947              3.414
 Vibration     4          0.620              1.896              2.601
 Vibration     5          0.626              1.876              2.410
 Vibration     6          0.635              1.848              2.189
 Vibration     7          0.645              1.817              1.992
 Vibration     8          0.652              1.795              1.879
 Vibration     9          0.668              1.747              1.665
 Vibration    10          0.671              1.738              1.633
 Vibration    11          0.687              1.689              1.464
 Vibration    12          0.696              1.664              1.389
 Vibration    13          0.758              1.490              0.997
 Vibration    14          0.768              1.466              0.956
 Vibration    15          0.803              1.375              0.816
 Vibration    16          0.825              1.321              0.743
 Vibration    17          0.854              1.254              0.663
 Vibration    18          0.869              1.219              0.624
 Vibration    19          0.979              0.993              0.419

                           ! Non-Optimized Parameters !
 Normal termination of Gaussian 16 at Wed Dec  9 17:13:16 2020.

 ----------------------------------------------------------------------
 # B3LYP/6-311++G(d,p) empiricaldispersion=gd3bj scf=xqc pop=npa geom=c
 heck
 ----------------------------------------------------------------------

 ---------------------------------------
 CID_154159049_JID_2327_Energie_neutraal
 ---------------------------------------
 Structure from the checkpoint file:  "JID_2327.chk"
 Charge =  0 Multiplicity = 1

 SCF Done:  E(RB3LYP) =  -552.342673877     A.U. after   16 cycles
 Normal termination of Gaussian 16 at Wed Dec  9 17:15:32 2020.

 ----------------------------------------------------------------------
 # B3LYP/6-311++G(d,p) empiricaldispersion=gd3bj scf=xqc pop=npa geom=c
 heck
 ----------------------------------------------------------------------

 -------------------------------------
 CID_154159049_JID_2327_Energie_kation
 -------------------------------------
 Structure from the checkpoint file:  "JID_2327.chk"
 Charge =  1 Multiplicity = 2

 SCF Done:  E(UB3LYP) =  -552.018100021     A.U. after   33 cycles
 SCF Done:  E(UB3LYP) =  -552.018100021     a.u. after    2 cycles
 Normal termination of Gaussian 16 at Wed Dec  9 17:25:35 2020.
 Gaussian 16:  ES64L-G16RevA.03 25-Dec-2016

 ----------------------------------------------------------------------
 # B3LYP/6-311++G(d,p) empiricaldispersion=gd3bj scf=xqc pop=npa geom=c
 heck
 ----------------------------------------------------------------------

 ------------------------------------
 CID_154159049_JID_2327_Energie_anion
 ------------------------------------
 Structure from the checkpoint file:  "JID_2327.chk"
 Charge = -1 Multiplicity = 2

                         Standard orientation:
 ---------------------------------------------------------------------
 Center     Atomic      Atomic             Coordinates (Angstroms)
 Number     Number       Type             X           Y           Z
 ---------------------------------------------------------------------
      1          6           0       -3.331815   -1.086713    0.183087
      2          6           0       -1.876496   -0.754695    0.072294
      3          7           0       -0.998648   -1.715289    0.096016
      4          7           0        0.339787   -1.427811   -0.006627
      5          6           0        0.733198   -0.189168   -0.117845
      6          7           0       -0.135521    0.880383   -0.143454
      7          6           0       -1.522203    0.662688   -0.062796
      8          8           0       -2.334603    1.579373   -0.101108
      9          6           0        0.312683    2.270905   -0.279538
     10          6           0        2.227711    0.069567   -0.155202
     11          6           0        2.743205    0.257538    1.286354
     12          6           0        2.977621   -1.065720   -0.862440
     13          1           0       -3.776578   -0.580069    1.047154
     14          1           0       -3.454353   -2.166613    0.282208
     15          1           0       -3.875165   -0.729896   -0.699298
     16          1           0        1.050874    2.512763    0.486731
     17          1           0        0.743008    2.440975   -1.270305
     18          1           0       -0.570374    2.895629   -0.157499
     19          1           0        2.408314    0.995558   -0.711254
     20          1           0        2.585989   -0.662832    1.857622
     21          1           0        3.814677    0.483252    1.278186
     22          1           0        2.228424    1.071138    1.809354
     23          1           0        2.627593   -1.189420   -1.891935
     24          1           0        4.049243   -0.840102   -0.885079
     25          1           0        2.822421   -2.012771   -0.342050
 ---------------------------------------------------------------------

 SCF Done:  E(UB3LYP) =  -552.347656430     A.U. after   33 cycles
 SCF Done:  E(UB3LYP) =  -552.347656430     a.u. after    1 cycles

 The electronic state is 2-A.
 Alpha  occ. eigenvalues --  -18.94459 -14.22147 -14.17547 -14.16333 -10.11989
 Alpha  occ. eigenvalues --  -10.09690 -10.08293 -10.06864 -10.04870 -10.04591
 Alpha  occ. eigenvalues --  -10.04039 -10.02853  -0.90601  -0.85800  -0.79734
 Alpha  occ. eigenvalues --   -0.70716  -0.66136  -0.60754  -0.57727  -0.57395
 Alpha  occ. eigenvalues --   -0.52455  -0.48488  -0.44975  -0.41683  -0.36759
 Alpha  occ. eigenvalues --   -0.35395  -0.33884  -0.33240  -0.30174  -0.29810
 Alpha  occ. eigenvalues --   -0.29259  -0.28488  -0.27635  -0.27148  -0.25871
 Alpha  occ. eigenvalues --   -0.24866  -0.24127  -0.23770  -0.22945  -0.22187
 Alpha  occ. eigenvalues --   -0.17162  -0.16805  -0.12747  -0.09921  -0.08239
 Alpha  occ. eigenvalues --    0.04792
 Alpha virt. eigenvalues --    0.07075   0.09039   0.09553   0.09942   0.10920
 Alpha virt. eigenvalues --    0.12042   0.12432   0.13074   0.13181   0.13532
 Alpha virt. eigenvalues --    0.13986   0.14395   0.15061   0.15339   0.16445

  Beta  occ. eigenvalues --  -18.94339 -14.21826 -14.17701 -14.15829 -10.11904
  Beta  occ. eigenvalues --  -10.09434 -10.08305 -10.06883 -10.04809 -10.04581
  Beta  occ. eigenvalues --  -10.03776 -10.02876  -0.90263  -0.85431  -0.79150
  Beta  occ. eigenvalues --   -0.70383  -0.65943  -0.60436  -0.57564  -0.57326
  Beta  occ. eigenvalues --   -0.52268  -0.47972  -0.44815  -0.41414  -0.36519
  Beta  occ. eigenvalues --   -0.34764  -0.33673  -0.33153  -0.30052  -0.29251
  Beta  occ. eigenvalues --   -0.29021  -0.28349  -0.27556  -0.27002  -0.25492
  Beta  occ. eigenvalues --   -0.24751  -0.23956  -0.23528  -0.22849  -0.21447
  Beta  occ. eigenvalues --   -0.16620  -0.15323  -0.12644  -0.08674  -0.07798
  Beta virt. eigenvalues --    0.07519   0.09194   0.09503   0.09919   0.11051
  Beta virt. eigenvalues --    0.11357   0.12003   0.12642   0.13037   0.13356
  Beta virt. eigenvalues --    0.14099   0.14303   0.14453   0.15024   0.15241

 Mulliken charges and spin densities:
               1          2
     1  C   -0.492392  -0.032153
     2  C    0.131564   0.179371
     3  N   -0.002745   0.241201
     4  N   -0.109765  -0.092007
     5  C    0.023149  -0.430719
     6  N    0.030370   0.103229
     7  C    0.071029   0.054570
     8  O   -0.428282   0.044898
     9  C   -0.054299  -0.311568
    10  C   -0.821056   1.173136
    11  C    0.648179  -1.155534
    12  C   -0.513479  -0.130698
    13  H    0.139404   0.007184
    14  H    0.125143  -0.001500
    15  H    0.128944   0.014812
    16  H   -0.190652   0.344997
    17  H    0.157083  -0.003064
    18  H    0.201419  -0.017578
    19  H   -0.043969   0.171911
    20  H    0.108829   0.037847
    21  H   -0.501088   0.651247
    22  H    0.076067   0.036476
    23  H    0.146473  -0.003871
    24  H    0.014601   0.116313
    25  H    0.155473   0.001501
 Sum of Mulliken charges =  -1.00000   1.00000

 Dipole moment (field-independent basis, Debye):
    X=              0.7349    Y=              0.9491    Z=             -1.8544  Tot=              2.2090
 Quadrupole moment (field-independent basis, Debye-Ang):
   XX=           -119.8979   YY=           -101.7221   ZZ=            -84.1197
   XY=             -1.0407   XZ=             -6.8636   YZ=             -2.6634

 Summary of Natural Population Analysis:

                                       Natural Population
                Natural  -----------------------------------------------
    Atom  No    Charge         Core      Valence    Rydberg      Total
 -----------------------------------------------------------------------
      C    1   -0.29809      0.99965     2.29339    0.00505     3.29809
      C    2    0.09479      0.99957     1.88872    0.01692     2.90521
      N    3   -0.06832      0.99964     2.55338    0.01530     3.56832
      N    4   -0.20947      0.99965     2.69722    0.01261     3.70947
      C    5    0.26572      0.99957     1.71641    0.01830     2.73428
      N    6   -0.19379      0.99959     2.68613    0.00807     3.69379
      C    7    0.32500      0.99959     1.65361    0.02181     2.67500
      O    8   -0.33190      0.99988     3.32637    0.00565     4.33190
      C    9   -0.19055      0.99965     2.18289    0.00801     3.19055
      C   10   -0.13607      0.99959     2.12626    0.01022     3.13607
      C   11   -0.27757      0.99964     2.27206    0.00587     3.27757
      C   12   -0.27943      0.99966     2.27327    0.00650     3.27943
      H   13    0.10115      0.00000     0.39773    0.00112     0.39885
      H   14    0.10030      0.00000     0.39844    0.00126     0.39970
      H   15    0.10097      0.00000     0.39791    0.00113     0.39903
      H   16    0.09775      0.00000     0.40108    0.00117     0.40225
      H   17    0.09210      0.00000     0.40711    0.00079     0.40790
      H   18    0.11687      0.00000     0.38176    0.00137     0.38313
      H   19    0.09634      0.00000     0.40151    0.00215     0.40366
      H   20    0.10120      0.00000     0.39767    0.00113     0.39880
      H   21    0.09699      0.00000     0.40103    0.00198     0.40301
      H   22    0.09833      0.00000     0.40072    0.00095     0.40167
      H   23    0.09835      0.00000     0.40089    0.00076     0.40165
      H   24    0.09075      0.00000     0.40850    0.00075     0.40925
      H   25    0.10859      0.00000     0.39019    0.00122     0.39141
 =======================================================================
   * Total *    0.00000     11.99568    32.85424    0.15008    45.00000

 Normal termination of Gaussian 16 at Wed Dec  9 17:31:31 2020.
