 Gaussian 16, Revision A.03,

 -----------------------------------------------------------
 # opt freq B3LYP/6-31G(d) empiricaldispersion=gd3bj scf=xqc
 -----------------------------------------------------------

 -------------------------------
 CID_123492728_JID_1936_neutraal
 -------------------------------
 Symbolic Z-matrix:
 Charge =  0 Multiplicity = 1

 SCF Done:  E(RB3LYP) =  -577.116933817     A.U. after   14 cycles
 SCF Done:  E(RB3LYP) =  -577.122661516     A.U. after   14 cycles
 SCF Done:  E(RB3LYP) =  -577.123678656     A.U. after   13 cycles
 SCF Done:  E(RB3LYP) =  -577.123958889     A.U. after   12 cycles
 SCF Done:  E(RB3LYP) =  -577.124153225     A.U. after   12 cycles
 SCF Done:  E(RB3LYP) =  -577.124398123     A.U. after   12 cycles
 SCF Done:  E(RB3LYP) =  -577.124398693     A.U. after   11 cycles
 SCF Done:  E(RB3LYP) =  -577.124427886     A.U. after   10 cycles
 SCF Done:  E(RB3LYP) =  -577.124430789     A.U. after   10 cycles
 SCF Done:  E(RB3LYP) =  -577.124431835     A.U. after    8 cycles
 SCF Done:  E(RB3LYP) =  -577.124431956     A.U. after    7 cycles
 SCF Done:  E(RB3LYP) =  -577.124432005     A.U. after    7 cycles
 Optimization completed.
    -- Stationary point found.

 1\1\GINC-NODE105\FOpt\RB3LYP\6-31G(d)\C7H16O4\VSC10255\08-Dec-2020\0\\
 # opt freq B3LYP/6-31G(d) empiricaldispersion=gd3bj scf=xqc\\CID_12349
 2728_JID_1936_neutraal\\0,1\C,1.006053326,-0.1451913814,0.0729076366\C
 ,0.8737454824,-1.3376051811,1.0200235505\C,1.029374447,-0.9750494045,2
 .5006917738\C,0.182712645,0.1931790163,3.0322733643\C,-1.3439882182,0.
 0332334934,2.9469237557\C,-1.9073787199,-1.2168963978,3.6410752737\C,-
 1.4577141639,-1.3906114066,5.0863549617\O,-1.8597350452,-0.2067228337,
 5.7978669147\O,-1.239751861,-0.2212805127,7.0854940303\O,0.1014676078,

 Normal termination of Gaussian 16 at Tue Dec  8 21:37:26 2020.

 --------------------------------------------------------------------
 #N Geom=AllCheck Guess=TCheck SCRF=Check GenChk RB3LYP/6-31G(d) Freq
 --------------------------------------------------------------------

 Structure from the checkpoint file:  "JID_1936.chk"
 -------------------------------
 CID_123492728_JID_1936_neutraal
 -------------------------------
 Charge =  0 Multiplicity = 1

 SCF Done:  E(RB3LYP) =  -577.124432005     A.U. after    1 cycles

  Exact polarizability: 104.616  -2.703  93.561   0.816   0.457  77.611
 Approx polarizability: 127.457  -5.577 137.374   1.604  -3.254 114.792

                      1                      2                      3
                      A                      A                      A
 Frequencies --     46.6488                47.7349                65.0163
 Red. masses --      4.7328                 5.2275                 4.6053
 Frc consts  --      0.0061                 0.0070                 0.0115
 IR Inten    --      0.1709                 0.2570                 1.1458

                      4                      5                      6
                      A                      A                      A
 Frequencies --     72.3898               124.0115               141.6571
 Red. masses --      3.3908                 4.0205                 6.0780
 Frc consts  --      0.0105                 0.0364                 0.0719
 IR Inten    --      0.3670                 5.4389                 1.7234

                      7                      8                      9
                      A                      A                      A
 Frequencies --    191.7874               235.2595               265.8438
 Red. masses --      2.6856                 2.6779                 1.2344
 Frc consts  --      0.0582                 0.0873                 0.0514
 IR Inten    --      5.0561                 1.8506                 0.4076

                     10                     11                     12
                      A                      A                      A
 Frequencies --    289.7963               294.5605               335.8526
 Red. masses --      1.3920                 1.4771                 2.2382
 Frc consts  --      0.0689                 0.0755                 0.1487
 IR Inten    --     59.9754                51.6929                16.7911

                     13                     14                     15
                      A                      A                      A
 Frequencies --    354.1915               381.8479               406.4972
 Red. masses --      2.0410                 2.0123                 1.5029
 Frc consts  --      0.1509                 0.1729                 0.1463
 IR Inten    --     43.0501                 4.9167                93.0869

                     16                     17                     18
                      A                      A                      A
 Frequencies --    412.7867               435.0682               517.0663
 Red. masses --      2.9320                 2.4764                 2.6924
 Frc consts  --      0.2944                 0.2762                 0.4241
 IR Inten    --      2.5939                 4.3024                20.8663

                     19                     20                     21
                      A                      A                      A
 Frequencies --    599.3589               621.1165               726.1995
 Red. masses --      3.0307                 2.8360                 1.5156
 Frc consts  --      0.6414                 0.6446                 0.4709
 IR Inten    --      9.7567                 4.2457                10.6014

                     22                     23                     24
                      A                      A                      A
 Frequencies --    772.0649               783.6838               807.5818
 Red. masses --     11.9450                 2.5385                 2.0361
 Frc consts  --      4.1951                 0.9186                 0.7824
 IR Inten    --     52.9147                 8.3810                 3.5076

                     25                     26                     27
                      A                      A                      A
 Frequencies --    875.0966               892.1422               930.6119
 Red. masses --      2.2664                 1.9388                 5.8558
 Frc consts  --      1.0226                 0.9092                 2.9880
 IR Inten    --     16.1404                 0.7382                 0.9214

                     28                     29                     30
                      A                      A                      A
 Frequencies --    954.8874               966.2163               997.6545
 Red. masses --      2.3516                 2.0498                 1.6866
 Frc consts  --      1.2633                 1.1275                 0.9890
 IR Inten    --     16.4955                 9.9919                16.0655

                     31                     32                     33
                      A                      A                      A
 Frequencies --   1015.3544              1065.5540              1071.2963
 Red. masses --      1.8858                 1.6885                 1.6777
 Frc consts  --      1.1455                 1.1295                 1.1344
 IR Inten    --      7.0727                 5.3107                 2.0938

                     34                     35                     36
                      A                      A                      A
 Frequencies --   1080.7392              1127.7378              1159.2456
 Red. masses --      1.8362                 2.0992                 2.3229
 Frc consts  --      1.2636                 1.5729                 1.8392
 IR Inten    --     27.0057                 9.6336                 4.7745

                     37                     38                     39
                      A                      A                      A
 Frequencies --   1168.2562              1223.4955              1233.4036
 Red. masses --      2.3288                 1.3033                 1.2823
 Frc consts  --      1.8726                 1.1495                 1.1494
 IR Inten    --     39.7695                 0.7128                 2.4928

                     40                     41                     42
                      A                      A                      A
 Frequencies --   1263.3865              1276.4028              1314.5242
 Red. masses --      1.1414                 1.2117                 1.1806
 Frc consts  --      1.0734                 1.1631                 1.2020
 IR Inten    --     18.6710                23.9207                 2.0777

                     43                     44                     45
                      A                      A                      A
 Frequencies --   1355.6412              1386.6163              1391.6842
 Red. masses --      1.1025                 1.3608                 1.5393
 Frc consts  --      1.1937                 1.5415                 1.7565
 IR Inten    --      2.5123                12.6240                 4.9114

                     46                     47                     48
                      A                      A                      A
 Frequencies --   1403.7044              1406.1938              1416.2968
 Red. masses --      1.2893                 1.1292                 1.2858
 Frc consts  --      1.4967                 1.3155                 1.5197
 IR Inten    --     23.9499                27.9463                 1.6191

                     49                     50                     51
                      A                      A                      A
 Frequencies --   1426.9694              1433.9783              1438.4547
 Red. masses --      1.4695                 1.3601                 1.3268
 Frc consts  --      1.7630                 1.6478                 1.6175
 IR Inten    --      5.9677                 3.5655                 1.3607

                     52                     53                     54
                      A                      A                      A
 Frequencies --   1450.8114              1503.7383              1514.0656
 Red. masses --      1.5119                 1.0854                 1.0760
 Frc consts  --      1.8750                 1.4460                 1.4533
 IR Inten    --     23.7979                 3.3688                 3.0811

                     55                     56                     57
                      A                      A                      A
 Frequencies --   1523.0608              1524.5009              1527.8676
 Red. masses --      1.0704                 1.0729                 1.0795
 Frc consts  --      1.4630                 1.4691                 1.4847
 IR Inten    --      5.8234                 4.7575                 3.0566

                     58                     59                     60
                      A                      A                      A
 Frequencies --   1540.2014              1554.3908              2972.5297
 Red. masses --      1.0830                 1.0837                 1.0837
 Frc consts  --      1.5137                 1.5428                 5.6419
 IR Inten    --      6.4719                 7.2202                70.1695

                     61                     62                     63
                      A                      A                      A
 Frequencies --   3039.7209              3042.5403              3048.7120
 Red. masses --      1.0631                 1.0472                 1.0564
 Frc consts  --      5.7876                 5.7113                 5.7848
 IR Inten    --     16.8645                29.0744                34.2193

                     64                     65                     66
                      A                      A                      A
 Frequencies --   3052.9809              3056.7700              3064.4164
 Red. masses --      1.0643                 1.0628                 1.0639
 Frc consts  --      5.8447                 5.8511                 5.8865
 IR Inten    --      9.1699                53.2070                13.0228

                     67                     68                     69
                      A                      A                      A
 Frequencies --   3071.9397              3085.9973              3103.1658
 Red. masses --      1.0995                 1.1003                 1.0966
 Frc consts  --      6.1130                 6.1741                 6.2219
 IR Inten    --     17.9018                56.5456                28.9410

                     70                     71                     72
                      A                      A                      A
 Frequencies --   3105.5579              3112.8636              3117.6171
 Red. masses --      1.0991                 1.1005                 1.1033
 Frc consts  --      6.2453                 6.2826                 6.3181
 IR Inten    --     33.9325                30.7968                39.5558

                     73                     74                     75
                      A                      A                      A
 Frequencies --   3136.4337              3660.9099              3741.4308
 Red. masses --      1.1010                 1.0686                 1.0661
 Frc consts  --      6.3815                 8.4381                 8.7931
 IR Inten    --     28.5530                21.1797                 7.7366

 - Thermochemistry -
 -------------------
 Temperature   298.150 Kelvin.  Pressure   1.00000 Atm.
 Atom     1 has atomic number  6 and mass  12.00000

 Molecular mass:   164.10486 amu.
 Principal axes and moments of inertia in atomic units:
                           1         2         3
     Eigenvalues --   830.593263877.696844221.80332
           X            0.99993   0.01115   0.00398
           Y           -0.01124   0.99967   0.02323
           Z           -0.00372  -0.02327   0.99972
 This molecule is an asymmetric top.
 Rotational symmetry number  1.
 Warning -- assumption of classical behavior for rotation
           may cause significant error
 Rotational temperatures (Kelvin)      0.10428     0.02234     0.02052
 Rotational constants (GHZ):           2.17283     0.46542     0.42748
 Zero-point vibrational energy     620597.4 (Joules/Mol)
                                  148.32635 (Kcal/Mol)
 Warning -- explicit consideration of  19 degrees of freedom as
           vibrations may cause significant error
 Vibrational temperatures:     67.12    68.68    93.54   104.15   178.42
          (Kelvin)            203.81   275.94   338.49   382.49   416.95
                              423.81   483.22   509.60   549.39   584.86
                              593.91   625.97   743.94   862.34   893.65
                             1044.84  1110.83  1127.55  1161.93  1259.07
                             1283.59  1338.94  1373.87  1390.17  1435.40
                             1460.87  1533.09  1541.36  1554.94  1622.56
                             1667.90  1680.86  1760.34  1774.59  1817.73
                             1836.46  1891.31  1950.47  1995.03  2002.32
                             2019.62  2023.20  2037.74  2053.09  2063.17
                             2069.62  2087.39  2163.54  2178.40  2191.34
                             2193.42  2198.26  2216.01  2236.42  4276.81
                             4373.48  4377.54  4386.42  4392.56  4398.01
                             4409.01  4419.84  4440.06  4464.76  4468.21
                             4478.72  4485.56  4512.63  5267.23  5383.08

 Zero-point correction=                           0.236373 (Hartree/Particle)
 Thermal correction to Energy=                    0.249675
 Thermal correction to Enthalpy=                  0.250619
 Thermal correction to Gibbs Free Energy=         0.195999
 Sum of electronic and zero-point Energies=           -576.888059
 Sum of electronic and thermal Energies=              -576.874757
 Sum of electronic and thermal Enthalpies=            -576.873813
 Sum of electronic and thermal Free Energies=         -576.928433

                     E (Thermal)             CV                S
                      KCal/Mol        Cal/Mol-Kelvin    Cal/Mol-Kelvin
 Total                  156.673             48.512            114.958
 Electronic               0.000              0.000              0.000
 Translational            0.889              2.981             41.195
 Rotational               0.889              2.981             30.987
 Vibrational            154.896             42.551             42.776
 Vibration     1          0.595              1.979              4.955
 Vibration     2          0.595              1.978              4.909
 Vibration     3          0.597              1.971              4.299
 Vibration     4          0.598              1.967              4.087
 Vibration     5          0.610              1.929              3.037
 Vibration     6          0.615              1.912              2.781
 Vibration     7          0.634              1.851              2.210
 Vibration     8          0.655              1.787              1.838
 Vibration     9          0.672              1.736              1.623
 Vibration    10          0.686              1.693              1.475
 Vibration    11          0.689              1.684              1.448
 Vibration    12          0.717              1.604              1.232
 Vibration    13          0.730              1.567              1.147
 Vibration    14          0.751              1.509              1.032
 Vibration    15          0.771              1.456              0.939
 Vibration    16          0.777              1.442              0.917
 Vibration    17          0.796              1.394              0.842
 Vibration    18          0.872              1.212              0.617
 Vibration    19          0.957              1.033              0.451

                           ! Non-Optimized Parameters !

 1\1\GINC-NODE105\Freq\RB3LYP\6-31G(d)\C7H16O4\VSC10255\08-Dec-2020\0\\
 #N Geom=AllCheck Guess=TCheck SCRF=Check GenChk RB3LYP/6-31G(d) Freq\\
 CID_123492728_JID_1936_neutraal\\0,1\C,1.006053326,-0.1451913814,0.072
 9076366\C,0.8737454824,-1.3376051811,1.0200235505\C,1.029374447,-0.975
 0494045,2.5006917738\C,0.182712645,0.1931790163,3.0322733643\C,-1.3439
 882182,0.0332334934,2.9469237557\C,-1.9073787199,-1.2168963978,3.64107
 52737\C,-1.4577141639,-1.3906114066,5.0863549617\O,-1.8597350452,-0.20
 67228337,5.7978669147\O,-1.239751861,-0.2212805127,7.0854940303\O,0.10

 Normal termination of Gaussian 16 at Tue Dec  8 21:43:55 2020.

 ----------------------------------------------------------------------
 # B3LYP/6-311++G(d,p) empiricaldispersion=gd3bj scf=xqc pop=npa geom=c
 heck
 ----------------------------------------------------------------------

 ---------------------------------------
 CID_123492728_JID_1936_Energie_neutraal
 ---------------------------------------
 Structure from the checkpoint file:  "JID_1936.chk"
 Charge =  0 Multiplicity = 1

 SCF Done:  E(RB3LYP) =  -577.313286831     A.U. after   13 cycles
 Normal termination of Gaussian 16 at Tue Dec  8 21:46:37 2020.

 ----------------------------------------------------------------------
 # B3LYP/6-311++G(d,p) empiricaldispersion=gd3bj scf=xqc pop=npa geom=c
 heck
 ----------------------------------------------------------------------

 -------------------------------------
 CID_123492728_JID_1936_Energie_kation
 -------------------------------------
 Structure from the checkpoint file:  "JID_1936.chk"
 Charge =  1 Multiplicity = 2

 SCF Done:  E(UB3LYP) =  -576.965268265     A.U. after   30 cycles
 Normal termination of Gaussian 16 at Tue Dec  8 21:55:03 2020.
 Gaussian 16:  ES64L-G16RevA.03 25-Dec-2016

 ------------------------------------
 CID_123492728_JID_1936_Energie_anion
 ------------------------------------
 Structure from the checkpoint file:  "JID_1936.chk"
 Charge = -1 Multiplicity = 2

                         Standard orientation:
 ---------------------------------------------------------------------
 Center     Atomic      Atomic             Coordinates (Angstroms)
 Number     Number       Type             X           Y           Z
 ---------------------------------------------------------------------
      1          6           0       -3.629294   -0.837296   -0.585110
      2          6           0       -2.837271   -0.289889    0.602084
      3          6           0       -1.424804   -0.870665    0.727313
      4          6           0       -0.539461   -0.846145   -0.529563
      5          6           0       -0.217343    0.536634   -1.119347
      6          6           0        0.446008    1.521898   -0.144001
      7          6           0        1.677087    0.972176    0.565548
      8          8           0        2.612563    0.581876   -0.455242
      9          8           0        3.665848   -0.163923    0.158720
     10          8           0        3.196645   -1.515954    0.314798
     11          8           0       -2.713723    1.136525    0.525306
     12          1           0       -3.158388   -0.558521   -1.532452
     13          1           0       -4.652231   -0.439476   -0.585149
     14          1           0       -3.700155   -1.930156   -0.540078
     15          1           0       -3.377575   -0.550577    1.527828
     16          1           0       -0.929390   -0.343309    1.551438
     17          1           0       -1.529393   -1.914169    1.052748
     18          1           0        0.401324   -1.354939   -0.284275
     19          1           0       -1.008173   -1.455824   -1.312992
     20          1           0        0.442474    0.389841   -1.982609
     21          1           0       -1.134849    1.004060   -1.489420
     22          1           0        0.722340    2.434541   -0.686514
     23          1           0       -0.275943    1.819981    0.624055
     24          1           0        2.141230    1.724660    1.214679
     25          1           0        1.431898    0.089876    1.164284
     26          1           0        3.292146   -1.848632   -0.598673
     27          1           0       -3.605517    1.504193    0.426927
 ---------------------------------------------------------------------

 SCF Done:  E(UB3LYP) =  -577.302385893     A.U. after   29 cycles

 The electronic state is 2-A.
 Alpha  occ. eigenvalues --  -19.13211 -19.08535 -19.08321 -19.00928 -10.11832
 Alpha  occ. eigenvalues --  -10.11036 -10.06578 -10.05553 -10.05330 -10.05256
 Alpha  occ. eigenvalues --  -10.05008  -1.07628  -0.92839  -0.91109  -0.75787
 Alpha  occ. eigenvalues --   -0.69600  -0.65984  -0.61531  -0.57743  -0.53303
 Alpha  occ. eigenvalues --   -0.48533  -0.45420  -0.43387  -0.40816  -0.40455
 Alpha  occ. eigenvalues --   -0.38676  -0.36458  -0.34502  -0.33871  -0.32951
 Alpha  occ. eigenvalues --   -0.32758  -0.30009  -0.29029  -0.27589  -0.26977
 Alpha  occ. eigenvalues --   -0.26314  -0.25096  -0.23818  -0.22074  -0.21634
 Alpha  occ. eigenvalues --   -0.21596  -0.20216  -0.19259  -0.18703  -0.16324
 Alpha  occ. eigenvalues --    0.04489
 Alpha virt. eigenvalues --    0.06229   0.08309   0.08548   0.08706   0.09282
 Alpha virt. eigenvalues --    0.10245   0.10660   0.11279   0.11780   0.12546
 Alpha virt. eigenvalues --    0.13040   0.13391   0.14599   0.14641   0.15393

  Beta  occ. eigenvalues --  -19.13090 -19.08516 -19.08218 -19.00888 -10.11828
  Beta  occ. eigenvalues --  -10.11018 -10.06575 -10.05540 -10.05322 -10.05238
  Beta  occ. eigenvalues --  -10.04959  -1.07384  -0.92681  -0.91021  -0.75627
  Beta  occ. eigenvalues --   -0.69556  -0.65931  -0.61477  -0.57691  -0.53247
  Beta  occ. eigenvalues --   -0.48473  -0.45346  -0.43336  -0.40707  -0.40345
  Beta  occ. eigenvalues --   -0.38611  -0.36324  -0.34416  -0.33838  -0.32880
  Beta  occ. eigenvalues --   -0.32700  -0.29945  -0.28989  -0.27553  -0.26943
  Beta  occ. eigenvalues --   -0.26276  -0.25051  -0.23773  -0.21989  -0.21574
  Beta  occ. eigenvalues --   -0.21559  -0.20165  -0.19171  -0.18605  -0.16269
  Beta virt. eigenvalues --    0.07186   0.07856   0.08460   0.08831   0.09447
  Beta virt. eigenvalues --    0.09891   0.10598   0.11262   0.11446   0.12013
  Beta virt. eigenvalues --    0.12779   0.13475   0.13660   0.14679   0.14783

 Mulliken charges and spin densities:
               1          2
     1  C    1.087668  -1.722067
     2  C   -0.028143  -0.147695
     3  C   -0.313313  -0.032941
     4  C    0.831752  -0.793187
     5  C   -0.390208   0.091614
     6  C   -0.402652  -0.015468
     7  C   -0.109977  -0.407356
     8  O   -0.108386   0.020114
     9  O   -0.042628   0.045589
    10  O   -0.081519  -0.035125
    11  O   -0.242534   0.023090
    12  H   -0.010786   0.174635
    13  H   -0.729472   0.871565
    14  H   -0.128168   0.268412
    15  H   -0.401100   0.568311
    16  H    0.076877   0.094952
    17  H   -0.295804   0.457531
    18  H    0.053370   0.099476
    19  H   -0.242772   0.403718
    20  H    0.041066   0.141328
    21  H    0.115052   0.016923
    22  H    0.128830   0.039351
    23  H    0.119391   0.061659
    24  H    0.186075  -0.034463
    25  H    0.109189   0.096419
    26  H   -0.113197   0.347175
    27  H   -0.108612   0.366440
 Sum of Mulliken charges =  -1.00000   1.00000

 Dipole moment (field-independent basis, Debye):
    X=              5.0762    Y=              3.0320    Z=              0.0462  Tot=              5.9129
 Quadrupole moment (field-independent basis, Debye-Ang):
   XX=           -157.3077   YY=           -101.1572   ZZ=            -91.9604
   XY=              6.6533   XZ=              4.1547   YZ=              0.5223

 Summary of Natural Population Analysis:

                                       Natural Population
                Natural  -----------------------------------------------
    Atom  No    Charge         Core      Valence    Rydberg      Total
 -----------------------------------------------------------------------
      C    1   -0.29944      0.99964     2.29361    0.00619     3.29944
      C    2    0.06295      0.99958     1.92273    0.01474     2.93705
      C    3   -0.19723      0.99960     2.18727    0.01036     3.19723
      C    4   -0.19785      0.99962     2.18882    0.00940     3.19785
      C    5   -0.19278      0.99962     2.18349    0.00967     3.19278
      C    6   -0.20576      0.99961     2.19828    0.00787     3.20576
      C    7   -0.01944      0.99959     2.00862    0.01123     3.01944
      O    8   -0.15673      0.99990     3.14638    0.01046     4.15673
      O    9   -0.02820      0.99995     3.01691    0.01134     4.02820
      O   10   -0.21289      0.99991     3.20554    0.00744     4.21289
      O   11   -0.38021      0.99989     3.37306    0.00726     4.38021
      H   12    0.09866      0.00000     0.40013    0.00121     0.40134
      H   13    0.10170      0.00000     0.39563    0.00267     0.39830
      H   14    0.10240      0.00000     0.39622    0.00139     0.39760
      H   15    0.07685      0.00000     0.42100    0.00215     0.42315
      H   16    0.09691      0.00000     0.40165    0.00143     0.40309
      H   17    0.10223      0.00000     0.39660    0.00117     0.39777
      H   18    0.10270      0.00000     0.39554    0.00176     0.39730
      H   19    0.09788      0.00000     0.40094    0.00118     0.40212
      H   20    0.09709      0.00000     0.40158    0.00134     0.40291
      H   21    0.10317      0.00000     0.39543    0.00140     0.39683
      H   22    0.09627      0.00000     0.40265    0.00107     0.40373
      H   23    0.11368      0.00000     0.38497    0.00134     0.38632
      H   24    0.08177      0.00000     0.41702    0.00121     0.41823
      H   25    0.09379      0.00000     0.40440    0.00181     0.40621
      H   26    0.22975      0.00000     0.26221    0.00804     0.27025
      H   27    0.23272      0.00000     0.26147    0.00581     0.26728
 =======================================================================
   * Total *    0.00000     10.99692    33.86214    0.14094    45.00000

 Normal termination of Gaussian 16 at Tue Dec  8 22:02:47 2020.
