 Gaussian 16, Revision A.03,

 -----------------------------------------------------------
 # opt freq B3LYP/6-31G(d) empiricaldispersion=gd3bj scf=xqc
 -----------------------------------------------------------

 ------------------------------
 CID_54806331_JID_8882_neutraal
 ------------------------------
 Symbolic Z-matrix:
 Charge =  0 Multiplicity = 1

 SCF Done:  E(RB3LYP) =  -734.931479315     A.U. after   13 cycles
 SCF Done:  E(RB3LYP) =  -734.603230678     A.U. after   16 cycles
 SCF Done:  E(RB3LYP) =  -734.932155400     A.U. after   13 cycles
 SCF Done:  E(RB3LYP) =  -734.935210677     A.U. after   10 cycles
 SCF Done:  E(RB3LYP) =  -734.936238411     A.U. after   11 cycles
 SCF Done:  E(RB3LYP) =  -734.936544910     A.U. after   12 cycles
 SCF Done:  E(RB3LYP) =  -734.936801988     A.U. after   11 cycles
 SCF Done:  E(RB3LYP) =  -734.936968368     A.U. after   11 cycles
 SCF Done:  E(RB3LYP) =  -734.937022326     A.U. after   10 cycles
 SCF Done:  E(RB3LYP) =  -734.937037064     A.U. after    9 cycles
 SCF Done:  E(RB3LYP) =  -734.937042966     A.U. after    9 cycles
 SCF Done:  E(RB3LYP) =  -734.937044883     A.U. after    9 cycles
 SCF Done:  E(RB3LYP) =  -734.937045169     A.U. after    7 cycles
 Optimization completed.
    -- Stationary point found.
 Normal termination of Gaussian 16 at Fri Dec 11 22:29:21 2020.

 --------------------------------------------------------------------
 #N Geom=AllCheck Guess=TCheck SCRF=Check GenChk RB3LYP/6-31G(d) Freq
 --------------------------------------------------------------------

 Structure from the checkpoint file:  "JID_8882.chk"
 ------------------------------
 CID_54806331_JID_8882_neutraal
 ------------------------------
 Charge =  0 Multiplicity = 1

 SCF Done:  E(RB3LYP) =  -734.937045169     A.U. after    1 cycles

  Exact polarizability: 155.654 -10.257 191.900   6.966   2.777 162.979
 Approx polarizability: 212.934 -20.861 282.372  15.837   4.840 272.224

                      1                      2                      3
                      A                      A                      A
 Frequencies --     32.0040                42.9456                47.4055
 Red. masses --      3.4891                 3.9415                 3.4554
 Frc consts  --      0.0021                 0.0043                 0.0046
 IR Inten    --      0.0155                 0.0148                 0.3339

                      4                      5                      6
                      A                      A                      A
 Frequencies --     65.0815                90.4230               101.1556
 Red. masses --      3.6493                 4.2251                 3.3736
 Frc consts  --      0.0091                 0.0204                 0.0203
 IR Inten    --      0.3916                 0.2019                 0.4979

                      7                      8                      9
                      A                      A                      A
 Frequencies --    116.2278               150.0520               188.7824
 Red. masses --      3.1310                 3.1615                 3.2823
 Frc consts  --      0.0249                 0.0419                 0.0689
 IR Inten    --      0.2331                 0.1437                 4.8318

                     10                     11                     12
                      A                      A                      A
 Frequencies --    206.1959               241.8118               254.0914
 Red. masses --      2.9514                 2.1911                 1.2890
 Frc consts  --      0.0739                 0.0755                 0.0490
 IR Inten    --      5.4340                 2.8277                 0.3473

                     13                     14                     15
                      A                      A                      A
 Frequencies --    268.9510               292.6740               301.7116
 Red. masses --      2.0976                 2.7548                 2.4206
 Frc consts  --      0.0894                 0.1390                 0.1298
 IR Inten    --      1.6250                 1.4966                 1.9252

                     16                     17                     18
                      A                      A                      A
 Frequencies --    333.8376               386.7959               403.4783
 Red. masses --      2.5787                 2.1951                 2.1724
 Frc consts  --      0.1693                 0.1935                 0.2084
 IR Inten    --      4.3864                 0.6121                 2.2558

                     19                     20                     21
                      A                      A                      A
 Frequencies --    416.4107               426.5577               438.6931
 Red. masses --      2.9207                 2.1802                 1.8079
 Frc consts  --      0.2984                 0.2337                 0.2050
 IR Inten    --      0.3519                 0.2280                 0.6452

                     22                     23                     24
                      A                      A                      A
 Frequencies --    481.8534               491.3960               501.9666
 Red. masses --      3.1624                 2.2013                 2.5308
 Frc consts  --      0.4326                 0.3132                 0.3757
 IR Inten    --      2.3647                 1.0341                 1.4568

                     25                     26                     27
                      A                      A                      A
 Frequencies --    554.5268               610.2530               638.0000
 Red. masses --      2.6835                 4.0448                 6.1724
 Frc consts  --      0.4862                 0.8875                 1.4803
 IR Inten    --      7.7294                17.0117                 0.2203

                     28                     29                     30
                      A                      A                      A
 Frequencies --    652.9428               711.2401               718.2435
 Red. masses --      1.8637                 1.9594                 1.7037
 Frc consts  --      0.4681                 0.5840                 0.5178
 IR Inten    --     19.1783                53.3478                43.8309

                     31                     32                     33
                      A                      A                      A
 Frequencies --    748.0060               792.8330               796.8898
 Red. masses --      2.1123                 1.7376                 2.1732
 Frc consts  --      0.6963                 0.6435                 0.8131
 IR Inten    --     39.8790                 7.0511                 6.0967

                     34                     35                     36
                      A                      A                      A
 Frequencies --    825.3851               831.1827               847.6300
 Red. masses --      2.8863                 3.3853                 1.6023
 Frc consts  --      1.1585                 1.3780                 0.6783
 IR Inten    --      5.2984                 6.3807                 9.8021

                     37                     38                     39
                      A                      A                      A
 Frequencies --    857.5970               874.0613               880.6103
 Red. masses --      1.2582                 2.2447                 2.3533
 Frc consts  --      0.5452                 1.0104                 1.0752
 IR Inten    --      0.3667                 4.1217                 1.2716

                     40                     41                     42
                      A                      A                      A
 Frequencies --    887.2698               926.7382               948.8016
 Red. masses --      1.5772                 1.4927                 1.7335
 Frc consts  --      0.7315                 0.7553                 0.9194
 IR Inten    --      1.2526                 1.0188                 4.3804

                     43                     44                     45
                      A                      A                      A
 Frequencies --    951.0069               964.8988               982.7801
 Red. masses --      1.6370                 1.3608                 2.0050
 Frc consts  --      0.8723                 0.7465                 1.1410
 IR Inten    --      3.7381                 0.0892                 4.0312

                     46                     47                     48
                      A                      A                      A
 Frequencies --    991.3837              1022.4461              1023.8762
 Red. masses --      1.2575                 1.7745                 6.1871
 Frc consts  --      0.7282                 1.0930                 3.8215
 IR Inten    --      0.2821                 5.9513                 0.6447

                     49                     50                     51
                      A                      A                      A
 Frequencies --   1043.0215              1050.9687              1056.7535
 Red. masses --      2.3552                 1.7381                 1.8743
 Frc consts  --      1.5096                 1.1311                 1.2332
 IR Inten    --      2.9454                 0.3490                 9.0301

                     52                     53                     54
                      A                      A                      A
 Frequencies --   1060.6099              1087.8322              1096.9757
 Red. masses --      2.2222                 2.0322                 2.0297
 Frc consts  --      1.4728                 1.4169                 1.4391
 IR Inten    --      1.5997                54.5959                 2.1027

                     55                     56                     57
                      A                      A                      A
 Frequencies --   1099.4674              1116.1964              1142.1799
 Red. masses --      1.6570                 1.6046                 1.0630
 Frc consts  --      1.1802                 1.1779                 0.8170
 IR Inten    --     14.4687                11.2150                 2.0487

                     58                     59                     60
                      A                      A                      A
 Frequencies --   1155.3309              1159.6465              1184.9588
 Red. masses --      2.2091                 1.3690                 1.9914
 Frc consts  --      1.7373                 1.0847                 1.6474
 IR Inten    --      9.2779                11.8789                23.7623

                     61                     62                     63
                      A                      A                      A
 Frequencies --   1191.6767              1193.2565              1210.3835
 Red. masses --      1.9141                 1.1159                 2.0393
 Frc consts  --      1.6015                 0.9361                 1.7603
 IR Inten    --      5.2790                 0.2111                14.2923

                     64                     65                     66
                      A                      A                      A
 Frequencies --   1215.9245              1223.1553              1232.0941
 Red. masses --      1.1871                 2.3885                 1.5244
 Frc consts  --      1.0341                 2.1055                 1.3635
 IR Inten    --      0.9922                 3.8750                14.3876

                     67                     68                     69
                      A                      A                      A
 Frequencies --   1268.8048              1302.8945              1306.1870
 Red. masses --      1.3324                 1.2464                 1.2879
 Frc consts  --      1.2638                 1.2466                 1.2946
 IR Inten    --      6.0705                 3.1094                 0.7498

                     70                     71                     72
                      A                      A                      A
 Frequencies --   1316.4927              1351.5371              1354.7657
 Red. masses --      1.3728                 3.2651                 1.5593
 Frc consts  --      1.4018                 3.5140                 1.6862
 IR Inten    --      3.1511                13.8491                 0.9161

                     73                     74                     75
                      A                      A                      A
 Frequencies --   1362.9938              1368.0273              1369.4036
 Red. masses --      1.4148                 1.8090                 1.3523
 Frc consts  --      1.5486                 1.9947                 1.4942
 IR Inten    --     16.2299                 1.7916                 0.1561

                     76                     77                     78
                      A                      A                      A
 Frequencies --   1382.1489              1398.3404              1401.1827
 Red. masses --      1.4390                 1.4338                 1.4414
 Frc consts  --      1.6197                 1.6518                 1.6674
 IR Inten    --     10.0522                 2.0368                20.0644

                     79                     80                     81
                      A                      A                      A
 Frequencies --   1403.4181              1408.9756              1409.6664
 Red. masses --      1.4796                 1.3508                 1.3977
 Frc consts  --      1.7170                 1.5800                 1.6364
 IR Inten    --     16.5597                 7.4537                 2.9900

                     82                     83                     84
                      A                      A                      A
 Frequencies --   1414.5648              1422.6319              1437.7670
 Red. masses --      1.3857                 1.3222                 1.3635
 Frc consts  --      1.6337                 1.5766                 1.6607
 IR Inten    --      7.1963                 4.3453                 3.4925

                     85                     86                     87
                      A                      A                      A
 Frequencies --   1482.0671              1492.0009              1502.6766
 Red. masses --      1.1336                 1.0937                 1.8186
 Frc consts  --      1.4671                 1.4345                 2.4195
 IR Inten    --      6.5256                 3.2369                 4.8235

                     88                     89                     90
                      A                      A                      A
 Frequencies --   1505.4699              1506.6192              1513.1854
 Red. masses --      1.1112                 1.1768                 1.1382
 Frc consts  --      1.4838                 1.5738                 1.5355
 IR Inten    --      3.2880                 9.7816                 6.1522

                     91                     92                     93
                      A                      A                      A
 Frequencies --   1515.6718              1518.3874              1523.2078
 Red. masses --      1.1005                 1.0986                 1.0919
 Frc consts  --      1.4896                 1.4923                 1.4927
 IR Inten    --      3.1534                10.1614                 6.6296

                     94                     95                     96
                      A                      A                      A
 Frequencies --   1534.2305              1536.3312              1544.3155
 Red. masses --      1.1042                 1.0961                 1.2624
 Frc consts  --      1.5313                 1.5243                 1.7739
 IR Inten    --     21.2013                 1.5362                21.9603

                     97                     98                     99
                      A                      A                      A
 Frequencies --   1546.0769              1552.3314              1645.5345
 Red. masses --      1.6938                 1.0946                 5.4314
 Frc consts  --      2.3855                 1.5541                 8.6651
 IR Inten    --      9.6522                 9.6268                 0.4044

                    100                    101                    102
                      A                      A                      A
 Frequencies --   1664.2085              2940.6725              2949.7520
 Red. masses --      5.5303                 1.0628                 1.0707
 Frc consts  --      9.0244                 5.4151                 5.4889
 IR Inten    --      0.4486                79.0757                66.3683

                    103                    104                    105
                      A                      A                      A
 Frequencies --   2981.3156              3010.6675              3012.1246
 Red. masses --      1.0729                 1.0818                 1.0686
 Frc consts  --      5.6188                 5.7775                 5.7125
 IR Inten    --     92.1314                28.3616                56.9628

                    106                    107                    108
                      A                      A                      A
 Frequencies --   3018.7853              3024.8052              3031.3118
 Red. masses --      1.0682                 1.0659                 1.0654
 Frc consts  --      5.7352                 5.7459                 5.7677
 IR Inten    --     18.8744                24.4600                17.5992

                    109                    110                    111
                      A                      A                      A
 Frequencies --   3041.8620              3044.3887              3049.9128
 Red. masses --      1.0704                 1.0855                 1.0696
 Frc consts  --      5.8353                 5.9274                 5.8620
 IR Inten    --     52.4224                80.6133                64.7071

                    112                    113                    114
                      A                      A                      A
 Frequencies --   3050.5390              3068.9497              3073.1203
 Red. masses --      1.0663                 1.0941                 1.0989
 Frc consts  --      5.8461                 6.0715                 6.1146
 IR Inten    --     18.1531                51.6756                71.6925

                    115                    116                    117
                      A                      A                      A
 Frequencies --   3082.9094              3085.5864              3089.7907
 Red. masses --      1.0951                 1.0958                 1.0968
 Frc consts  --      6.1326                 6.1467                 6.1693
 IR Inten    --     34.6933                 9.7496                28.7179

                    118                    119                    120
                      A                      A                      A
 Frequencies --   3098.1715              3098.7706              3104.3884
 Red. masses --      1.1025                 1.1000                 1.0910
 Frc consts  --      6.2351                 6.2233                 6.1950
 IR Inten    --     31.5692                69.2456                39.5630

                    121                    122                    123
                      A                      A                      A
 Frequencies --   3174.8791              3183.5910              3193.1209
 Red. masses --      1.0860                 1.0865                 1.0908
 Frc consts  --      6.4495                 6.4878                 6.5528
 IR Inten    --      6.7323                 0.4294                17.8703

                    124                    125                    126
                      A                      A                      A
 Frequencies --   3202.0898              3210.7285              3536.0668
 Red. masses --      1.0935                 1.0977                 1.0733
 Frc consts  --      6.6057                 6.6674                 7.9070
 IR Inten    --     33.3397                13.6778                 2.8202

 - Thermochemistry -
 -------------------
 Temperature   298.150 Kelvin.  Pressure   1.00000 Atm.
 Atom     1 has atomic number  6 and mass  12.00000

 Molecular mass:   246.20960 amu.
 Principal axes and moments of inertia in atomic units:
                           1         2         3
     Eigenvalues --  3681.834974587.675126410.05405
           X            0.99909  -0.04274  -0.00006
           Y            0.04274   0.99908  -0.00304
           Z            0.00019   0.00303   1.00000
 This molecule is an asymmetric top.
 Rotational symmetry number  1.
 Warning -- assumption of classical behavior for rotation
           may cause significant error
 Rotational temperatures (Kelvin)      0.02352     0.01888     0.01351
 Rotational constants (GHZ):           0.49017     0.39339     0.28155
 Zero-point vibrational energy    1055464.9 (Joules/Mol)
                                  252.26217 (Kcal/Mol)
 Warning -- explicit consideration of  26 degrees of freedom as
           vibrations may cause significant error
 Vibrational temperatures:     46.05    61.79    68.21    93.64   130.10
          (Kelvin)            145.54   167.23   215.89   271.62   296.67
                              347.91   365.58   386.96   421.09   434.10
                              480.32   556.51   580.52   599.12   613.72
                              631.18   693.28   707.01   722.22   797.84
                              878.02   917.94   939.44  1023.32  1033.39
                             1076.21  1140.71  1146.55  1187.55  1195.89
                             1219.55  1233.89  1257.58  1267.00  1276.58
                             1333.37  1365.11  1368.29  1388.27  1414.00
                             1426.38  1471.07  1473.13  1500.68  1512.11
                             1520.43  1525.98  1565.15  1578.30  1581.89
                             1605.96  1643.34  1662.26  1668.47  1704.89
                             1714.56  1716.83  1741.47  1749.44  1759.85
                             1772.71  1825.53  1874.57  1879.31  1894.14
                             1944.56  1949.21  1961.04  1968.29  1970.27
                             1988.60  2011.90  2015.99  2019.21  2027.20
                             2028.20  2035.24  2046.85  2068.63  2132.36
                             2146.66  2162.02  2166.04  2167.69  2177.14
                             2180.71  2184.62  2191.56  2207.42  2210.44
                             2221.93  2224.46  2233.46  2367.56  2394.42
                             4230.97  4244.04  4289.45  4331.68  4333.78
                             4343.36  4352.02  4361.38  4376.56  4380.20
                             4388.14  4389.05  4415.53  4421.53  4435.62
                             4439.47  4445.52  4457.58  4458.44  4466.52
                             4567.94  4580.48  4594.19  4607.09  4619.52
                             5087.61

 Zero-point correction=                           0.402005 (Hartree/Particle)
 Thermal correction to Energy=                    0.419474
 Thermal correction to Enthalpy=                  0.420418
 Thermal correction to Gibbs Free Energy=         0.356265
 Sum of electronic and zero-point Energies=           -734.535040
 Sum of electronic and thermal Energies=              -734.517571
 Sum of electronic and thermal Enthalpies=            -734.516627
 Sum of electronic and thermal Free Energies=         -734.580780

                     E (Thermal)             CV                S
                      KCal/Mol        Cal/Mol-Kelvin    Cal/Mol-Kelvin
 Total                  263.224             69.100            135.021
 Electronic               0.000              0.000              0.000
 Translational            0.889              2.981             42.404
 Rotational               0.889              2.981             33.048
 Vibrational            261.447             63.138             59.569
 Vibration     1          0.594              1.983              5.701
 Vibration     2          0.595              1.980              5.118
 Vibration     3          0.595              1.979              4.923
 Vibration     4          0.597              1.971              4.297
 Vibration     5          0.602              1.956              3.651
 Vibration     6          0.604              1.948              3.432
 Vibration     7          0.608              1.936              3.162
 Vibration     8          0.618              1.903              2.672
 Vibration     9          0.633              1.855              2.240
 Vibration    10          0.641              1.831              2.077
 Vibration    11          0.658              1.776              1.790
 Vibration    12          0.665              1.756              1.702
 Vibration    13          0.673              1.730              1.603
 Vibration    14          0.688              1.687              1.458
 Vibration    15          0.694              1.670              1.407
 Vibration    16          0.715              1.608              1.241
 Vibration    17          0.755              1.498              1.012
 Vibration    18          0.769              1.463              0.950
 Vibration    19          0.780              1.435              0.904
 Vibration    20          0.788              1.412              0.870
 Vibration    21          0.799              1.386              0.831
 Vibration    22          0.838              1.290              0.705
 Vibration    23          0.847              1.269              0.680
 Vibration    24          0.857              1.246              0.653
 Vibration    25          0.910              1.130              0.535
 Vibration    26          0.969              1.010              0.432

 Optimization completed.
    -- Stationary point found.
 Normal termination of Gaussian 16 at Fri Dec 11 22:54:54 2020.

 ----------------------------------------------------------------------
 # B3LYP/6-311++G(d,p) empiricaldispersion=gd3bj scf=xqc pop=npa geom=c
 heck
 ----------------------------------------------------------------------

 --------------------------------------
 CID_54806331_JID_8882_Energie_neutraal
 --------------------------------------
 Structure from the checkpoint file:  "JID_8882.chk"
 Charge =  0 Multiplicity = 1

 SCF Done:  E(RB3LYP) =  -735.133551600     A.U. after   14 cycles
 Normal termination of Gaussian 16 at Fri Dec 11 23:06:50 2020.

 ----------------------------------------------------------------------
 # B3LYP/6-311++G(d,p) empiricaldispersion=gd3bj scf=xqc pop=npa geom=c
 heck
 ----------------------------------------------------------------------

 ------------------------------------
 CID_54806331_JID_8882_Energie_kation
 ------------------------------------
 Structure from the checkpoint file:  "JID_8882.chk"
 Charge =  1 Multiplicity = 2

 SCF Done:  E(UB3LYP) =  -734.869712273     A.U. after   21 cycles
 Normal termination of Gaussian 16 at Fri Dec 11 23:32:03 2020.
 Gaussian 16:  ES64L-G16RevA.03 25-Dec-2016

 ----------------------------------------------------------------------
 # B3LYP/6-311++G(d,p) empiricaldispersion=gd3bj scf=xqc pop=npa geom=c
 heck
 ----------------------------------------------------------------------

 -----------------------------------
 CID_54806331_JID_8882_Energie_anion
 -----------------------------------
 Structure from the checkpoint file:  "JID_8882.chk"
 Charge = -1 Multiplicity = 2

                         Standard orientation:
 ---------------------------------------------------------------------
 Center     Atomic      Atomic             Coordinates (Angstroms)
 Number     Number       Type             X           Y           Z
 ---------------------------------------------------------------------
      1          6           0        1.390000   -2.091741    1.657234
      2          7           0        1.870195   -2.104048    0.296660
      3          6           0        1.000240   -2.710859   -0.702326
      4          6           0       -0.488145   -2.340268   -0.662491
      5          7           0       -0.716197   -0.929559   -0.916212
      6          6           0       -2.118965   -0.527070   -1.074377
      7          6           0       -3.082503   -1.005041    0.037610
      8          6           0       -2.796307   -0.323737    1.380781
      9          6           0       -2.882191    1.202384    1.245546
     10          6           0       -1.938751    1.711404    0.148272
     11          6           0       -2.189749    1.004768   -1.193517
     12          6           0        2.767160   -1.024015   -0.084903
     13          6           0        2.232639    0.403329   -0.091206
     14          6           0        2.189570    1.153737    1.090991
     15          6           0        1.740392    2.475250    1.087135
     16          6           0        1.335056    3.069892   -0.108492
     17          6           0        1.367000    2.331144   -1.292602
     18          6           0        1.807043    1.008187   -1.280076
     19          1           0        0.965193   -3.071411    1.906688
     20          1           0        0.617507   -1.329069    1.872193
     21          1           0        2.228986   -1.905852    2.339777
     22          1           0        1.400625   -2.462541   -1.690070
     23          1           0        1.055184   -3.807081   -0.591762
     24          1           0       -0.995249   -2.915876   -1.449536
     25          1           0       -0.913831   -2.695711    0.293768
     26          1           0       -0.263646   -0.373706   -0.196393
     27          1           0       -2.457719   -0.968580   -2.023063
     28          1           0       -4.109047   -0.766180   -0.275375
     29          1           0       -3.038876   -2.095310    0.140029
     30          1           0       -1.789727   -0.601950    1.726240
     31          1           0       -3.496311   -0.682754    2.145259
     32          1           0       -2.648040    1.686972    2.201843
     33          1           0       -3.917071    1.480060    0.995939
     34          1           0       -0.900885    1.556990    0.465317
     35          1           0       -2.049320    2.795371    0.019844
     36          1           0       -1.461581    1.339206   -1.940521
     37          1           0       -3.188279    1.278831   -1.560328
     38          1           0        3.623519   -1.057809    0.604953
     39          1           0        3.155909   -1.259380   -1.081566
     40          1           0        2.533960    0.704403    2.019581
     41          1           0        1.718031    3.042659    2.013567
     42          1           0        0.992101    4.100624   -0.116922
     43          1           0        1.049435    2.786025   -2.226797
     44          1           0        1.816219    0.433143   -2.201272
 ---------------------------------------------------------------------

 SCF Done:  E(UB3LYP) =  -735.119925061     A.U. after   33 cycles
 SCF Done:  E(UB3LYP) =  -735.119925061     a.u. after    1 cycles

 The electronic state is 2-A.
 Alpha  occ. eigenvalues --  -14.20833 -14.19223 -10.10727 -10.09926 -10.09623
 Alpha  occ. eigenvalues --  -10.09332 -10.09181 -10.08539 -10.08223 -10.08201
 Alpha  occ. eigenvalues --  -10.08151 -10.08127 -10.08065 -10.06505 -10.06391
 Alpha  occ. eigenvalues --  -10.06322 -10.06255 -10.06093  -0.83392  -0.80582
 Alpha  occ. eigenvalues --   -0.76465  -0.71992  -0.67771  -0.65488  -0.65153
 Alpha  occ. eigenvalues --   -0.64164  -0.61776  -0.60791  -0.55342  -0.51483
 Alpha  occ. eigenvalues --   -0.51177  -0.50793  -0.50007  -0.47276  -0.44680
 Alpha  occ. eigenvalues --   -0.42279  -0.40272  -0.39213  -0.38718  -0.37325
 Alpha  occ. eigenvalues --   -0.36687  -0.36074  -0.35530  -0.34435  -0.33827
 Alpha  occ. eigenvalues --   -0.33198  -0.32939  -0.30805  -0.29942  -0.29920
 Alpha  occ. eigenvalues --   -0.28691  -0.28544  -0.28087  -0.27700  -0.26874
 Alpha  occ. eigenvalues --   -0.26717  -0.26209  -0.25698  -0.25219  -0.24762
 Alpha  occ. eigenvalues --   -0.24192  -0.22117  -0.20652  -0.20203  -0.16463
 Alpha  occ. eigenvalues --   -0.15971  -0.12462  -0.10868   0.04108
 Alpha virt. eigenvalues --    0.06190   0.06245   0.06636   0.07314   0.07677
 Alpha virt. eigenvalues --    0.08063   0.08183   0.08377   0.08531   0.09140
 Alpha virt. eigenvalues --    0.10210   0.10446   0.10666   0.10924   0.11211

  Beta  occ. eigenvalues --  -14.20831 -14.19220 -10.10717 -10.09913 -10.09618
  Beta  occ. eigenvalues --  -10.09302 -10.09168 -10.08536 -10.08212 -10.08190
  Beta  occ. eigenvalues --  -10.08139 -10.08115 -10.08056 -10.06491 -10.06378
  Beta  occ. eigenvalues --  -10.06311 -10.06247 -10.06084  -0.83380  -0.80571
  Beta  occ. eigenvalues --   -0.76444  -0.71970  -0.67747  -0.65463  -0.65128
  Beta  occ. eigenvalues --   -0.64140  -0.61744  -0.60759  -0.55308  -0.51451
  Beta  occ. eigenvalues --   -0.51143  -0.50764  -0.49977  -0.47236  -0.44648
  Beta  occ. eigenvalues --   -0.42234  -0.40243  -0.39193  -0.38690  -0.37290
  Beta  occ. eigenvalues --   -0.36662  -0.36048  -0.35502  -0.34414  -0.33806
  Beta  occ. eigenvalues --   -0.33173  -0.32910  -0.30772  -0.29918  -0.29892
  Beta  occ. eigenvalues --   -0.28668  -0.28519  -0.28063  -0.27681  -0.26854
  Beta  occ. eigenvalues --   -0.26690  -0.26187  -0.25674  -0.25194  -0.24738
  Beta  occ. eigenvalues --   -0.24169  -0.22095  -0.20628  -0.20179  -0.16447
  Beta  occ. eigenvalues --   -0.15949  -0.12449  -0.10840
  Beta virt. eigenvalues --    0.05990   0.06701   0.06931   0.07179   0.07450
  Beta virt. eigenvalues --    0.07759   0.08488   0.08656   0.08797   0.08807
  Beta virt. eigenvalues --    0.09382   0.10601   0.10782   0.10909   0.11172

 Mulliken charges and spin densities:
               1          2
     1  C    0.238207  -0.612001
     2  N    0.035214   0.134648
     3  C   -0.006724  -0.526095
     4  C   -0.224834  -0.049821
     5  N    0.074920  -0.003219
     6  C   -0.179654   0.263339
     7  C   -0.001106  -0.458929
     8  C    0.004091  -0.116432
     9  C    0.190492  -0.887625
    10  C   -0.589085   0.713518
    11  C   -0.108831  -0.478393
    12  C    1.435303  -2.572231
    13  C   -0.844726   1.337122
    14  C   -0.196858   0.250806
    15  C    0.005804  -0.187784
    16  C    1.113087  -1.542245
    17  C    0.162244  -0.327394
    18  C   -1.130571   1.061723
    19  H   -0.346908   0.474063
    20  H    0.089216   0.054979
    21  H   -0.137814   0.300078
    22  H    0.099293   0.059246
    23  H   -0.138416   0.316898
    24  H   -0.227923   0.372575
    25  H    0.422808  -0.308195
    26  H    0.393982  -0.409144
    27  H    0.065026   0.133063
    28  H   -0.013199   0.160750
    29  H   -0.182811   0.339038
    30  H   -0.080591   0.226917
    31  H   -0.202650   0.386568
    32  H   -0.158596   0.320550
    33  H   -0.020815   0.143878
    34  H    0.998606  -0.795576
    35  H   -0.134667   0.311248
    36  H    0.170014   0.015287
    37  H   -0.157589   0.311856
    38  H   -0.036979   0.207681
    39  H    0.012919   0.132295
    40  H   -0.232059   0.403392
    41  H   -0.599966   0.786148
    42  H   -0.213620   0.375311
    43  H   -0.231470   0.412816
    44  H   -0.112764   0.269291
 Sum of Mulliken charges =  -1.00000   1.00000

 Dipole moment (field-independent basis, Debye):
    X=              0.5995    Y=             -1.3818    Z=             -2.6707  Tot=              3.0662
 Quadrupole moment (field-independent basis, Debye-Ang):
   XX=           -172.5030   YY=           -177.5496   ZZ=           -160.7226
   XY=              0.3073   XZ=             -2.2327   YZ=             -1.0315

 Summary of Natural Population Analysis:

                                       Natural Population
                Natural  -----------------------------------------------
    Atom  No    Charge         Core      Valence    Rydberg      Total
 -----------------------------------------------------------------------
      C    1   -0.17700      0.99964     2.16869    0.00868     3.17700
      N    2   -0.28278      0.99972     2.76907    0.01399     3.78278
      C    3   -0.07704      0.99960     2.06597    0.01147     3.07704
      C    4   -0.09463      0.99962     2.08455    0.01046     3.09463
      N    5   -0.35913      0.99973     2.84751    0.01189     3.85913
      C    6   -0.00302      0.99959     1.99107    0.01235     3.00302
      C    7   -0.19862      0.99961     2.19087    0.00813     3.19862
      C    8   -0.19418      0.99962     2.18595    0.00860     3.19418
      C    9   -0.18726      0.99963     2.17979    0.00784     3.18726
      C   10   -0.19544      0.99962     2.18692    0.00890     3.19544
      C   11   -0.19101      0.99961     2.18258    0.00883     3.19101
      C   12   -0.08315      0.99957     2.07117    0.01241     3.08315
      C   13   -0.03320      0.99949     2.02361    0.01011     3.03320
      C   14   -0.10142      0.99951     2.09159    0.01032     3.10142
      C   15   -0.10138      0.99956     2.09118    0.01065     3.10138
      C   16   -0.10163      0.99956     2.09186    0.01021     3.10163
      C   17   -0.10292      0.99956     2.09298    0.01039     3.10292
      C   18   -0.09273      0.99951     2.08338    0.00985     3.09273
      H   19    0.09589      0.00000     0.40308    0.00103     0.40411
      H   20    0.08146      0.00000     0.41609    0.00245     0.41854
      H   21    0.09512      0.00000     0.40371    0.00117     0.40488
      H   22    0.09602      0.00000     0.40271    0.00127     0.40398
      H   23    0.08824      0.00000     0.41071    0.00106     0.41176
      H   24    0.09363      0.00000     0.40507    0.00130     0.40637
      H   25    0.07954      0.00000     0.41863    0.00183     0.42046
      H   26    0.18154      0.00000     0.31209    0.00637     0.31846
      H   27    0.09067      0.00000     0.40787    0.00147     0.40933
      H   28    0.09549      0.00000     0.40336    0.00115     0.40451
      H   29    0.09934      0.00000     0.39960    0.00106     0.40066
      H   30    0.09322      0.00000     0.40427    0.00251     0.40678
      H   31    0.09795      0.00000     0.40106    0.00100     0.40205
      H   32    0.09896      0.00000     0.40005    0.00099     0.40104
      H   33    0.09009      0.00000     0.40870    0.00121     0.40991
      H   34    0.09710      0.00000     0.39945    0.00345     0.40290
      H   35    0.09919      0.00000     0.39966    0.00115     0.40081
      H   36    0.10422      0.00000     0.39449    0.00130     0.39578
      H   37    0.09478      0.00000     0.40418    0.00104     0.40522
      H   38    0.09458      0.00000     0.40425    0.00117     0.40542
      H   39    0.09736      0.00000     0.40150    0.00114     0.40264
      H   40    0.10187      0.00000     0.39644    0.00169     0.39813
      H   41    0.10320      0.00000     0.39551    0.00129     0.39680
      H   42    0.10288      0.00000     0.39590    0.00122     0.39712
      H   43    0.10125      0.00000     0.39769    0.00106     0.39875
      H   44    0.10295      0.00000     0.39545    0.00159     0.39705
 =======================================================================
   * Total *    0.00000     17.99272    49.78024    0.22704    68.00000

 Normal termination of Gaussian 16 at Sat Dec 12 00:09:33 2020.
