 Gaussian 16, Revision A.03,

 -----------------------------------------------------------
 # opt freq B3LYP/6-31G(d) empiricaldispersion=gd3bj scf=xqc
 -----------------------------------------------------------

 -------------------------------
 CID_130924766_JID_4838_neutraal
 -------------------------------
 Symbolic Z-matrix:
 Charge =  0 Multiplicity = 1

 SCF Done:  E(RB3LYP) =  -601.120363403     A.U. after   13 cycles
 SCF Done:  E(RB3LYP) =  -601.127052811     A.U. after   11 cycles
 SCF Done:  E(RB3LYP) =  -601.128488915     A.U. after   10 cycles
 SCF Done:  E(RB3LYP) =  -601.128901731     A.U. after   10 cycles
 SCF Done:  E(RB3LYP) =  -601.129078760     A.U. after   10 cycles
 SCF Done:  E(RB3LYP) =  -601.129267283     A.U. after    9 cycles
 SCF Done:  E(RB3LYP) =  -601.129320340     A.U. after    9 cycles
 SCF Done:  E(RB3LYP) =  -601.129328480     A.U. after    8 cycles
 SCF Done:  E(RB3LYP) =  -601.129330858     A.U. after    7 cycles
 SCF Done:  E(RB3LYP) =  -601.129331504     A.U. after    7 cycles
 SCF Done:  E(RB3LYP) =  -601.129331683     A.U. after    7 cycles
 SCF Done:  E(RB3LYP) =  -601.129331772     A.U. after    6 cycles
 Optimization completed.
    -- Stationary point found.
 Normal termination of Gaussian 16 at Thu Dec 10 10:43:13 2020.

 --------------------------------------------------------------------
 #N Geom=AllCheck Guess=TCheck SCRF=Check GenChk RB3LYP/6-31G(d) Freq
 --------------------------------------------------------------------

 Structure from the checkpoint file:  "JID_4838.chk"
 -------------------------------
 CID_130924766_JID_4838_neutraal
 -------------------------------
 Charge =  0 Multiplicity = 1

 SCF Done:  E(RB3LYP) =  -601.129331772     A.U. after    1 cycles

  Exact polarizability: 146.367   1.556 127.533   4.069  -1.195 118.335
 Approx polarizability: 188.464   2.685 179.663   1.937  -1.798 178.798

                      1                      2                      3
                      A                      A                      A
 Frequencies --     43.8893                66.4556                87.4661
 Red. masses --      3.6043                 4.1558                 3.5260
 Frc consts  --      0.0041                 0.0108                 0.0159
 IR Inten    --      0.5362                 2.4500                 4.0714

                      4                      5                      6
                      A                      A                      A
 Frequencies --    101.7321               124.2651               150.8381
 Red. masses --      2.6426                 2.7416                 3.7415
 Frc consts  --      0.0161                 0.0249                 0.0502
 IR Inten    --      1.3540                 1.8116                 0.7384

                      7                      8                      9
                      A                      A                      A
 Frequencies --    199.7736               215.8740               248.5143
 Red. masses --      2.5603                 2.4985                 2.6022
 Frc consts  --      0.0602                 0.0686                 0.0947
 IR Inten    --      0.4376                 2.1209                11.7722

                     10                     11                     12
                      A                      A                      A
 Frequencies --    252.1271               271.5007               282.9227
 Red. masses --      1.2881                 1.0703                 2.9485
 Frc consts  --      0.0482                 0.0465                 0.1391
 IR Inten    --     40.7777                 0.5048                19.1761

                     13                     14                     15
                      A                      A                      A
 Frequencies --    306.0172               325.5030               342.1243
 Red. masses --      2.1334                 2.0325                 1.1294
 Frc consts  --      0.1177                 0.1269                 0.0779
 IR Inten    --      6.9526                 3.6625               122.9553

                     16                     17                     18
                      A                      A                      A
 Frequencies --    366.2264               384.9632               414.5552
 Red. masses --      1.7958                 2.2284                 3.1482
 Frc consts  --      0.1419                 0.1946                 0.3188
 IR Inten    --     37.5510                 6.9122                 0.2180

                     19                     20                     21
                      A                      A                      A
 Frequencies --    434.8214               466.3373               505.9228
 Red. masses --      2.6752                 3.7022                 2.2587
 Frc consts  --      0.2980                 0.4744                 0.3406
 IR Inten    --      3.7978                 3.4588                 0.7786

                     22                     23                     24
                      A                      A                      A
 Frequencies --    550.0459               585.4391               597.9430
 Red. masses --      2.5949                 3.0247                 2.4559
 Frc consts  --      0.4626                 0.6108                 0.5173
 IR Inten    --      4.0470                 3.7948                 2.9842

                     25                     26                     27
                      A                      A                      A
 Frequencies --    734.3927               779.1553               809.3393
 Red. masses --      3.0424                 2.5831                 1.7228
 Frc consts  --      0.9668                 0.9239                 0.6649
 IR Inten    --      6.1098                 3.1008                 1.5350

                     28                     29                     30
                      A                      A                      A
 Frequencies --    854.3216               859.7712               865.4164
 Red. masses --      2.0600                 1.8673                 1.6315
 Frc consts  --      0.8859                 0.8132                 0.7199
 IR Inten    --     19.2481                 2.5233                55.9983

                     31                     32                     33
                      A                      A                      A
 Frequencies --    883.7374               906.4277               909.5602
 Red. masses --      1.7614                 1.4548                 1.5969
 Frc consts  --      0.8105                 0.7042                 0.7784
 IR Inten    --     12.8598                 1.5067                14.3610

                     34                     35                     36
                      A                      A                      A
 Frequencies --    914.6058               971.5204               985.4852
 Red. masses --      1.7336                 1.9290                 1.7018
 Frc consts  --      0.8544                 1.0727                 0.9738
 IR Inten    --      0.5178                18.3830                 3.4642

                     37                     38                     39
                      A                      A                      A
 Frequencies --    990.4094              1005.1955              1027.0974
 Red. masses --      1.9735                 1.6049                 1.6183
 Frc consts  --      1.1405                 0.9554                 1.0058
 IR Inten    --      5.2049                 8.8993                 5.8981

                     40                     41                     42
                      A                      A                      A
 Frequencies --   1036.9316              1050.7924              1068.7272
 Red. masses --      1.5788                 1.6661                 1.7197
 Frc consts  --      1.0002                 1.0839                 1.1573
 IR Inten    --     22.5588                 2.0886                38.5157

                     43                     44                     45
                      A                      A                      A
 Frequencies --   1076.2162              1089.9192              1096.5799
 Red. masses --      1.8251                 3.2538                 2.3133
 Frc consts  --      1.2455                 2.2774                 1.6389
 IR Inten    --     24.8409                11.7098                10.2832

                     46                     47                     48
                      A                      A                      A
 Frequencies --   1107.7408              1121.9344              1128.0142
 Red. masses --      1.9222                 2.2663                 1.3857
 Frc consts  --      1.3897                 1.6807                 1.0388
 IR Inten    --      1.5183                 1.3952                 0.6826

                     49                     50                     51
                      A                      A                      A
 Frequencies --   1139.6577              1170.8472              1196.2668
 Red. masses --      1.4892                 1.5079                 1.2218
 Frc consts  --      1.1396                 1.2180                 1.0301
 IR Inten    --      5.0693                 0.9354                 8.9898

                     52                     53                     54
                      A                      A                      A
 Frequencies --   1211.0523              1244.9266              1258.1166
 Red. masses --      2.0734                 1.4320                 1.6772
 Frc consts  --      1.7917                 1.3076                 1.5641
 IR Inten    --      0.2900                 2.8251                 1.8690

                     55                     56                     57
                      A                      A                      A
 Frequencies --   1272.5328              1291.8859              1299.6637
 Red. masses --      1.5225                 1.4709                 1.2348
 Frc consts  --      1.4526                 1.4463                 1.2288
 IR Inten    --      8.1099                 3.5306                 1.8313

                     58                     59                     60
                      A                      A                      A
 Frequencies --   1312.9325              1329.3586              1345.7637
 Red. masses --      1.6566                 1.2975                 1.3929
 Frc consts  --      1.6824                 1.3510                 1.4863
 IR Inten    --      2.6666                 0.8173                 3.4103

                     61                     62                     63
                      A                      A                      A
 Frequencies --   1356.3491              1373.8803              1385.5086
 Red. masses --      1.2491                 1.3451                 1.3866
 Frc consts  --      1.3539                 1.4958                 1.5683
 IR Inten    --      0.2062                 0.2048                 1.7499

                     64                     65                     66
                      A                      A                      A
 Frequencies --   1392.5388              1403.0276              1404.9734
 Red. masses --      1.4626                 1.4522                 1.3917
 Frc consts  --      1.6711                 1.6842                 1.6186
 IR Inten    --      9.3639                 1.4138                10.2828

                     67                     68                     69
                      A                      A                      A
 Frequencies --   1409.0989              1420.3450              1432.3221
 Red. masses --      1.2982                 1.5524                 1.2944
 Frc consts  --      1.5188                 1.8452                 1.5646
 IR Inten    --     13.9503                 0.3659                18.7133

                     70                     71                     72
                      A                      A                      A
 Frequencies --   1439.3832              1442.6829              1463.5078
 Red. masses --      1.2465                 1.4783                 1.4577
 Frc consts  --      1.5216                 1.8128                 1.8395
 IR Inten    --      2.5081                19.1049                 6.6799

                     73                     74                     75
                      A                      A                      A
 Frequencies --   1511.9113              1518.0057              1519.7361
 Red. masses --      1.0976                 1.1930                 1.2134
 Frc consts  --      1.4782                 1.6197                 1.6511
 IR Inten    --      0.7077                 0.2984                 4.1482

                     76                     77                     78
                      A                      A                      A
 Frequencies --   1520.7715              1527.2907              1532.7469
 Red. masses --      1.1813                 1.0666                 1.0803
 Frc consts  --      1.6097                 1.4659                 1.4953
 IR Inten    --      4.1576                 8.9812                 2.8926

                     79                     80                     81
                      A                      A                      A
 Frequencies --   1533.7122              1536.9860              1538.1902
 Red. masses --      1.0764                 1.0827                 1.0995
 Frc consts  --      1.4918                 1.5070                 1.5327
 IR Inten    --      4.0664                 6.6545                 0.8032

                     82                     83                     84
                      A                      A                      A
 Frequencies --   1694.6394              2981.6222              2987.3239
 Red. masses --      1.0899                 1.0714                 1.0819
 Frc consts  --      1.8441                 5.6117                 5.6887
 IR Inten    --     28.5165                50.6209                21.3980

                     85                     86                     87
                      A                      A                      A
 Frequencies --   3020.8737              3021.9440              3030.2085
 Red. masses --      1.0736                 1.0683                 1.0608
 Frc consts  --      5.7725                 5.7480                 5.7391
 IR Inten    --     15.0637                20.9002                27.5644

                     88                     89                     90
                      A                      A                      A
 Frequencies --   3032.3126              3035.1094              3039.8094
 Red. masses --      1.0681                 1.0692                 1.0586
 Frc consts  --      5.7866                 5.8029                 5.7635
 IR Inten    --     13.4174                62.9619                37.6851

                     91                     92                     93
                      A                      A                      A
 Frequencies --   3045.3725              3050.3692              3067.1801
 Red. masses --      1.0391                 1.0902                 1.0982
 Frc consts  --      5.6781                 5.9766                 6.0869
 IR Inten    --     39.7660                69.6344                54.9987

                     94                     95                     96
                      A                      A                      A
 Frequencies --   3071.8004              3077.2281              3084.2432
 Red. masses --      1.0952                 1.1016                 1.1078
 Frc consts  --      6.0887                 6.1462                 6.2090
 IR Inten    --     55.8380                70.1351                48.1115

                     97                     98                     99
                      A                      A                      A
 Frequencies --   3086.3062              3103.3025              3128.5875
 Red. masses --      1.0988                 1.1020                 1.1000
 Frc consts  --      6.1665                 6.2528                 6.3437
 IR Inten    --     46.3026                47.1559                33.2647

                    100                    101                    102
                      A                      A                      A
 Frequencies --   3142.5759              3161.0155              3225.4788
 Red. masses --      1.0541                 1.0845                 1.1169
 Frc consts  --      6.1337                 6.3849                 6.8464
 IR Inten    --     14.0320                18.8885                 8.5278

                    103                    104                    105
                      A                      A                      A
 Frequencies --   3480.3120              3566.7937              3759.0606
 Red. masses --      1.0503                 1.0916                 1.0664
 Frc consts  --      7.4958                 8.1823                 8.8780
 IR Inten    --      4.1653                 0.0379                 9.3651

 - Thermochemistry -
 -------------------
 Temperature   298.150 Kelvin.  Pressure   1.00000 Atm.
 Atom     1 has atomic number  6 and mass  12.00000

 Molecular mass:   197.17796 amu.
 Principal axes and moments of inertia in atomic units:
                           1         2         3
     Eigenvalues --  1961.804574011.687484113.93131
           X            0.99986  -0.00166   0.01656
           Y            0.00104   0.99930   0.03730
           Z           -0.01661  -0.03728   0.99917
 This molecule is an asymmetric top.
 Rotational symmetry number  1.
 Warning -- assumption of classical behavior for rotation
           may cause significant error
 Rotational temperatures (Kelvin)      0.04415     0.02159     0.02105
 Rotational constants (GHZ):           0.91994     0.44987     0.43869
 Zero-point vibrational energy     898562.9 (Joules/Mol)
                                  214.76170 (Kcal/Mol)
 Warning -- explicit consideration of  24 degrees of freedom as
           vibrations may cause significant error
 Vibrational temperatures:     63.15    95.61   125.84   146.37   178.79
          (Kelvin)            217.02   287.43   310.59   357.56   362.75
                              390.63   407.06   440.29   468.33   492.24
                              526.92   553.88   596.45   625.61   670.96
                              727.91   791.39   842.32   860.31  1056.63
                             1121.03  1164.46  1229.18  1237.02  1245.14
                             1271.50  1304.15  1308.65  1315.91  1397.80
                             1417.89  1424.98  1446.25  1477.76  1491.91
                             1511.86  1537.66  1548.44  1568.15  1577.73
                             1593.79  1614.21  1622.96  1639.71  1684.59
                             1721.16  1742.43  1791.17  1810.15  1830.89
                             1858.74  1869.93  1889.02  1912.65  1936.25
                             1951.48  1976.71  1993.44  2003.55  2018.64
                             2021.44  2027.38  2043.56  2060.79  2070.95
                             2075.70  2105.66  2175.30  2184.07  2186.56
                             2188.05  2197.43  2205.28  2206.67  2211.38
                             2213.11  2438.21  4289.89  4298.09  4346.36
                             4347.90  4359.79  4362.82  4366.85  4373.61
                             4381.61  4388.80  4412.99  4419.64  4427.44
                             4437.54  4440.51  4464.96  4501.34  4521.47
                             4548.00  4640.74  5007.39  5131.82  5408.45

 Zero-point correction=                           0.342245 (Hartree/Particle)
 Thermal correction to Energy=                    0.357298
 Thermal correction to Enthalpy=                  0.358242
 Thermal correction to Gibbs Free Energy=         0.300957
 Sum of electronic and zero-point Energies=           -600.787087
 Sum of electronic and thermal Energies=              -600.772034
 Sum of electronic and thermal Enthalpies=            -600.771090
 Sum of electronic and thermal Free Energies=         -600.828375

                     E (Thermal)             CV                S
                      KCal/Mol        Cal/Mol-Kelvin    Cal/Mol-Kelvin
 Total                  224.208             59.078            120.566
 Electronic               0.000              0.000              0.000
 Translational            0.889              2.981             41.742
 Rotational               0.889              2.981             31.849
 Vibrational            222.430             53.117             46.976
 Vibration     1          0.595              1.980              5.075
 Vibration     2          0.598              1.970              4.256
 Vibration     3          0.601              1.958              3.716
 Vibration     4          0.604              1.948              3.421
 Vibration     5          0.610              1.929              3.033
 Vibration     6          0.618              1.902              2.662
 Vibration     7          0.638              1.840              2.135
 Vibration     8          0.645              1.817              1.993
 Vibration     9          0.662              1.765              1.741
 Vibration    10          0.664              1.759              1.716
 Vibration    11          0.675              1.726              1.587
 Vibration    12          0.682              1.705              1.516
 Vibration    13          0.696              1.662              1.384
 Vibration    14          0.710              1.624              1.282
 Vibration    15          0.721              1.591              1.202
 Vibration    16          0.739              1.542              1.096
 Vibration    17          0.754              1.502              1.020
 Vibration    18          0.778              1.439              0.911
 Vibration    19          0.795              1.394              0.843
 Vibration    20          0.824              1.325              0.748
 Vibration    21          0.861              1.237              0.643
 Vibration    22          0.905              1.140              0.544
 Vibration    23          0.942              1.063              0.475
 Vibration    24          0.956              1.036              0.453

 Optimization completed.
    -- Stationary point found.
 Normal termination of Gaussian 16 at Thu Dec 10 10:55:46 2020.

 ----------------------------------------------------------------------
 # B3LYP/6-311++G(d,p) empiricaldispersion=gd3bj scf=xqc pop=npa geom=c
 heck
 ----------------------------------------------------------------------

 ---------------------------------------
 CID_130924766_JID_4838_Energie_neutraal
 ---------------------------------------
 Structure from the checkpoint file:  "JID_4838.chk"
 Charge =  0 Multiplicity = 1

 SCF Done:  E(RB3LYP) =  -601.311456270     A.U. after   14 cycles
 Normal termination of Gaussian 16 at Thu Dec 10 11:01:38 2020.

 ----------------------------------------------------------------------
 # B3LYP/6-311++G(d,p) empiricaldispersion=gd3bj scf=xqc pop=npa geom=c
 heck
 ----------------------------------------------------------------------

 -------------------------------------
 CID_130924766_JID_4838_Energie_kation
 -------------------------------------
 Structure from the checkpoint file:  "JID_4838.chk"
 Charge =  1 Multiplicity = 2

 SCF Done:  E(UB3LYP) =  -600.991640772     A.U. after   26 cycles
 Normal termination of Gaussian 16 at Thu Dec 10 11:16:01 2020.
 Gaussian 16:  ES64L-G16RevA.03 25-Dec-2016

 ----------------------------------------------------------------------
 # B3LYP/6-311++G(d,p) empiricaldispersion=gd3bj scf=xqc pop=npa geom=c
 heck
 ----------------------------------------------------------------------

 ------------------------------------
 CID_130924766_JID_4838_Energie_anion
 ------------------------------------
 Structure from the checkpoint file:  "JID_4838.chk"
 Charge = -1 Multiplicity = 2

                         Standard orientation:
 ---------------------------------------------------------------------
 Center     Atomic      Atomic             Coordinates (Angstroms)
 Number     Number       Type             X           Y           Z
 ---------------------------------------------------------------------
      1          6           0       -1.936837    2.381907    0.367681
      2          6           0       -2.061954    0.862650    0.505620
      3          6           0       -2.808725    0.251469   -0.691759
      4          6           0       -3.042742   -1.252953   -0.508829
      5          6           0       -1.727665   -1.992628   -0.237883
      6          6           0       -0.963246   -1.368768    0.939180
      7          6           0       -0.707376    0.146380    0.755105
      8          6           0        0.328606    0.381910   -0.333002
      9          6           0        1.126179    1.656101   -0.497133
     10          6           0        1.827676    0.390522   -0.082444
     11          6           0        2.390002    0.351824    1.329108
     12          7           0        2.480554   -1.018087    1.854792
     13          6           0        2.739715   -0.303975   -1.089654
     14          8           0        2.220713   -0.352583   -2.416252
     15          1           0       -1.411925    2.657399   -0.551980
     16          1           0       -2.929415    2.846874    0.340568
     17          1           0       -1.385857    2.816951    1.210213
     18          1           0       -2.674971    0.661582    1.399210
     19          1           0       -3.767540    0.768725   -0.826186
     20          1           0       -2.232116    0.429665   -1.610511
     21          1           0       -3.543134   -1.673695   -1.389906
     22          1           0       -3.722595   -1.407511    0.341863
     23          1           0       -1.102963   -1.964866   -1.141357
     24          1           0       -1.920630   -3.052862   -0.032945
     25          1           0       -0.012368   -1.897608    1.071003
     26          1           0       -1.547908   -1.520058    1.857840
     27          1           0       -0.309718    0.542063    1.699719
     28          1           0        0.060389   -0.058157   -1.290037
     29          1           0        1.281561    2.018347   -1.509417
     30          1           0        1.015791    2.434382    0.253601
     31          1           0        3.411137    0.755360    1.293699
     32          1           0        1.815076    1.036811    1.973404
     33          1           0        3.076244   -1.030370    2.680635
     34          1           0        1.560635   -1.322336    2.164588
     35          1           0        3.679709    0.256616   -1.163397
     36          1           0        2.980164   -1.308111   -0.717702
     37          1           0        1.569066   -1.068556   -2.442372
 ---------------------------------------------------------------------

 SCF Done:  E(UB3LYP) =  -601.298093178     A.U. after   30 cycles

 The electronic state is 2-A.
 Alpha  occ. eigenvalues --  -19.03413 -14.19005 -10.11757 -10.09518 -10.08210
 Alpha  occ. eigenvalues --  -10.07521 -10.07198 -10.07009 -10.06779 -10.06349
 Alpha  occ. eigenvalues --  -10.06293 -10.06238 -10.06063 -10.05764  -0.93381
 Alpha  occ. eigenvalues --   -0.79213  -0.76022  -0.73081  -0.66454  -0.64735
 Alpha  occ. eigenvalues --   -0.61110  -0.58013  -0.56509  -0.52079  -0.49673
 Alpha  occ. eigenvalues --   -0.48553  -0.46362  -0.42497  -0.42236  -0.39141
 Alpha  occ. eigenvalues --   -0.38179  -0.36884  -0.35474  -0.35171  -0.34577
 Alpha  occ. eigenvalues --   -0.33702  -0.33384  -0.31864  -0.30413  -0.28680
 Alpha  occ. eigenvalues --   -0.28291  -0.27841  -0.27523  -0.26835  -0.25778
 Alpha  occ. eigenvalues --   -0.24675  -0.24461  -0.23416  -0.21401  -0.20816
 Alpha  occ. eigenvalues --   -0.19927  -0.19539  -0.17643  -0.16886  -0.14353
 Alpha  occ. eigenvalues --    0.04352
 Alpha virt. eigenvalues --    0.06186   0.06728   0.07340   0.08255   0.08697
 Alpha virt. eigenvalues --    0.08986   0.09585   0.09921   0.10845   0.11275
 Alpha virt. eigenvalues --    0.11339   0.12257   0.12487   0.12525   0.13301

  Beta  occ. eigenvalues --  -19.03406 -14.18961 -10.11749 -10.09494 -10.08211
  Beta  occ. eigenvalues --  -10.07513 -10.07189 -10.06999 -10.06775 -10.06334
  Beta  occ. eigenvalues --  -10.06275 -10.06226 -10.06043 -10.05748  -0.93367
  Beta  occ. eigenvalues --   -0.79169  -0.75980  -0.73053  -0.66422  -0.64703
  Beta  occ. eigenvalues --   -0.61076  -0.57977  -0.56440  -0.52038  -0.49638
  Beta  occ. eigenvalues --   -0.48504  -0.46328  -0.42459  -0.42212  -0.39111
  Beta  occ. eigenvalues --   -0.38131  -0.36838  -0.35448  -0.35128  -0.34514
  Beta  occ. eigenvalues --   -0.33666  -0.33357  -0.31845  -0.30387  -0.28650
  Beta  occ. eigenvalues --   -0.28267  -0.27810  -0.27495  -0.26799  -0.25753
  Beta  occ. eigenvalues --   -0.24656  -0.24435  -0.23382  -0.21369  -0.20788
  Beta  occ. eigenvalues --   -0.19901  -0.19516  -0.17629  -0.16869  -0.14308
  Beta virt. eigenvalues --    0.06443   0.07023   0.07400   0.07749   0.08761
  Beta virt. eigenvalues --    0.09196   0.09330   0.10038   0.10200   0.11173
  Beta virt. eigenvalues --    0.11520   0.11718   0.12441   0.12806   0.12889

 Mulliken charges and spin densities:
               1          2
     1  C    0.229437  -1.014366
     2  C   -0.347740   0.495679
     3  C   -0.486088   0.282881
     4  C    1.017832  -1.726084
     5  C   -0.319482   0.141693
     6  C    0.122857  -0.732826
     7  C   -0.011323   0.762413
     8  C   -0.867870  -0.095460
     9  C    0.178487  -1.078222
    10  C    0.705034   0.466594
    11  C    1.008514  -1.580319
    12  N   -0.481432   0.112270
    13  C   -0.358614  -0.080367
    14  O   -0.176683  -0.030786
    15  H    0.177871  -0.017874
    16  H   -0.135959   0.273761
    17  H   -0.144101   0.280243
    18  H   -0.379647   0.577968
    19  H   -0.158699   0.336267
    20  H   -0.050558   0.180799
    21  H   -0.357019   0.523838
    22  H    0.176367  -0.045936
    23  H    0.051301   0.057135
    24  H   -0.513966   0.703435
    25  H    0.164623  -0.072981
    26  H   -0.555158   0.734992
    27  H    0.241282  -0.011744
    28  H    0.384752  -0.275644
    29  H    0.080733   0.100920
    30  H    0.330145  -0.173757
    31  H   -0.131937   0.295374
    32  H   -0.514346   0.653403
    33  H   -0.211898   0.462140
    34  H   -0.016766   0.243902
    35  H    0.119008   0.044850
    36  H    0.123635   0.071700
    37  H    0.107409   0.134107
 Sum of Mulliken charges =  -1.00000   1.00000

 Dipole moment (field-independent basis, Debye):
    X=              1.1796    Y=              2.4567    Z=             -4.4962  Tot=              5.2576
 Quadrupole moment (field-independent basis, Debye-Ang):
   XX=           -158.0778   YY=           -130.9180   ZZ=           -142.1699
   XY=             -0.6161   XZ=             -5.4815   YZ=              1.8197

 Summary of Natural Population Analysis:

                                       Natural Population
                Natural  -----------------------------------------------
    Atom  No    Charge         Core      Valence    Rydberg      Total
 -----------------------------------------------------------------------
      C    1   -0.28264      0.99965     2.27656    0.00643     3.28264
      C    2   -0.10553      0.99958     2.09518    0.01077     3.10553
      C    3   -0.18853      0.99961     2.17977    0.00915     3.18853
      C    4   -0.18777      0.99962     2.18007    0.00807     3.18777
      C    5   -0.18779      0.99963     2.17976    0.00840     3.18779
      C    6   -0.18658      0.99961     2.17747    0.00950     3.18658
      C    7   -0.11339      0.99956     2.09998    0.01384     3.11339
      C    8   -0.11099      0.99952     2.09925    0.01222     3.11099
      C    9   -0.19411      0.99957     2.18656    0.00798     3.19411
      C   10   -0.05548      0.99952     2.04318    0.01279     3.05548
      C   11   -0.08644      0.99957     2.07398    0.01289     3.08644
      N   12   -0.42504      0.99976     2.91435    0.01093     3.92504
      C   13   -0.00292      0.99952     1.99223    0.01117     3.00292
      O   14   -0.37078      0.99990     3.36463    0.00626     4.37078
      H   15    0.09793      0.00000     0.40124    0.00083     0.40207
      H   16    0.09731      0.00000     0.40192    0.00077     0.40269
      H   17    0.09875      0.00000     0.40033    0.00092     0.40125
      H   18    0.09485      0.00000     0.40327    0.00188     0.40515
      H   19    0.09863      0.00000     0.40041    0.00096     0.40137
      H   20    0.09203      0.00000     0.40669    0.00128     0.40797
      H   21    0.09682      0.00000     0.40212    0.00106     0.40318
      H   22    0.09365      0.00000     0.40481    0.00154     0.40635
      H   23    0.08816      0.00000     0.41042    0.00142     0.41184
      H   24    0.10055      0.00000     0.39827    0.00118     0.39945
      H   25    0.09838      0.00000     0.39990    0.00171     0.40162
      H   26    0.09773      0.00000     0.40063    0.00164     0.40227
      H   27    0.10271      0.00000     0.39476    0.00253     0.39729
      H   28    0.10183      0.00000     0.39619    0.00197     0.39817
      H   29    0.10540      0.00000     0.39363    0.00098     0.39460
      H   30    0.10213      0.00000     0.39680    0.00106     0.39787
      H   31    0.09148      0.00000     0.40723    0.00128     0.40852
      H   32    0.08615      0.00000     0.41168    0.00216     0.41385
      H   33    0.17803      0.00000     0.31875    0.00323     0.32197
      H   34    0.17596      0.00000     0.32117    0.00287     0.32404
      H   35    0.08179      0.00000     0.41694    0.00127     0.41821
      H   36    0.09038      0.00000     0.40809    0.00154     0.40962
      H   37    0.22732      0.00000     0.26970    0.00298     0.27268
 =======================================================================
   * Total *   -0.00000     13.99462    40.82793    0.17745    55.00000

 Normal termination of Gaussian 16 at Thu Dec 10 11:32:51 2020.
