 Gaussian 16, Revision A.03,

 -----------------------------------------------------------
 # opt freq B3LYP/6-31G(d) empiricaldispersion=gd3bj scf=xqc
 -----------------------------------------------------------

 ------------------------------
 CID_87711848_JID_6961_neutraal
 ------------------------------
 Symbolic Z-matrix:
 Charge =  0 Multiplicity = 1

 SCF Done:  E(RB3LYP) =  -735.564626687     A.U. after   14 cycles
 SCF Done:  E(RB3LYP) =  -735.567578720     A.U. after   12 cycles
 SCF Done:  E(RB3LYP) =  -735.567545572     A.U. after   12 cycles
 SCF Done:  E(RB3LYP) =  -735.568321599     A.U. after   12 cycles
 SCF Done:  E(RB3LYP) =  -735.568436974     A.U. after   11 cycles
 SCF Done:  E(RB3LYP) =  -735.568632417     A.U. after   12 cycles
 SCF Done:  E(RB3LYP) =  -735.568666940     A.U. after   11 cycles
 SCF Done:  E(RB3LYP) =  -735.568667105     A.U. after   10 cycles
 SCF Done:  E(RB3LYP) =  -735.568675420     A.U. after    9 cycles
 SCF Done:  E(RB3LYP) =  -735.568676472     A.U. after    8 cycles
 SCF Done:  E(RB3LYP) =  -735.568676572     A.U. after    7 cycles
 SCF Done:  E(RB3LYP) =  -735.568676627     A.U. after    6 cycles
 SCF Done:  E(RB3LYP) =  -735.568676547     A.U. after    6 cycles
 Optimization completed.
    -- Stationary point found.
 Normal termination of Gaussian 16 at Fri Dec 11 01:17:32 2020.

 --------------------------------------------------------------------
 #N Geom=AllCheck Guess=TCheck SCRF=Check GenChk RB3LYP/6-31G(d) Freq
 --------------------------------------------------------------------

 Structure from the checkpoint file:  "JID_6961.chk"
 ------------------------------
 CID_87711848_JID_6961_neutraal
 ------------------------------
 Charge =  0 Multiplicity = 1

 SCF Done:  E(RB3LYP) =  -735.568676547     A.U. after    1 cycles

  Exact polarizability: 169.115   5.748 135.768   9.015 -11.063 130.280
 Approx polarizability: 196.352   8.967 210.785  11.216 -30.412 201.812

                      1                      2                      3
                      A                      A                      A
 Frequencies --     18.6829                31.4337                38.0165
 Red. masses --      4.1459                 3.6867                 3.5751
 Frc consts  --      0.0009                 0.0021                 0.0030
 IR Inten    --      0.3617                 0.8590                 0.2352

                      4                      5                      6
                      A                      A                      A
 Frequencies --     45.5095                63.7411                68.4208
 Red. masses --      4.6575                 3.4768                 4.1442
 Frc consts  --      0.0057                 0.0083                 0.0114
 IR Inten    --      0.8066                 1.2810                 1.2386

                      7                      8                      9
                      A                      A                      A
 Frequencies --     86.2400               132.7006               147.8015
 Red. masses --      4.4985                 2.8524                 3.9202
 Frc consts  --      0.0197                 0.0296                 0.0505
 IR Inten    --      0.9955                 1.7439                 0.8977

                     10                     11                     12
                      A                      A                      A
 Frequencies --    169.7948               178.5598               191.1478
 Red. masses --      1.0959                 2.5054                 3.7031
 Frc consts  --      0.0186                 0.0471                 0.0797
 IR Inten    --      0.2603                 1.3409                 1.9418

                     13                     14                     15
                      A                      A                      A
 Frequencies --    247.8727               252.5108               281.0025
 Red. masses --      1.3075                 1.5927                 1.4605
 Frc consts  --      0.0473                 0.0598                 0.0679
 IR Inten    --      1.4345                 0.3516                 1.2443

                     16                     17                     18
                      A                      A                      A
 Frequencies --    296.3094               313.0841               324.1071
 Red. masses --      1.3472                 2.0419                 1.7706
 Frc consts  --      0.0697                 0.1179                 0.1096
 IR Inten    --     55.8952                 1.5242                32.8442

                     19                     20                     21
                      A                      A                      A
 Frequencies --    361.5569               374.6915               376.8835
 Red. masses --      2.6776                 2.5247                 2.8648
 Frc consts  --      0.2062                 0.2088                 0.2398
 IR Inten    --      9.5331                 8.0765                 0.1312

                     22                     23                     24
                      A                      A                      A
 Frequencies --    382.7714               395.2020               410.4648
 Red. masses --      2.4190                 2.1008                 2.7441
 Frc consts  --      0.2088                 0.1933                 0.2724
 IR Inten    --     11.6531                 0.9121                21.2841

                     25                     26                     27
                      A                      A                      A
 Frequencies --    456.4777               471.0912               495.8728
 Red. masses --      2.3468                 3.0152                 2.5397
 Frc consts  --      0.2881                 0.3943                 0.3679
 IR Inten    --     11.9729                 2.0294                 0.5215

                     28                     29                     30
                      A                      A                      A
 Frequencies --    538.3620               590.7871               609.0814
 Red. masses --      3.2531                 2.2103                 3.7150
 Frc consts  --      0.5555                 0.4545                 0.8120
 IR Inten    --      1.2869                 4.5163                 1.5845

                     31                     32                     33
                      A                      A                      A
 Frequencies --    651.7832               742.0490               759.4860
 Red. masses --      1.3983                 2.4870                 1.6846
 Frc consts  --      0.3500                 0.8069                 0.5725
 IR Inten    --     11.5622                 1.2754                 5.2157

                     34                     35                     36
                      A                      A                      A
 Frequencies --    826.3769               839.5934               846.4021
 Red. masses --      2.4224                 2.4753                 2.1578
 Frc consts  --      0.9747                 1.0281                 0.9108
 IR Inten    --      9.9113                 3.5590                 2.6398

                     37                     38                     39
                      A                      A                      A
 Frequencies --    850.6721               890.0976               919.7949
 Red. masses --      3.3776                 2.1694                 1.6237
 Frc consts  --      1.4400                 1.0127                 0.8094
 IR Inten    --      6.9096                 3.3272                 2.6024

                     40                     41                     42
                      A                      A                      A
 Frequencies --    940.5732               945.5686               972.3313
 Red. masses --      1.8397                 1.9476                 1.3392
 Frc consts  --      0.9589                 1.0260                 0.7460
 IR Inten    --      6.0616                10.1597                31.7221

                     43                     44                     45
                      A                      A                      A
 Frequencies --    976.5423               983.9127               988.5549
 Red. masses --      1.7159                 1.6748                 1.7953
 Frc consts  --      0.9641                 0.9553                 1.0337
 IR Inten    --      2.2814                 6.1570                 4.8874

                     46                     47                     48
                      A                      A                      A
 Frequencies --   1030.7502              1038.7440              1060.6680
 Red. masses --      1.7017                 1.5804                 1.7590
 Frc consts  --      1.0652                 1.0047                 1.1659
 IR Inten    --      9.3862                 9.7850                 4.8835

                     49                     50                     51
                      A                      A                      A
 Frequencies --   1070.8942              1077.4068              1087.1891
 Red. masses --      2.0752                 2.4116                 1.4639
 Frc consts  --      1.4022                 1.6494                 1.0195
 IR Inten    --     58.7901                32.9483                 0.6067

                     52                     53                     54
                      A                      A                      A
 Frequencies --   1110.9773              1119.4086              1159.7174
 Red. masses --      1.7711                 1.7636                 2.1287
 Frc consts  --      1.2880                 1.3021                 1.6868
 IR Inten    --      2.9807                40.8337                29.5385

                     55                     56                     57
                      A                      A                      A
 Frequencies --   1166.7627              1191.2814              1203.5208
 Red. masses --      2.0901                 2.2249                 2.9596
 Frc consts  --      1.6764                 1.8603                 2.5258
 IR Inten    --      8.2405               118.3570               275.2537

                     58                     59                     60
                      A                      A                      A
 Frequencies --   1225.8238              1248.0558              1276.3915
 Red. masses --      1.3547                 1.3214                 1.3551
 Frc consts  --      1.1993                 1.2127                 1.3007
 IR Inten    --      3.0989                14.4036                 1.3658

                     61                     62                     63
                      A                      A                      A
 Frequencies --   1296.8006              1315.9580              1343.6580
 Red. masses --      1.2455                 1.3083                 1.1983
 Frc consts  --      1.2341                 1.3348                 1.2747
 IR Inten    --      5.9648                10.1224                 1.4412

                     64                     65                     66
                      A                      A                      A
 Frequencies --   1355.4674              1362.8123              1374.4176
 Red. masses --      2.8661                 1.3662                 1.2901
 Frc consts  --      3.1026                 1.4950                 1.4359
 IR Inten    --    130.5834                 3.9454                 3.0423

                     67                     68                     69
                      A                      A                      A
 Frequencies --   1387.7875              1402.9317              1414.2556
 Red. masses --      1.3481                 1.4124                 1.4340
 Frc consts  --      1.5298                 1.6379                 1.6899
 IR Inten    --     16.4323                11.2835                 3.1329

                     70                     71                     72
                      A                      A                      A
 Frequencies --   1419.9445              1428.6543              1431.3254
 Red. masses --      1.4549                 1.3486                 1.2536
 Frc consts  --      1.7284                 1.6218                 1.5132
 IR Inten    --      2.0217                 3.1400                 9.5088

                     73                     74                     75
                      A                      A                      A
 Frequencies --   1432.1000              1442.8187              1447.3023
 Red. masses --      1.3214                 1.3391                 1.2621
 Frc consts  --      1.5967                 1.6424                 1.5576
 IR Inten    --      5.1462                12.9485                26.4297

                     76                     77                     78
                      A                      A                      A
 Frequencies --   1451.2263              1463.0514              1503.1019
 Red. masses --      1.2627                 1.2463                 1.0443
 Frc consts  --      1.5668                 1.5718                 1.3901
 IR Inten    --     27.9060                13.2330                 6.3457

                     79                     80                     81
                      A                      A                      A
 Frequencies --   1505.2982              1511.9917              1518.7847
 Red. masses --      1.0896                 1.0668                 1.0620
 Frc consts  --      1.4546                 1.4369                 1.4433
 IR Inten    --      1.4162                 2.1233                12.4411

                     82                     83                     84
                      A                      A                      A
 Frequencies --   1519.3585              1521.3718              1525.4939
 Red. masses --      1.0637                 1.0712                 1.0756
 Frc consts  --      1.4467                 1.4608                 1.4747
 IR Inten    --      2.0605                 1.4978                 7.5825

                     85                     86                     87
                      A                      A                      A
 Frequencies --   1529.8478              1534.2174              1539.7934
 Red. masses --      1.0775                 1.0762                 1.0688
 Frc consts  --      1.4859                 1.4925                 1.4930
 IR Inten    --     19.6653                12.1797                 4.5441

                     88                     89                     90
                      A                      A                      A
 Frequencies --   1552.9836              1720.2067              1789.2402
 Red. masses --      1.0532                 5.1988                10.8412
 Frc consts  --      1.4965                 9.0639                20.4486
 IR Inten    --      4.6405                20.3129               189.4409

                     91                     92                     93
                      A                      A                      A
 Frequencies --   3006.4348              3018.1074              3032.6059
 Red. masses --      1.0716                 1.0739                 1.0700
 Frc consts  --      5.7069                 5.7632                 5.7977
 IR Inten    --     36.8387                 9.5549                31.3045

                     94                     95                     96
                      A                      A                      A
 Frequencies --   3037.6223              3043.5208              3044.9973
 Red. masses --      1.0445                 1.0586                 1.0553
 Frc consts  --      5.6782                 5.7776                 5.7650
 IR Inten    --     12.0987                18.1668                26.6326

                     97                     98                     99
                      A                      A                      A
 Frequencies --   3049.6680              3059.0844              3059.4984
 Red. masses --      1.0539                 1.0358                 1.0992
 Frc consts  --      5.7750                 5.7112                 6.0621
 IR Inten    --     48.5272                13.6659                33.3828

                    100                    101                    102
                      A                      A                      A
 Frequencies --   3076.0682              3086.6557              3090.0890
 Red. masses --      1.0942                 1.0874                 1.0759
 Frc consts  --      6.0999                 6.1040                 6.0530
 IR Inten    --     39.7046                16.5093                29.1984

                    103                    104                    105
                      A                      A                      A
 Frequencies --   3094.7251              3101.5167              3106.5015
 Red. masses --      1.0849                 1.0955                 1.0973
 Frc consts  --      6.1218                 6.2086                 6.2388
 IR Inten    --     43.1583                18.9772                71.1106

                    106                    107                    108
                      A                      A                      A
 Frequencies --   3112.7160              3115.4489              3134.0501
 Red. masses --      1.0946                 1.1002                 1.1022
 Frc consts  --      6.2486                 6.2918                 6.3785
 IR Inten    --     55.8893                12.7295                25.5101

                    109                    110                    111
                      A                      A                      A
 Frequencies --   3142.1312              3142.8216              3161.4776
 Red. masses --      1.1038                 1.0994                 1.1020
 Frc consts  --      6.4210                 6.3981                 6.4898
 IR Inten    --     17.1563                12.1984                 8.2817

                    112                    113                    114
                      A                      A                      A
 Frequencies --   3177.8659              3271.7855              3718.8070
 Red. masses --      1.0621                 1.1142                 1.0657
 Frc consts  --      6.3196                 7.0273                 8.6837
 IR Inten    --     10.2845                 5.5438                 6.2528

 - Thermochemistry -
 -------------------
 Temperature   298.150 Kelvin.  Pressure   1.00000 Atm.
 Atom     1 has atomic number  6 and mass  12.00000

 Molecular mass:   228.17254 amu.
 Principal axes and moments of inertia in atomic units:
                           1         2         3
     Eigenvalues --  1696.365079228.662359496.92279
           X            1.00000  -0.00156   0.00041
           Y            0.00158   0.99870  -0.05098
           Z           -0.00033   0.05098   0.99870
 This molecule is an asymmetric top.
 Rotational symmetry number  1.
 Warning -- assumption of classical behavior for rotation
           may cause significant error
 Rotational temperatures (Kelvin)      0.05106     0.00939     0.00912
 Rotational constants (GHZ):           1.06389     0.19556     0.19003
 Zero-point vibrational energy     941927.1 (Joules/Mol)
                                  225.12597 (Kcal/Mol)
 Warning -- explicit consideration of  30 degrees of freedom as
           vibrations may cause significant error
 Vibrational temperatures:     26.88    45.23    54.70    65.48    91.71
          (Kelvin)             98.44   124.08   190.93   212.65   244.30
                              256.91   275.02   356.63   363.31   404.30
                              426.32   450.46   466.32   520.20   539.10
                              542.25   550.72   568.61   590.57   656.77
                              677.80   713.45   774.58   850.01   876.33
                              937.77  1067.64  1092.73  1188.97  1207.99
                             1217.78  1223.93  1280.65  1323.38  1353.28
                             1360.46  1398.97  1405.03  1415.63  1422.31
                             1483.02  1494.52  1526.06  1540.78  1550.15
                             1564.22  1598.45  1610.58  1668.57  1678.71
                             1713.99  1731.60  1763.69  1795.67  1836.44
                             1865.81  1893.37  1933.22  1950.22  1960.78
                             1977.48  1996.72  2018.51  2034.80  2042.98
                             2055.51  2059.36  2060.47  2075.89  2082.35
                             2087.99  2105.00  2162.63  2165.79  2175.42
                             2185.19  2186.02  2188.91  2194.85  2201.11
                             2207.40  2215.42  2234.40  2474.99  2574.32
                             4325.59  4342.38  4363.24  4370.46  4378.95
                             4381.07  4387.79  4401.34  4401.94  4425.78
                             4441.01  4445.95  4452.62  4462.39  4469.56
                             4478.50  4482.44  4509.20  4520.83  4521.82
                             4548.66  4572.24  4707.37  5350.53

 Zero-point correction=                           0.358761 (Hartree/Particle)
 Thermal correction to Energy=                    0.377848
 Thermal correction to Enthalpy=                  0.378792
 Thermal correction to Gibbs Free Energy=         0.309454
 Sum of electronic and zero-point Energies=           -735.209915
 Sum of electronic and thermal Energies=              -735.190829
 Sum of electronic and thermal Enthalpies=            -735.189884
 Sum of electronic and thermal Free Energies=         -735.259222

                     E (Thermal)             CV                S
                      KCal/Mol        Cal/Mol-Kelvin    Cal/Mol-Kelvin
 Total                  237.103             70.278            145.934
 Electronic               0.000              0.000              0.000
 Translational            0.889              2.981             42.177
 Rotational               0.889              2.981             33.363
 Vibrational            235.326             64.317             70.393
 Vibration     1          0.593              1.986              6.769
 Vibration     2          0.594              1.983              5.737
 Vibration     3          0.594              1.982              5.360
 Vibration     4          0.595              1.979              5.004
 Vibration     5          0.597              1.972              4.338
 Vibration     6          0.598              1.969              4.198
 Vibration     7          0.601              1.959              3.744
 Vibration     8          0.613              1.921              2.907
 Vibration     9          0.617              1.905              2.700
 Vibration    10          0.625              1.880              2.438
 Vibration    11          0.629              1.869              2.343
 Vibration    12          0.634              1.852              2.217
 Vibration    13          0.661              1.766              1.746
 Vibration    14          0.664              1.759              1.713
 Vibration    15          0.681              1.709              1.528
 Vibration    16          0.690              1.681              1.438
 Vibration    17          0.701              1.649              1.346
 Vibration    18          0.709              1.627              1.289
 Vibration    19          0.736              1.551              1.115
 Vibration    20          0.746              1.524              1.061
 Vibration    21          0.747              1.519              1.052
 Vibration    22          0.752              1.507              1.028
 Vibration    23          0.762              1.480              0.980
 Vibration    24          0.775              1.448              0.925
 Vibration    25          0.815              1.347              0.776
 Vibration    26          0.828              1.314              0.734
 Vibration    27          0.851              1.259              0.669
 Vibration    28          0.893              1.165              0.569
 Vibration    29          0.948              1.051              0.466
 Vibration    30          0.968              1.013              0.434

 Optimization completed.
    -- Stationary point found.
 Normal termination of Gaussian 16 at Fri Dec 11 01:29:46 2020.

 ----------------------------------------------------------------------
 # B3LYP/6-311++G(d,p) empiricaldispersion=gd3bj scf=xqc pop=npa geom=c
 heck
 ----------------------------------------------------------------------

 --------------------------------------
 CID_87711848_JID_6961_Energie_neutraal
 --------------------------------------
 Structure from the checkpoint file:  "JID_6961.chk"
 Charge =  0 Multiplicity = 1

 SCF Done:  E(RB3LYP) =  -735.791026723     A.U. after   14 cycles
 Normal termination of Gaussian 16 at Fri Dec 11 01:35:36 2020.

 ----------------------------------------------------------------------
 # B3LYP/6-311++G(d,p) empiricaldispersion=gd3bj scf=xqc pop=npa geom=c
 heck
 ----------------------------------------------------------------------

 ------------------------------------
 CID_87711848_JID_6961_Energie_kation
 ------------------------------------
 Structure from the checkpoint file:  "JID_6961.chk"
 Charge =  1 Multiplicity = 2

 SCF Done:  E(UB3LYP) =  -735.457914931     A.U. after   33 cycles
 SCF Done:  E(UB3LYP) =  -735.457914939     a.u. after    2 cycles
 Normal termination of Gaussian 16 at Fri Dec 11 02:07:24 2020.
 Gaussian 16:  ES64L-G16RevA.03 25-Dec-2016

 ----------------------------------------------------------------------
 # B3LYP/6-311++G(d,p) empiricaldispersion=gd3bj scf=xqc pop=npa geom=c
 heck
 ----------------------------------------------------------------------

 -----------------------------------
 CID_87711848_JID_6961_Energie_anion
 -----------------------------------
 Structure from the checkpoint file:  "JID_6961.chk"
 Charge = -1 Multiplicity = 2

                         Standard orientation:
 ---------------------------------------------------------------------
 Center     Atomic      Atomic             Coordinates (Angstroms)
 Number     Number       Type             X           Y           Z
 ---------------------------------------------------------------------
      1          6           0        0.004945    2.009656   -0.672752
      2          6           0       -0.194423    0.787606    0.234169
      3          6           0       -1.371461    0.978111    1.222038
      4          6           0       -2.695529    1.542455    0.674282
      5          6           0       -3.447125    0.698864   -0.366408
      6          6           0       -3.809567   -0.728569    0.060515
      7          6           0       -4.740851   -0.778170    1.271263
      8          8           0       -4.366804   -1.447958   -1.044406
      9          6           0       -0.284430   -0.529650   -0.559993
     10          6           0        0.974338   -0.891767   -1.340282
     11          8           0        2.081174   -1.090930   -0.431887
     12          6           0        3.087674   -0.189973   -0.452622
     13          8           0        3.151058    0.749193   -1.224951
     14          6           0        4.133033   -0.457497    0.579945
     15          6           0        4.009015   -1.469865    1.446282
     16          6           0        5.294598    0.498131    0.561698
     17          1           0       -0.794223    2.089887   -1.419566
     18          1           0        0.961439    1.959668   -1.199443
     19          1           0        0.001145    2.934026   -0.083021
     20          1           0        0.701150    0.697566    0.864935
     21          1           0       -1.556948    0.027761    1.741177
     22          1           0       -1.033937    1.677222    1.998931
     23          1           0       -3.358239    1.720594    1.531204
     24          1           0       -2.507786    2.531702    0.239786
     25          1           0       -4.381827    1.221915   -0.624138
     26          1           0       -2.871561    0.634443   -1.296085
     27          1           0       -2.895115   -1.281447    0.296256
     28          1           0       -5.660381   -0.209217    1.076581
     29          1           0       -5.018025   -1.814149    1.488208
     30          1           0       -4.268627   -0.351755    2.163006
     31          1           0       -5.172709   -0.976397   -1.311324
     32          1           0       -0.504584   -1.352357    0.132470
     33          1           0       -1.108958   -0.498593   -1.281762
     34          1           0        0.842336   -1.846940   -1.856360
     35          1           0        1.250358   -0.127573   -2.067680
     36          1           0        4.768621   -1.656677    2.200490
     37          1           0        3.151912   -2.132589    1.424670
     38          1           0        5.801485    0.477104   -0.409346
     39          1           0        4.952701    1.528452    0.708529
     40          1           0        6.017057    0.248923    1.343629
 ---------------------------------------------------------------------

 SCF Done:  E(UB3LYP) =  -735.789789734     A.U. after   30 cycles

 The electronic state is 2-A.
 Alpha  occ. eigenvalues --  -19.03528 -19.02620 -18.96851 -10.15213 -10.12570
 Alpha  occ. eigenvalues --  -10.11463 -10.07328 -10.07319 -10.07056 -10.07001
 Alpha  occ. eigenvalues --  -10.06797 -10.06761 -10.05406 -10.05332 -10.05120
 Alpha  occ. eigenvalues --  -10.03280  -0.97365  -0.92789  -0.88564  -0.72573
 Alpha  occ. eigenvalues --   -0.69401  -0.68045  -0.65093  -0.62570  -0.58964
 Alpha  occ. eigenvalues --   -0.57495  -0.55698  -0.52996  -0.49811  -0.47549
 Alpha  occ. eigenvalues --   -0.44477  -0.43141  -0.40120  -0.38646  -0.37650
 Alpha  occ. eigenvalues --   -0.36821  -0.35437  -0.35017  -0.34821  -0.33887
 Alpha  occ. eigenvalues --   -0.32311  -0.31471  -0.31240  -0.30397  -0.30168
 Alpha  occ. eigenvalues --   -0.29530  -0.28620  -0.27777  -0.27667  -0.27157
 Alpha  occ. eigenvalues --   -0.26389  -0.25378  -0.25178  -0.24316  -0.23799
 Alpha  occ. eigenvalues --   -0.22451  -0.21785  -0.21462  -0.20954  -0.18132
 Alpha  occ. eigenvalues --   -0.17992  -0.14919  -0.14623   0.04063
 Alpha virt. eigenvalues --    0.05306   0.07239   0.07621   0.07951   0.08554
 Alpha virt. eigenvalues --    0.09419   0.09645   0.10094   0.10635   0.10725
 Alpha virt. eigenvalues --    0.11075   0.11906   0.12186   0.12746   0.13188

  Beta  occ. eigenvalues --  -19.03493 -19.02595 -18.96633 -10.14995 -10.12567
  Beta  occ. eigenvalues --  -10.11466 -10.07328 -10.07309 -10.07036 -10.06996
  Beta  occ. eigenvalues --  -10.06765 -10.06755 -10.05400 -10.05341 -10.05027
  Beta  occ. eigenvalues --  -10.02990  -0.97156  -0.92737  -0.88245  -0.72553
  Beta  occ. eigenvalues --   -0.69319  -0.67746  -0.65045  -0.62531  -0.58931
  Beta  occ. eigenvalues --   -0.57322  -0.55510  -0.52857  -0.49639  -0.47222
  Beta  occ. eigenvalues --   -0.44406  -0.43021  -0.40076  -0.38593  -0.37523
  Beta  occ. eigenvalues --   -0.36731  -0.35303  -0.34865  -0.34581  -0.33823
  Beta  occ. eigenvalues --   -0.32155  -0.31282  -0.31150  -0.30270  -0.30074
  Beta  occ. eigenvalues --   -0.29455  -0.28585  -0.27739  -0.27273  -0.27062
  Beta  occ. eigenvalues --   -0.26324  -0.25329  -0.25126  -0.24164  -0.23723
  Beta  occ. eigenvalues --   -0.22379  -0.21669  -0.21436  -0.20937  -0.18098
  Beta  occ. eigenvalues --   -0.17358  -0.14696  -0.13161
  Beta virt. eigenvalues --    0.06278   0.07568   0.07778   0.07973   0.08504
  Beta virt. eigenvalues --    0.08811   0.09545   0.09785   0.10080   0.10706
  Beta virt. eigenvalues --    0.10854   0.11106   0.12035   0.12208   0.12791

 Mulliken charges and spin densities:
               1          2
     1  C   -0.610561  -0.180371
     2  C    0.481714   0.138548
     3  C   -0.297096  -0.111501
     4  C   -0.231622  -0.200475
     5  C    0.202088  -0.320780
     6  C   -0.613826   0.334991
     7  C    0.547039  -1.149160
     8  O   -0.187937   0.001244
     9  C   -0.021308  -0.209970
    10  C   -0.415818  -0.101202
    11  O    0.034090  -0.000270
    12  C   -0.362920   0.100184
    13  O   -0.314088   0.077561
    14  C    0.826104  -0.013746
    15  C   -0.808710   0.344779
    16  C   -0.697910   0.011972
    17  H    0.112079   0.032197
    18  H    0.148705   0.015797
    19  H    0.094683   0.037631
    20  H    0.203515  -0.029048
    21  H    0.037891   0.105372
    22  H    0.048572   0.110073
    23  H   -0.020231   0.189243
    24  H    0.067347   0.082596
    25  H   -0.429456   0.577868
    26  H    0.117221   0.063804
    27  H    0.230738   0.016508
    28  H   -0.295625   0.454860
    29  H   -0.033515   0.180748
    30  H   -0.039165   0.181672
    31  H    0.028138   0.212705
    32  H    0.159412  -0.016643
    33  H    0.072910   0.065589
    34  H    0.142687   0.018913
    35  H    0.214121  -0.023240
    36  H    0.095817  -0.016946
    37  H    0.126639  -0.007207
    38  H    0.146226   0.003890
    39  H    0.133031   0.021553
    40  H    0.109021   0.000262
 Sum of Mulliken charges =  -1.00000   1.00000

 Dipole moment (field-independent basis, Debye):
    X=              1.4557    Y=              0.4430    Z=              0.1235  Tot=              1.5266
 Quadrupole moment (field-independent basis, Debye-Ang):
   XX=           -210.3019   YY=           -127.4274   ZZ=           -125.3796
   XY=              0.2573   XZ=              0.0098   YZ=              1.6038

 Summary of Natural Population Analysis:

                                       Natural Population
                Natural  -----------------------------------------------
    Atom  No    Charge         Core      Valence    Rydberg      Total
 -----------------------------------------------------------------------
      C    1   -0.29390      0.99965     2.28909    0.00516     3.29390
      C    2   -0.11796      0.99960     2.10805    0.01031     3.11796
      C    3   -0.18587      0.99961     2.17701    0.00925     3.18587
      C    4   -0.19353      0.99962     2.18506    0.00885     3.19353
      C    5   -0.20297      0.99961     2.19298    0.01039     3.20297
      C    6    0.05707      0.99957     1.93094    0.01242     2.94293
      C    7   -0.29883      0.99965     2.29336    0.00583     3.29883
      O    8   -0.37143      0.99990     3.36520    0.00633     4.37143
      C    9   -0.19921      0.99960     2.19175    0.00786     3.19921
      C   10   -0.01439      0.99956     2.00546    0.00937     3.01439
      O   11   -0.28712      0.99986     3.27897    0.00829     4.28712
      C   12    0.41771      0.99961     1.55729    0.02539     2.58229
      O   13   -0.30749      0.99987     3.30268    0.00494     4.30749
      C   14   -0.05809      0.99949     2.04841    0.01019     3.05809
      C   15   -0.11193      0.99954     2.10422    0.00818     3.11193
      C   16   -0.29225      0.99964     2.28768    0.00493     3.29225
      H   17    0.09199      0.00000     0.40716    0.00084     0.40801
      H   18    0.11573      0.00000     0.38327    0.00100     0.38427
      H   19    0.09605      0.00000     0.40316    0.00079     0.40395
      H   20    0.10196      0.00000     0.39611    0.00193     0.39804
      H   21    0.09472      0.00000     0.40415    0.00114     0.40528
      H   22    0.09777      0.00000     0.40140    0.00083     0.40223
      H   23    0.09687      0.00000     0.40211    0.00102     0.40313
      H   24    0.09831      0.00000     0.40071    0.00098     0.40169
      H   25    0.09649      0.00000     0.40199    0.00152     0.40351
      H   26    0.09990      0.00000     0.39875    0.00135     0.40010
      H   27    0.08596      0.00000     0.41143    0.00260     0.41404
      H   28    0.09788      0.00000     0.40052    0.00161     0.40212
      H   29    0.10233      0.00000     0.39681    0.00086     0.39767
      H   30    0.10098      0.00000     0.39812    0.00090     0.39902
      H   31    0.22561      0.00000     0.27111    0.00328     0.27439
      H   32    0.09766      0.00000     0.40100    0.00134     0.40234
      H   33    0.09966      0.00000     0.39904    0.00130     0.40034
      H   34    0.08584      0.00000     0.41319    0.00097     0.41416
      H   35    0.09961      0.00000     0.39899    0.00139     0.40039
      H   36    0.08041      0.00000     0.41873    0.00086     0.41959
      H   37    0.09652      0.00000     0.40267    0.00081     0.40348
      H   38    0.10187      0.00000     0.39709    0.00104     0.39813
      H   39    0.10359      0.00000     0.39540    0.00101     0.39641
      H   40    0.09248      0.00000     0.40669    0.00083     0.40752
 =======================================================================
   * Total *   -0.00000     15.99437    46.82773    0.17790    63.00000

 Normal termination of Gaussian 16 at Fri Dec 11 02:23:19 2020.
