 Gaussian 16, Revision A.03,

 -----------------------------------------------------------
 # opt freq B3LYP/6-31G(d) empiricaldispersion=gd3bj scf=xqc
 -----------------------------------------------------------

 -------------------------------
 CID_130013671_JID_5042_neutraal
 -------------------------------
 Symbolic Z-matrix:
 Charge =  0 Multiplicity = 1

 SCF Done:  E(RB3LYP) =  -632.996750492     A.U. after   14 cycles
 SCF Done:  E(RB3LYP) =  -633.002403769     A.U. after   12 cycles
 SCF Done:  E(RB3LYP) =  -633.003935554     A.U. after   12 cycles
 SCF Done:  E(RB3LYP) =  -633.005005840     A.U. after   13 cycles
 SCF Done:  E(RB3LYP) =  -633.005897742     A.U. after   12 cycles
 SCF Done:  E(RB3LYP) =  -633.007032393     A.U. after   14 cycles
 SCF Done:  E(RB3LYP) =  -633.007086084     A.U. after   12 cycles
 SCF Done:  E(RB3LYP) =  -633.007708054     A.U. after   11 cycles
 SCF Done:  E(RB3LYP) =  -633.008176284     A.U. after   12 cycles
 SCF Done:  E(RB3LYP) =  -633.008594085     A.U. after   11 cycles
 SCF Done:  E(RB3LYP) =  -633.011303691     A.U. after    9 cycles
 SCF Done:  E(RB3LYP) =  -633.011463403     A.U. after   11 cycles
 SCF Done:  E(RB3LYP) =  -633.011471444     A.U. after    9 cycles
 SCF Done:  E(RB3LYP) =  -633.011472880     A.U. after    8 cycles
 SCF Done:  E(RB3LYP) =  -633.011473083     A.U. after    7 cycles
 Optimization completed.
    -- Stationary point found.
 Normal termination of Gaussian 16 at Thu Dec 10 15:05:12 2020.

 --------------------------------------------------------------------
 #N Geom=AllCheck Guess=TCheck SCRF=Check GenChk RB3LYP/6-31G(d) Freq
 --------------------------------------------------------------------

 Structure from the checkpoint file:  "JID_5042.chk"
 -------------------------------
 CID_130013671_JID_5042_neutraal
 -------------------------------
 Charge =  0 Multiplicity = 1

 SCF Done:  E(RB3LYP) =  -633.011473083     A.U. after    1 cycles

  Exact polarizability: 170.380  -4.260 142.982 -17.243  -7.892 106.878
 Approx polarizability: 244.661  -7.237 220.615 -40.639 -20.209 166.461

                      1                      2                      3
                      A                      A                      A
 Frequencies --     42.0892                74.1899                98.1468
 Red. masses --      5.0176                 3.4403                 3.3280
 Frc consts  --      0.0052                 0.0112                 0.0189
 IR Inten    --      0.2911                 0.2287                 0.7132

                      4                      5                      6
                      A                      A                      A
 Frequencies --    151.7357               158.7101               193.0661
 Red. masses --      2.8776                 2.9391                 4.1279
 Frc consts  --      0.0390                 0.0436                 0.0907
 IR Inten    --      0.3001                 0.6706                 0.5282

                      7                      8                      9
                      A                      A                      A
 Frequencies --    234.6763               269.8700               304.2782
 Red. masses --      3.4155                 2.9388                 2.1349
 Frc consts  --      0.1108                 0.1261                 0.1165
 IR Inten    --      1.0436                 1.0810                 5.5870

                     10                     11                     12
                      A                      A                      A
 Frequencies --    337.0367               367.7790               376.7688
 Red. masses --      2.3723                 2.9507                 2.3551
 Frc consts  --      0.1588                 0.2352                 0.1970
 IR Inten    --      2.0550                 4.0579                 3.4630

                     13                     14                     15
                      A                      A                      A
 Frequencies --    408.0734               411.4928               422.3332
 Red. masses --      2.7906                 2.5440                 2.1008
 Frc consts  --      0.2738                 0.2538                 0.2208
 IR Inten    --      1.5724                 6.4144                 2.1789

                     16                     17                     18
                      A                      A                      A
 Frequencies --    456.8432               496.6979               535.9813
 Red. masses --      2.7680                 2.6057                 2.9170
 Frc consts  --      0.3404                 0.3788                 0.4937
 IR Inten    --      1.5702                10.4249                 5.4889

                     19                     20                     21
                      A                      A                      A
 Frequencies --    571.4510               582.6947               685.5988
 Red. masses --      3.4906                 2.9957                 6.8000
 Frc consts  --      0.6716                 0.5993                 1.8832
 IR Inten    --      8.8522                 4.6180                 0.6960

                     22                     23                     24
                      A                      A                      A
 Frequencies --    720.9011               729.6090               754.9356
 Red. masses --      2.0020                 1.4610                 3.4350
 Frc consts  --      0.6130                 0.4582                 1.1535
 IR Inten    --     43.5841                49.6561                 0.9863

                     25                     26                     27
                      A                      A                      A
 Frequencies --    791.1681               799.1292               811.4202
 Red. masses --      1.6638                 2.0866                 2.1787
 Frc consts  --      0.6136                 0.7851                 0.8452
 IR Inten    --     20.2528                15.4028                 4.0022

                     28                     29                     30
                      A                      A                      A
 Frequencies --    825.1321               845.7243               865.2098
 Red. masses --      1.6476                 1.2415                 1.9135
 Frc consts  --      0.6609                 0.5232                 0.8440
 IR Inten    --     42.0022                 0.9134                28.5354

                     31                     32                     33
                      A                      A                      A
 Frequencies --    903.8241               954.7098               964.2494
 Red. masses --      2.7464                 1.9038                 1.2881
 Frc consts  --      1.3218                 1.0224                 0.7056
 IR Inten    --      5.1900                 5.1479                 0.6881

                     34                     35                     36
                      A                      A                      A
 Frequencies --    977.8676               987.8511              1000.3769
 Red. masses --      2.3004                 1.4239                 1.9743
 Frc consts  --      1.2960                 0.8187                 1.1641
 IR Inten    --     12.2170                 0.4150                 2.1936

                     37                     38                     39
                      A                      A                      A
 Frequencies --   1008.6499              1025.3697              1057.2795
 Red. masses --      6.4509                 2.4855                 2.2828
 Frc consts  --      3.8668                 1.5397                 1.5035
 IR Inten    --     35.8226                11.0833                20.0978

                     40                     41                     42
                      A                      A                      A
 Frequencies --   1087.4378              1092.8434              1104.9470
 Red. masses --      1.9198                 2.5430                 1.9434
 Frc consts  --      1.3375                 1.7894                 1.3980
 IR Inten    --      8.2232                 5.4615                 0.4103

                     43                     44                     45
                      A                      A                      A
 Frequencies --   1111.3711              1124.3463              1141.4747
 Red. masses --      2.1202                 2.1681                 1.7000
 Frc consts  --      1.5429                 1.6148                 1.3051
 IR Inten    --      3.4972                 0.8877                 4.1661

                     46                     47                     48
                      A                      A                      A
 Frequencies --   1166.3251              1205.1121              1232.9799
 Red. masses --      2.8299                 2.6407                 1.3174
 Frc consts  --      2.2681                 2.2596                 1.1800
 IR Inten    --     11.0117                48.9457                 7.4142

                     49                     50                     51
                      A                      A                      A
 Frequencies --   1257.5742              1270.5005              1274.0963
 Red. masses --      1.4250                 1.2359                 1.2098
 Frc consts  --      1.3278                 1.1754                 1.1571
 IR Inten    --     60.3357                 4.5926                17.9828

                     52                     53                     54
                      A                      A                      A
 Frequencies --   1279.1389              1303.9212              1322.7425
 Red. masses --      1.4638                 1.3535                 1.8688
 Frc consts  --      1.4111                 1.3558                 1.9265
 IR Inten    --      9.1192                15.2264                 6.4980

                     55                     56                     57
                      A                      A                      A
 Frequencies --   1336.0828              1342.8267              1367.6692
 Red. masses --      1.5245                 1.1515                 1.4622
 Frc consts  --      1.6034                 1.2234                 1.6115
 IR Inten    --      5.9258                 6.9765                48.5001

                     58                     59                     60
                      A                      A                      A
 Frequencies --   1370.6036              1386.8891              1400.5129
 Red. masses --      1.3081                 1.3330                 1.3904
 Frc consts  --      1.4478                 1.5107                 1.6069
 IR Inten    --      1.3202                 3.0235                19.8767

                     61                     62                     63
                      A                      A                      A
 Frequencies --   1409.1709              1418.1950              1428.3178
 Red. masses --      1.4037                 1.3104                 1.3390
 Frc consts  --      1.6423                 1.5528                 1.6095
 IR Inten    --     12.0655                35.2986                24.6134

                     64                     65                     66
                      A                      A                      A
 Frequencies --   1441.1083              1460.2158              1474.4342
 Red. masses --      1.3304                 1.6940                 2.3270
 Frc consts  --      1.6279                 2.1282                 2.9805
 IR Inten    --     11.3613                22.9080                 2.7036

                     67                     68                     69
                      A                      A                      A
 Frequencies --   1509.7516              1515.7584              1519.1582
 Red. masses --      1.0825                 1.0938                 1.0897
 Frc consts  --      1.4538                 1.4806                 1.4817
 IR Inten    --      6.7474                 2.3694                 7.5415

                     70                     71                     72
                      A                      A                      A
 Frequencies --   1528.3644              1533.6970              1536.4957
 Red. masses --      1.1570                 1.1350                 1.1233
 Frc consts  --      1.5924                 1.5730                 1.5625
 IR Inten    --      2.5706                 5.9944                16.9334

                     73                     74                     75
                      A                      A                      A
 Frequencies --   1539.1475              1556.4799              1564.3328
 Red. masses --      1.1071                 1.2387                 1.8147
 Frc consts  --      1.5453                 1.7680                 2.6165
 IR Inten    --      2.1520                10.2682                86.5653

                     76                     77                     78
                      A                      A                      A
 Frequencies --   1599.6837              1658.0584              2942.9047
 Red. masses --      6.5199                 5.1232                 1.0741
 Frc consts  --      9.8301                 8.2983                 5.4808
 IR Inten    --     39.7325               309.2982                66.9264

                     79                     80                     81
                      A                      A                      A
 Frequencies --   3002.5220              3008.4299              3043.4688
 Red. masses --      1.0739                 1.0755                 1.0698
 Frc consts  --      5.7041                 5.7349                 5.8381
 IR Inten    --     33.6569                74.1017                43.4956

                     82                     83                     84
                      A                      A                      A
 Frequencies --   3052.3520              3064.1416              3070.2048
 Red. masses --      1.0644                 1.0783                 1.0672
 Frc consts  --      5.8430                 5.9648                 5.9271
 IR Inten    --     45.6173                12.9062                11.4862

                     85                     86                     87
                      A                      A                      A
 Frequencies --   3079.3394              3085.3705              3098.1680
 Red. masses --      1.0797                 1.0923                 1.0909
 Frc consts  --      6.0322                 6.1267                 6.1694
 IR Inten    --     63.1445                24.2979                 9.7812

                     88                     89                     90
                      A                      A                      A
 Frequencies --   3110.8777              3120.9277              3127.1632
 Red. masses --      1.1032                 1.0905                 1.0939
 Frc consts  --      6.2904                 6.2583                 6.3028
 IR Inten    --     39.8707                27.6853                43.1485

                     91                     92                     93
                      A                      A                      A
 Frequencies --   3145.6478              3161.8005              3165.0546
 Red. masses --      1.0893                 1.0880                 1.0909
 Frc consts  --      6.3507                 6.4084                 6.4388
 IR Inten    --     22.4819                43.6545                29.4334

                     94                     95                     96
                      A                      A                      A
 Frequencies --   3222.5662              3238.2244              3493.5721
 Red. masses --      1.0911                 1.0909                 1.0742
 Frc consts  --      6.6760                 6.7397                 7.7247
 IR Inten    --     15.0791                11.5733                 2.5550

 - Thermochemistry -
 -------------------
 Temperature   298.150 Kelvin.  Pressure   1.00000 Atm.
 Atom     1 has atomic number  6 and mass  12.00000

 Molecular mass:   205.15790 amu.
 Principal axes and moments of inertia in atomic units:
                           1         2         3
     Eigenvalues --  1767.465874295.119844799.68187
           X            0.99999  -0.00331   0.00002
           Y            0.00331   0.99999   0.00026
           Z           -0.00002  -0.00026   1.00000
 This molecule is an asymmetric top.
 Rotational symmetry number  1.
 Warning -- assumption of classical behavior for rotation
           may cause significant error
 Rotational temperatures (Kelvin)      0.04900     0.02017     0.01805
 Rotational constants (GHZ):           1.02109     0.42018     0.37601
 Zero-point vibrational energy     803336.8 (Joules/Mol)
                                  192.00210 (Kcal/Mol)
 Warning -- explicit consideration of  20 degrees of freedom as
           vibrations may cause significant error
 Vibrational temperatures:     60.56   106.74   141.21   218.31   228.35
          (Kelvin)            277.78   337.65   388.28   437.79   484.92
                              529.15   542.09   587.13   592.05   607.64
                              657.30   714.64   771.16   822.19   838.37
                              986.42  1037.22  1049.74  1086.18  1138.31
                             1149.77  1167.45  1187.18  1216.81  1244.84
                             1300.40  1373.61  1387.34  1406.93  1421.30
                             1439.32  1451.22  1475.28  1521.19  1564.58
                             1572.36  1589.77  1599.02  1617.68  1642.33
                             1678.08  1733.89  1773.98  1809.37  1827.97
                             1833.14  1840.40  1876.05  1903.13  1922.33
                             1932.03  1967.77  1971.99  1995.42  2015.03
                             2027.48  2040.47  2055.03  2073.43  2100.92
                             2121.38  2172.20  2180.84  2185.73  2198.98
                             2206.65  2210.67  2214.49  2239.43  2250.73
                             2301.59  2385.58  4234.18  4319.96  4328.46
                             4378.87  4391.65  4408.62  4417.34  4430.48
                             4439.16  4457.57  4475.86  4490.32  4499.29
                             4525.89  4549.13  4553.81  4636.55  4659.08
                             5026.47

 Zero-point correction=                           0.305975 (Hartree/Particle)
 Thermal correction to Energy=                    0.318977
 Thermal correction to Enthalpy=                  0.319922
 Thermal correction to Gibbs Free Energy=         0.266700
 Sum of electronic and zero-point Energies=           -632.705498
 Sum of electronic and thermal Energies=              -632.692496
 Sum of electronic and thermal Enthalpies=            -632.691552
 Sum of electronic and thermal Free Energies=         -632.744773

                     E (Thermal)             CV                S
                      KCal/Mol        Cal/Mol-Kelvin    Cal/Mol-Kelvin
 Total                  200.161             53.129            112.015
 Electronic               0.000              0.000              0.000
 Translational            0.889              2.981             41.860
 Rotational               0.889              2.981             31.966
 Vibrational            198.384             47.167             38.188
 Vibration     1          0.595              1.980              5.158
 Vibration     2          0.599              1.966              4.039
 Vibration     3          0.604              1.950              3.491
 Vibration     4          0.619              1.901              2.650
 Vibration     5          0.621              1.893              2.565
 Vibration     6          0.635              1.849              2.198
 Vibration     7          0.654              1.788              1.843
 Vibration     8          0.674              1.729              1.597
 Vibration     9          0.695              1.666              1.393
 Vibration    10          0.718              1.602              1.226
 Vibration    11          0.740              1.538              1.089
 Vibration    12          0.747              1.520              1.052
 Vibration    13          0.773              1.453              0.933
 Vibration    14          0.775              1.445              0.921
 Vibration    15          0.785              1.422              0.884
 Vibration    16          0.815              1.346              0.775
 Vibration    17          0.852              1.257              0.666
 Vibration    18          0.891              1.170              0.574
 Vibration    19          0.928              1.093              0.501
 Vibration    20          0.940              1.069              0.480

 Optimization completed.
    -- Stationary point found.
 Normal termination of Gaussian 16 at Thu Dec 10 15:17:40 2020.

 ----------------------------------------------------------------------
 # B3LYP/6-311++G(d,p) empiricaldispersion=gd3bj scf=xqc pop=npa geom=c
 heck
 ----------------------------------------------------------------------

 ---------------------------------------
 CID_130013671_JID_5042_Energie_neutraal
 ---------------------------------------
 Structure from the checkpoint file:  "JID_5042.chk"
 Charge =  0 Multiplicity = 1

 SCF Done:  E(RB3LYP) =  -633.183403041     A.U. after   15 cycles
 Normal termination of Gaussian 16 at Thu Dec 10 15:23:48 2020.

 ----------------------------------------------------------------------
 # B3LYP/6-311++G(d,p) empiricaldispersion=gd3bj scf=xqc pop=npa geom=c
 heck
 ----------------------------------------------------------------------

 -------------------------------------
 CID_130013671_JID_5042_Energie_kation
 -------------------------------------
 Structure from the checkpoint file:  "JID_5042.chk"
 Charge =  1 Multiplicity = 2

 SCF Done:  E(UB3LYP) =  -632.909295685     A.U. after   24 cycles
 Normal termination of Gaussian 16 at Thu Dec 10 15:38:18 2020.
 Gaussian 16:  ES64L-G16RevA.03 25-Dec-2016

 ----------------------------------------------------------------------
 # B3LYP/6-311++G(d,p) empiricaldispersion=gd3bj scf=xqc pop=npa geom=c
 heck
 ----------------------------------------------------------------------

 ------------------------------------
 CID_130013671_JID_5042_Energie_anion
 ------------------------------------
 Structure from the checkpoint file:  "JID_5042.chk"
 Charge = -1 Multiplicity = 2

                         Standard orientation:
 ---------------------------------------------------------------------
 Center     Atomic      Atomic             Coordinates (Angstroms)
 Number     Number       Type             X           Y           Z
 ---------------------------------------------------------------------
      1          6           0       -1.483271   -1.512444   -1.040600
      2          6           0       -0.844899   -2.174504    0.187676
      3          6           0       -0.557457   -1.216758    1.363346
      4          7           0        0.024063    0.064453    0.974264
      5          6           0       -0.626513    1.266511    1.494142
      6          6           0       -1.996515    1.579668    0.866058
      7          6           0       -2.013910    1.498958   -0.683932
      8          7           0       -2.925540    0.521596   -1.288580
      9          6           0       -2.849003   -0.845526   -0.768447
     10          6           0        1.280465    0.117712    0.399603
     11          6           0        1.772405    1.276236   -0.243186
     12          6           0        3.036995    1.258803   -0.816771
     13          7           0        3.865184    0.204493   -0.821612
     14          6           0        3.394654   -0.892235   -0.214103
     15          6           0        2.149572   -0.994764    0.395620
     16          1           0       -1.592892   -2.270101   -1.824365
     17          1           0       -0.788915   -0.770897   -1.443668
     18          1           0       -1.495037   -2.972306    0.572418
     19          1           0        0.081566   -2.662684   -0.130223
     20          1           0        0.072570   -1.727710    2.107988
     21          1           0       -1.494810   -0.983892    1.873328
     22          1           0        0.050361    2.107414    1.340717
     23          1           0       -0.741230    1.166106    2.584203
     24          1           0       -2.295280    2.578373    1.208374
     25          1           0       -2.748001    0.894213    1.274109
     26          1           0       -1.003219    1.278923   -1.040322
     27          1           0       -2.279879    2.472434   -1.108852
     28          1           0       -3.882031    0.853310   -1.182923
     29          1           0       -3.645683   -1.412232   -1.262884
     30          1           0       -3.072219   -0.906532    0.312645
     31          1           0        1.172691    2.174924   -0.324751
     32          1           0        3.404043    2.155011   -1.315288
     33          1           0        4.060336   -1.754507   -0.204826
     34          1           0        1.876544   -1.923594    0.879382
 ---------------------------------------------------------------------

 SCF Done:  E(UB3LYP) =  -633.173122800     A.U. after   33 cycles
 SCF Done:  E(UB3LYP) =  -633.173122800     a.u. after    1 cycles

 The electronic state is 2-A.
 Alpha  occ. eigenvalues --  -14.24012 -14.20099 -14.19580 -10.13247 -10.10834
 Alpha  occ. eigenvalues --  -10.10818 -10.10782 -10.10742 -10.08920 -10.08875
 Alpha  occ. eigenvalues --  -10.07883 -10.07781 -10.07279 -10.06567 -10.06566
 Alpha  occ. eigenvalues --   -0.86429  -0.83693  -0.80214  -0.70581  -0.70090
 Alpha  occ. eigenvalues --   -0.66453  -0.65142  -0.62569  -0.57784  -0.54751
 Alpha  occ. eigenvalues --   -0.52835  -0.52250  -0.47917  -0.46907  -0.43374
 Alpha  occ. eigenvalues --   -0.40593  -0.40223  -0.38424  -0.37632  -0.37165
 Alpha  occ. eigenvalues --   -0.35681  -0.35107  -0.33567  -0.32833  -0.32076
 Alpha  occ. eigenvalues --   -0.31313  -0.30229  -0.29785  -0.28240  -0.27977
 Alpha  occ. eigenvalues --   -0.26431  -0.25495  -0.24701  -0.23579  -0.23398
 Alpha  occ. eigenvalues --   -0.22343  -0.21544  -0.16919  -0.16376  -0.12729
 Alpha  occ. eigenvalues --   -0.11537   0.04153
 Alpha virt. eigenvalues --    0.06366   0.06888   0.07328   0.07552   0.07788
 Alpha virt. eigenvalues --    0.08431   0.08956   0.09068   0.09551   0.10401
 Alpha virt. eigenvalues --    0.10842   0.11644   0.11908   0.12654   0.13127

  Beta  occ. eigenvalues --  -14.24025 -14.20053 -14.19567 -10.13212 -10.10830
  Beta  occ. eigenvalues --  -10.10809 -10.10761 -10.10716 -10.08909 -10.08849
  Beta  occ. eigenvalues --  -10.07873 -10.07773 -10.07263 -10.06563 -10.06530
  Beta  occ. eigenvalues --   -0.86408  -0.83637  -0.80182  -0.70528  -0.70052
  Beta  occ. eigenvalues --   -0.66417  -0.65102  -0.62529  -0.57733  -0.54704
  Beta  occ. eigenvalues --   -0.52795  -0.52197  -0.47864  -0.46853  -0.43340
  Beta  occ. eigenvalues --   -0.40539  -0.40182  -0.38391  -0.37597  -0.37118
  Beta  occ. eigenvalues --   -0.35644  -0.35078  -0.33537  -0.32810  -0.32022
  Beta  occ. eigenvalues --   -0.31275  -0.30182  -0.29700  -0.28203  -0.27932
  Beta  occ. eigenvalues --   -0.26403  -0.25441  -0.24660  -0.23540  -0.23364
  Beta  occ. eigenvalues --   -0.22311  -0.21400  -0.16839  -0.16319  -0.12698
  Beta  occ. eigenvalues --   -0.11495
  Beta virt. eigenvalues --    0.06493   0.07260   0.07448   0.07606   0.08009
  Beta virt. eigenvalues --    0.08099   0.08748   0.09376   0.09655   0.10100
  Beta virt. eigenvalues --    0.10723   0.11217   0.12008   0.12375   0.12969

 Mulliken charges and spin densities:
               1          2
     1  C   -0.285721   0.116100
     2  C   -0.482407   0.116560
     3  C    0.839218  -1.040032
     4  N    0.285906  -0.051957
     5  C   -0.609397   0.315134
     6  C    1.389483  -1.602176
     7  C   -0.083932  -0.373929
     8  N   -0.181077   0.128671
     9  C    1.009027  -1.471554
    10  C   -0.524781  -0.152336
    11  C    0.638286  -0.078052
    12  C   -0.213913  -0.500129
    13  N   -0.125253   0.035302
    14  C   -0.186073  -0.522900
    15  C   -0.394494   0.933831
    16  H   -0.043045   0.224393
    17  H    0.195903  -0.040770
    18  H   -0.352890   0.529731
    19  H   -0.035356   0.120900
    20  H   -0.116550   0.297850
    21  H   -0.256839   0.400043
    22  H   -0.041697   0.160938
    23  H   -0.552637   0.749594
    24  H   -0.798363   0.994568
    25  H    0.185324  -0.028086
    26  H    0.190001  -0.058887
    27  H   -0.227873   0.404935
    28  H   -0.004866   0.249193
    29  H   -0.179041   0.339996
    30  H   -0.175900   0.296974
    31  H    0.043881   0.131476
    32  H    0.096989   0.055531
    33  H    0.077031   0.075296
    34  H   -0.078944   0.243792
 Sum of Mulliken charges =  -1.00000   1.00000

 Dipole moment (field-independent basis, Debye):
    X=              4.0393    Y=             -0.9788    Z=             -1.9021  Tot=              4.5707
 Quadrupole moment (field-independent basis, Debye-Ang):
   XX=           -166.5829   YY=           -137.8081   ZZ=           -136.1468
   XY=              3.3258   XZ=              7.0696   YZ=             -2.0315

 Summary of Natural Population Analysis:

                                       Natural Population
                Natural  -----------------------------------------------
    Atom  No    Charge         Core      Valence    Rydberg      Total
 -----------------------------------------------------------------------
      C    1   -0.19893      0.99962     2.19046    0.00886     3.19893
      C    2   -0.19378      0.99962     2.18565    0.00852     3.19378
      C    3   -0.08617      0.99960     2.07444    0.01213     3.08617
      N    4   -0.25904      0.99964     2.74528    0.01412     3.75904
      C    5   -0.07581      0.99959     2.06497    0.01125     3.07581
      C    6   -0.21128      0.99962     2.20221    0.00945     3.21128
      C    7   -0.09366      0.99961     2.08162    0.01242     3.09366
      N    8   -0.33533      0.99975     2.82374    0.01184     3.83533
      C    9   -0.08983      0.99961     2.07884    0.01138     3.08983
      C   10    0.12138      0.99948     1.86857    0.01056     2.87862
      C   11   -0.15143      0.99952     2.14301    0.00890     3.15143
      C   12    0.02929      0.99960     1.95692    0.01419     2.97071
      N   13   -0.25335      0.99972     2.74095    0.01268     3.75335
      C   14    0.03134      0.99960     1.95491    0.01416     2.96866
      C   15   -0.15356      0.99952     2.14495    0.00909     3.15356
      H   16    0.09918      0.00000     0.39994    0.00089     0.40082
      H   17    0.10310      0.00000     0.39532    0.00158     0.39690
      H   18    0.09975      0.00000     0.39897    0.00128     0.40025
      H   19    0.09799      0.00000     0.40077    0.00124     0.40201
      H   20    0.09538      0.00000     0.40306    0.00157     0.40462
      H   21    0.10416      0.00000     0.39383    0.00201     0.39584
      H   22    0.09830      0.00000     0.40004    0.00166     0.40170
      H   23    0.09729      0.00000     0.40122    0.00149     0.40271
      H   24    0.10498      0.00000     0.39212    0.00290     0.39502
      H   25    0.09967      0.00000     0.39808    0.00226     0.40033
      H   26    0.09103      0.00000     0.40677    0.00221     0.40897
      H   27    0.09701      0.00000     0.40193    0.00105     0.40299
      H   28    0.17285      0.00000     0.32451    0.00264     0.32715
      H   29    0.09562      0.00000     0.40312    0.00126     0.40438
      H   30    0.07717      0.00000     0.42047    0.00236     0.42283
      H   31    0.10576      0.00000     0.39308    0.00116     0.39424
      H   32    0.08730      0.00000     0.41144    0.00126     0.41270
      H   33    0.08697      0.00000     0.41173    0.00131     0.41303
      H   34    0.10668      0.00000     0.39210    0.00122     0.39332
 =======================================================================
   * Total *    0.00000     14.99409    40.80502    0.20089    56.00000

 Normal termination of Gaussian 16 at Thu Dec 10 16:01:11 2020.
