 Gaussian 16, Revision A.03,

 -----------------------------------------------------------
 # opt freq B3LYP/6-31G(d) empiricaldispersion=gd3bj scf=xqc
 -----------------------------------------------------------

 -------------------------------
 CID_151737413_JID_3370_neutraal
 -------------------------------
 Symbolic Z-matrix:
 Charge =  0 Multiplicity = 1

 SCF Done:  E(RB3LYP) =  -576.804817936     A.U. after   15 cycles
 SCF Done:  E(RB3LYP) =  -576.808012954     A.U. after   13 cycles
 SCF Done:  E(RB3LYP) =  -576.807869022     A.U. after   13 cycles
 SCF Done:  E(RB3LYP) =  -576.809302761     A.U. after   12 cycles
 SCF Done:  E(RB3LYP) =  -576.810247375     A.U. after   12 cycles
 SCF Done:  E(RB3LYP) =  -576.810324257     A.U. after   12 cycles
 SCF Done:  E(RB3LYP) =  -576.811029189     A.U. after   12 cycles
 SCF Done:  E(RB3LYP) =  -576.811093196     A.U. after   11 cycles
 SCF Done:  E(RB3LYP) =  -576.811112894     A.U. after   10 cycles
 SCF Done:  E(RB3LYP) =  -576.811113128     A.U. after    9 cycles
 SCF Done:  E(RB3LYP) =  -576.811113041     A.U. after    8 cycles
 SCF Done:  E(RB3LYP) =  -576.811112768     A.U. after    8 cycles
 SCF Done:  E(RB3LYP) =  -576.811112673     A.U. after    7 cycles
 SCF Done:  E(RB3LYP) =  -576.811113555     A.U. after    8 cycles
 SCF Done:  E(RB3LYP) =  -576.811112665     A.U. after    8 cycles
 Optimization completed.
    -- Stationary point found.
 Normal termination of Gaussian 16 at Wed Dec  9 23:03:09 2020.

 --------------------------------------------------------------------
 #N Geom=AllCheck Guess=TCheck SCRF=Check GenChk RB3LYP/6-31G(d) Freq
 --------------------------------------------------------------------

 Structure from the checkpoint file:  "JID_3370.chk"
 -------------------------------
 CID_151737413_JID_3370_neutraal
 -------------------------------
 Charge =  0 Multiplicity = 1

 SCF Done:  E(RB3LYP) =  -576.811112665     A.U. after    1 cycles

  Exact polarizability: 144.564   0.044 102.203 -12.158  13.927  96.056
 Approx polarizability: 195.785   1.435 171.602 -22.962  39.544 153.621

                      1                      2                      3
                      A                      A                      A
 Frequencies --     39.4843                85.2911               101.2257
 Red. masses --      4.1862                 3.5088                 2.8030
 Frc consts  --      0.0038                 0.0150                 0.0169
 IR Inten    --      1.3631                 0.3025                 0.6447

                      4                      5                      6
                      A                      A                      A
 Frequencies --    114.9725               131.6793               140.2793
 Red. masses --      3.7445                 3.7754                 3.2746
 Frc consts  --      0.0292                 0.0386                 0.0380
 IR Inten    --      0.1938                 1.9317                 1.7237

                      7                      8                      9
                      A                      A                      A
 Frequencies --    209.9434               219.8592               272.6276
 Red. masses --      3.2904                 2.4407                 3.8062
 Frc consts  --      0.0854                 0.0695                 0.1667
 IR Inten    --      0.6465                 0.5968                 5.8274

                     10                     11                     12
                      A                      A                      A
 Frequencies --    319.6786               352.8907               375.0470
 Red. masses --      3.0565                 2.4240                 3.1455
 Frc consts  --      0.1840                 0.1779                 0.2607
 IR Inten    --      1.8296                 2.1458                 1.2648

                     13                     14                     15
                      A                      A                      A
 Frequencies --    422.1263               499.0164               525.9110
 Red. masses --      3.7183                 1.8449                 2.7513
 Frc consts  --      0.3904                 0.2707                 0.4483
 IR Inten    --      2.6479                 0.9447                 1.4891

                     16                     17                     18
                      A                      A                      A
 Frequencies --    553.9255               562.5561               576.4450
 Red. masses --      2.5562                 4.2076                 4.6961
 Frc consts  --      0.4621                 0.7845                 0.9194
 IR Inten    --      2.9014                 1.9621                 6.1626

                     19                     20                     21
                      A                      A                      A
 Frequencies --    635.5280               678.7462               721.1476
 Red. masses --      2.8543                 1.8361                 1.7136
 Frc consts  --      0.6792                 0.4984                 0.5251
 IR Inten    --      9.8405                28.6230                28.7488

                     22                     23                     24
                      A                      A                      A
 Frequencies --    767.1405               787.6365               819.0208
 Red. masses --      3.2464                 1.4753                 4.0578
 Frc consts  --      1.1257                 0.5392                 1.6037
 IR Inten    --      5.5850                 7.4299                20.3849

                     25                     26                     27
                      A                      A                      A
 Frequencies --    869.4493               899.2472               941.7558
 Red. masses --      2.5344                 5.2145                 1.3902
 Frc consts  --      1.1288                 2.4844                 0.7264
 IR Inten    --     11.0261                 6.0594                22.7995

                     28                     29                     30
                      A                      A                      A
 Frequencies --    949.9793               972.2608               979.7007
 Red. masses --      3.1042                 1.6549                 1.6842
 Frc consts  --      1.6506                 0.9217                 0.9524
 IR Inten    --      1.6383                 4.0664                 2.9815

                     31                     32                     33
                      A                      A                      A
 Frequencies --    987.8272               989.9351              1006.0484
 Red. masses --      1.3262                 1.3690                 2.0098
 Frc consts  --      0.7624                 0.7904                 1.1985
 IR Inten    --      3.9880                22.5968                10.9777

                     34                     35                     36
                      A                      A                      A
 Frequencies --   1013.3514              1032.5352              1036.1704
 Red. masses --      2.0552                 1.1041                 1.0767
 Frc consts  --      1.2434                 0.6935                 0.6811
 IR Inten    --     10.0545                 8.6938                17.1187

                     37                     38                     39
                      A                      A                      A
 Frequencies --   1070.2878              1088.5648              1139.2994
 Red. masses --      1.7750                 2.8543                 1.6166
 Frc consts  --      1.1980                 1.9927                 1.2363
 IR Inten    --    109.5768                42.0278                44.0215

                     40                     41                     42
                      A                      A                      A
 Frequencies --   1156.8370              1213.1117              1244.2554
 Red. masses --      2.1524                 1.1239                 1.5364
 Frc consts  --      1.6971                 0.9745                 1.4014
 IR Inten    --     67.0549                 9.2275                11.3909

                     43                     44                     45
                      A                      A                      A
 Frequencies --   1284.0528              1306.9068              1321.7333
 Red. masses --      1.7223                 3.5107                 1.3184
 Frc consts  --      1.6731                 3.5329                 1.3570
 IR Inten    --     42.4446               314.7332                 1.8188

                     46                     47                     48
                      A                      A                      A
 Frequencies --   1335.1181              1360.4642              1402.9489
 Red. masses --      1.3472                 1.5293                 1.5422
 Frc consts  --      1.4149                 1.6677                 1.7884
 IR Inten    --     23.7576                11.2697                 4.6052

                     49                     50                     51
                      A                      A                      A
 Frequencies --   1451.5629              1457.8549              1466.5009
 Red. masses --      1.6891                 1.2545                 1.2036
 Frc consts  --      2.0969                 1.5709                 1.5251
 IR Inten    --      2.3592                32.6540                 6.7279

                     52                     53                     54
                      A                      A                      A
 Frequencies --   1500.5933              1663.8305              1705.9177
 Red. masses --      1.0915                 7.8475                 4.5902
 Frc consts  --      1.4481                12.7998                 7.8704
 IR Inten    --      5.6253                 2.0383                13.4995

                     55                     56                     57
                      A                      A                      A
 Frequencies --   1726.5220              1728.6544              1808.8006
 Red. masses --      4.7485                 5.5208                10.9174
 Frc consts  --      8.3397                 9.7201                21.0451
 IR Inten    --      3.7434                 1.2550               194.0010

                     58                     59                     60
                      A                      A                      A
 Frequencies --   3012.9446              3147.7750              3169.2255
 Red. masses --      1.0733                 1.0884                 1.0620
 Frc consts  --      5.7403                 6.3543                 6.2846
 IR Inten    --     18.7769                 0.8500                 7.9031

                     61                     62                     63
                      A                      A                      A
 Frequencies --   3178.9801              3179.3998              3180.8609
 Red. masses --      1.0590                 1.0845                 1.0877
 Frc consts  --      6.3056                 6.4589                 6.4839
 IR Inten    --      6.4038                 0.7376                 5.1006

                     64                     65                     66
                      A                      A                      A
 Frequencies --   3187.8264              3203.5645              3212.9895
 Red. masses --      1.0874                 1.0965                 1.0947
 Frc consts  --      6.5107                 6.6299                 6.6585
 IR Inten    --     14.8521                37.8847                10.9958

                     67                     68                     69
                      A                      A                      A
 Frequencies --   3213.1054              3251.7230              3268.7516
 Red. masses --      1.0971                 1.1163                 1.1159
 Frc consts  --      6.6733                 6.9546                 7.0250
 IR Inten    --      6.1097                13.5464                 7.4640

 - Thermochemistry -
 -------------------
 Temperature   298.150 Kelvin.  Pressure   1.00000 Atm.
 Atom     1 has atomic number  6 and mass  12.00000

 Molecular mass:   176.08373 amu.
 Principal axes and moments of inertia in atomic units:
                           1         2         3
     Eigenvalues --  1228.372303354.710713384.42726
           X            0.99987  -0.01325  -0.00966
           Y            0.01263   0.99802  -0.06163
           Z            0.01046   0.06150   0.99805
 This molecule is an asymmetric top.
 Rotational symmetry number  1.
 Warning -- assumption of classical behavior for rotation
           may cause significant error
 Rotational temperatures (Kelvin)      0.07051     0.02582     0.02559
 Rotational constants (GHZ):           1.46921     0.53797     0.53325
 Zero-point vibrational energy     533722.3 (Joules/Mol)
                                  127.56269 (Kcal/Mol)
 Warning -- explicit consideration of  18 degrees of freedom as
           vibrations may cause significant error
 Vibrational temperatures:     56.81   122.71   145.64   165.42   189.46
          (Kelvin)            201.83   302.06   316.33   392.25   459.95
                              507.73   539.61   607.35   717.97   756.67
                              796.98   809.39   829.38   914.38   976.56
                             1037.57  1103.74  1133.23  1178.39  1250.94
                             1293.82  1354.98  1366.81  1398.87  1409.57
                             1421.26  1424.30  1447.48  1457.99  1485.59
                             1490.82  1539.91  1566.20  1639.20  1664.43
                             1745.40  1790.21  1847.47  1880.35  1901.68
                             1920.94  1957.40  2018.53  2088.48  2097.53
                             2109.97  2159.02  2393.88  2454.44  2484.08
                             2487.15  2602.46  4334.96  4528.95  4559.81
                             4573.84  4574.45  4576.55  4586.57  4609.21
                             4622.78  4622.94  4678.50  4703.00

 Zero-point correction=                           0.203284 (Hartree/Particle)
 Thermal correction to Energy=                    0.215719
 Thermal correction to Enthalpy=                  0.216663
 Thermal correction to Gibbs Free Energy=         0.164371
 Sum of electronic and zero-point Energies=           -576.607829
 Sum of electronic and thermal Energies=              -576.595394
 Sum of electronic and thermal Enthalpies=            -576.594450
 Sum of electronic and thermal Free Energies=         -576.646742

                     E (Thermal)             CV                S
                      KCal/Mol        Cal/Mol-Kelvin    Cal/Mol-Kelvin
 Total                  135.365             47.200            110.057
 Electronic               0.000              0.000              0.000
 Translational            0.889              2.981             41.405
 Rotational               0.889              2.981             31.012
 Vibrational            133.588             41.238             37.641
 Vibration     1          0.594              1.981              5.285
 Vibration     2          0.601              1.959              3.765
 Vibration     3          0.604              1.948              3.431
 Vibration     4          0.608              1.937              3.183
 Vibration     5          0.612              1.922              2.921
 Vibration     6          0.615              1.913              2.800
 Vibration     7          0.642              1.826              2.044
 Vibration     8          0.647              1.811              1.960
 Vibration     9          0.676              1.724              1.579
 Vibration    10          0.706              1.636              1.312
 Vibration    11          0.729              1.569              1.153
 Vibration    12          0.746              1.523              1.059
 Vibration    13          0.784              1.422              0.885
 Vibration    14          0.854              1.252              0.661
 Vibration    15          0.881              1.193              0.596
 Vibration    16          0.909              1.131              0.536
 Vibration    17          0.918              1.112              0.519
 Vibration    18          0.933              1.082              0.492

 Optimization completed.
    -- Stationary point found.
 Normal termination of Gaussian 16 at Wed Dec  9 23:09:54 2020.

 ----------------------------------------------------------------------
 # B3LYP/6-311++G(d,p) empiricaldispersion=gd3bj scf=xqc pop=npa geom=c
 heck
 ----------------------------------------------------------------------

 ---------------------------------------
 CID_151737413_JID_3370_Energie_neutraal
 ---------------------------------------
 Structure from the checkpoint file:  "JID_3370.chk"
 Charge =  0 Multiplicity = 1

 SCF Done:  E(RB3LYP) =  -576.975236964     A.U. after   15 cycles
 Normal termination of Gaussian 16 at Wed Dec  9 23:12:53 2020.

 ----------------------------------------------------------------------
 # B3LYP/6-311++G(d,p) empiricaldispersion=gd3bj scf=xqc pop=npa geom=c
 heck
 ----------------------------------------------------------------------

 -------------------------------------
 CID_151737413_JID_3370_Energie_kation
 -------------------------------------
 Structure from the checkpoint file:  "JID_3370.chk"
 Charge =  1 Multiplicity = 2

 SCF Done:  E(UB3LYP) =  -576.675066594     A.U. after   23 cycles
 Normal termination of Gaussian 16 at Wed Dec  9 23:19:30 2020.
 Gaussian 16:  ES64L-G16RevA.03 25-Dec-2016

 ----------------------------------------------------------------------
 # B3LYP/6-311++G(d,p) empiricaldispersion=gd3bj scf=xqc pop=npa geom=c
 heck
 ----------------------------------------------------------------------

 ------------------------------------
 CID_151737413_JID_3370_Energie_anion
 ------------------------------------
 Structure from the checkpoint file:  "JID_3370.chk"
 Charge = -1 Multiplicity = 2

                         Standard orientation:
 ---------------------------------------------------------------------
 Center     Atomic      Atomic             Coordinates (Angstroms)
 Number     Number       Type             X           Y           Z
 ---------------------------------------------------------------------
      1          6           0        3.407229   -1.528397   -0.164285
      2          6           0        3.157601   -0.379675    0.468371
      3          6           0        1.822656    0.263190    0.556734
      4          8           0        1.640353    1.325415    1.114938
      5          8           0        0.864001   -0.475630   -0.052299
      6          6           0       -0.492506    0.035458   -0.163788
      7          6           0       -1.088838    0.356272    1.222849
      8          6           0       -2.596511    0.315406    1.236545
      9          6           0       -3.281671   -0.456827    0.379850
     10          6           0       -2.569546   -1.266258   -0.610981
     11          6           0       -1.260779   -1.085739   -0.838820
     12          6           0       -0.550568    1.217952   -1.108223
     13          6           0        0.392513    1.566378   -1.979996
     14          1           0        2.617161   -2.080961   -0.661796
     15          1           0        4.409237   -1.946201   -0.198799
     16          1           0        3.939606    0.182794    0.969673
     17          1           0       -0.711245   -0.396897    1.932554
     18          1           0       -0.709612    1.320212    1.563939
     19          1           0       -3.108370    0.883232    2.009054
     20          1           0       -4.365600   -0.518160    0.424243
     21          1           0       -3.122790   -2.017518   -1.168531
     22          1           0       -0.714576   -1.648622   -1.589571
     23          1           0       -1.497422    1.753324   -1.071315
     24          1           0        0.251443    2.404544   -2.655619
     25          1           0        1.339868    1.039411   -2.044477
 ---------------------------------------------------------------------

 SCF Done:  E(UB3LYP) =  -576.978268325     A.U. after   27 cycles

 The electronic state is 2-A.
 Alpha  occ. eigenvalues --  -19.00679 -18.94047 -10.12892 -10.10734 -10.04645
 Alpha  occ. eigenvalues --  -10.03400 -10.03378 -10.03055 -10.02979 -10.02754
 Alpha  occ. eigenvalues --  -10.02533 -10.02372 -10.01932  -0.94527  -0.86077
 Alpha  occ. eigenvalues --   -0.71208  -0.65416  -0.63227  -0.60988  -0.59385
 Alpha  occ. eigenvalues --   -0.51365  -0.48093  -0.46636  -0.44435  -0.39746
 Alpha  occ. eigenvalues --   -0.36819  -0.36177  -0.34494  -0.32865  -0.32597
 Alpha  occ. eigenvalues --   -0.30650  -0.29096  -0.28727  -0.27938  -0.27062
 Alpha  occ. eigenvalues --   -0.25875  -0.24503  -0.23042  -0.22199  -0.21240
 Alpha  occ. eigenvalues --   -0.19074  -0.18108  -0.15727  -0.14256  -0.13472
 Alpha  occ. eigenvalues --   -0.11470  -0.08765   0.05325
 Alpha virt. eigenvalues --    0.07741   0.08739   0.09664   0.10067   0.10306
 Alpha virt. eigenvalues --    0.11451   0.12123   0.12688   0.12926   0.13355
 Alpha virt. eigenvalues --    0.13633   0.14907   0.15224   0.15960   0.17499

  Beta  occ. eigenvalues --  -19.00647 -18.93780 -10.12715 -10.10746 -10.04619
  Beta  occ. eigenvalues --  -10.03371 -10.03354 -10.03016 -10.02906 -10.02527
  Beta  occ. eigenvalues --  -10.02320 -10.02281 -10.01620  -0.94314  -0.85700
  Beta  occ. eigenvalues --   -0.70947  -0.65183  -0.62799  -0.60632  -0.59165
  Beta  occ. eigenvalues --   -0.51091  -0.47646  -0.46195  -0.44043  -0.39550
  Beta  occ. eigenvalues --   -0.36696  -0.35976  -0.34316  -0.32644  -0.32334
  Beta  occ. eigenvalues --   -0.30451  -0.28862  -0.28425  -0.27730  -0.26510
  Beta  occ. eigenvalues --   -0.25704  -0.24260  -0.22848  -0.21961  -0.21002
  Beta  occ. eigenvalues --   -0.18682  -0.17492  -0.15054  -0.13692  -0.12143
  Beta  occ. eigenvalues --   -0.11203  -0.07692
  Beta virt. eigenvalues --    0.08677   0.09523   0.09752   0.09974   0.10276
  Beta virt. eigenvalues --    0.10659   0.11394   0.12093   0.12641   0.13302
  Beta virt. eigenvalues --    0.13334   0.13578   0.14852   0.15204   0.15952

 Mulliken charges and spin densities:
               1          2
     1  C   -0.680100   0.344390
     2  C   -0.020055   0.028010
     3  C   -0.106886   0.117818
     4  O   -0.288678   0.085262
     5  O    0.095427  -0.003908
     6  C    0.438743  -0.030954
     7  C   -0.715679  -0.029678
     8  C   -0.109311   0.203450
     9  C   -0.350208   0.024373
    10  C   -0.114229   0.071060
    11  C   -0.248922   0.178621
    12  C    0.057673   0.011833
    13  C   -0.532849   0.034251
    14  H    0.102493  -0.013626
    15  H    0.093092  -0.014573
    16  H    0.148661  -0.007230
    17  H    0.151232   0.006955
    18  H    0.190626   0.002764
    19  H    0.131887  -0.010855
    20  H    0.096570  -0.000109
    21  H    0.114165  -0.000372
    22  H    0.150375  -0.012346
    23  H    0.167283   0.013934
    24  H    0.112107  -0.005923
    25  H    0.116585   0.006853
 Sum of Mulliken charges =  -1.00000   1.00000

 Dipole moment (field-independent basis, Debye):
    X=             -2.1592    Y=              0.1098    Z=             -1.1827  Tot=              2.4643
 Quadrupole moment (field-independent basis, Debye-Ang):
   XX=           -111.2696   YY=            -94.6897   ZZ=            -90.3568
   XY=             -1.1585   XZ=             -2.1099   YZ=             -1.0191

 Summary of Natural Population Analysis:

                                       Natural Population
                Natural  -----------------------------------------------
    Atom  No    Charge         Core      Valence    Rydberg      Total
 -----------------------------------------------------------------------
      C    1   -0.10816      0.99960     2.10089    0.00768     3.10816
      C    2   -0.13892      0.99953     2.12910    0.01029     3.13892
      C    3    0.40546      0.99965     1.57068    0.02421     2.59454
      O    4   -0.29323      0.99987     3.28792    0.00544     4.29323
      O    5   -0.29425      0.99985     3.28310    0.01130     4.29425
      C    6    0.10952      0.99944     1.87388    0.01716     2.89048
      C    7   -0.21832      0.99958     2.20980    0.00893     3.21832
      C    8   -0.04357      0.99955     2.03437    0.00965     3.04357
      C    9   -0.12339      0.99953     2.11380    0.01005     3.12339
      C   10   -0.11116      0.99953     2.10212    0.00951     3.11116
      C   11   -0.04437      0.99950     2.03440    0.01048     3.04437
      C   12   -0.08185      0.99952     2.07226    0.01006     3.08185
      C   13   -0.18951      0.99957     2.18323    0.00671     3.18951
      H   14    0.09277      0.00000     0.40624    0.00099     0.40723
      H   15    0.07867      0.00000     0.42019    0.00115     0.42133
      H   16    0.09095      0.00000     0.40753    0.00153     0.40905
      H   17    0.11017      0.00000     0.38872    0.00110     0.38983
      H   18    0.11775      0.00000     0.38115    0.00110     0.38225
      H   19    0.08634      0.00000     0.41256    0.00110     0.41366
      H   20    0.08981      0.00000     0.40907    0.00112     0.41019
      H   21    0.09017      0.00000     0.40801    0.00183     0.40983
      H   22    0.09711      0.00000     0.40191    0.00098     0.40289
      H   23    0.09652      0.00000     0.40206    0.00142     0.40348
      H   24    0.08557      0.00000     0.41313    0.00131     0.41443
      H   25    0.09593      0.00000     0.40290    0.00116     0.40407
 =======================================================================
   * Total *   -0.00000     12.99472    33.84902    0.15626    47.00000

 Normal termination of Gaussian 16 at Wed Dec  9 23:27:07 2020.
