 Gaussian 16, Revision A.03,

 -----------------------------------------------------------
 # opt freq B3LYP/6-31G(d) empiricaldispersion=gd3bj scf=xqc
 -----------------------------------------------------------

 -------------------------------
 CID_106246104_JID_7453_neutraal
 -------------------------------
 Symbolic Z-matrix:
 Charge =  0 Multiplicity = 1

 SCF Done:  E(RB3LYP) =  -1121.27815601     A.U. after   15 cycles
 SCF Done:  E(RB3LYP) =  -1121.28427144     A.U. after   13 cycles
 SCF Done:  E(RB3LYP) =  -1121.28425383     A.U. after   13 cycles
 SCF Done:  E(RB3LYP) =  -1121.28657924     A.U. after   13 cycles
 SCF Done:  E(RB3LYP) =  -1121.28725790     A.U. after   12 cycles
 SCF Done:  E(RB3LYP) =  -1121.28540957     A.U. after   14 cycles
 SCF Done:  E(RB3LYP) =  -1121.28731544     A.U. after   12 cycles
 SCF Done:  E(RB3LYP) =  -1121.28764707     A.U. after   12 cycles
 SCF Done:  E(RB3LYP) =  -1121.28763536     A.U. after   12 cycles
 SCF Done:  E(RB3LYP) =  -1121.28767934     A.U. after   11 cycles
 SCF Done:  E(RB3LYP) =  -1121.28768780     A.U. after   10 cycles
 SCF Done:  E(RB3LYP) =  -1121.28768988     A.U. after    9 cycles
 SCF Done:  E(RB3LYP) =  -1121.28769010     A.U. after    8 cycles
 Optimization completed.
    -- Stationary point found.
 Normal termination of Gaussian 16 at Sun Dec 13 20:09:53 2020.

 --------------------------------------------------------------------
 #N Geom=AllCheck Guess=TCheck SCRF=Check GenChk RB3LYP/6-31G(d) Freq
 --------------------------------------------------------------------

 Structure from the checkpoint file:  "JID_7453.chk"
 -------------------------------
 CID_106246104_JID_7453_neutraal
 -------------------------------
 Charge =  0 Multiplicity = 1

 SCF Done:  E(RB3LYP) =  -1121.28769010     A.U. after    1 cycles

  Exact polarizability: 186.586   0.270 187.566 -14.727  -4.752 105.545
 Approx polarizability: 255.536  -0.878 304.328 -29.910 -15.148 170.297

 ******    1 imaginary frequencies (negative Signs) ******

                      1                      2                      3
                      A                      A                      A
 Frequencies --    -26.2932                31.2721                33.1850
 Red. masses --      1.0229                 7.2251                 6.5140
 Frc consts  --      0.0004                 0.0042                 0.0042
 IR Inten    --      0.3871                 0.9682                 2.6373

                      4                      5                      6
                      A                      A                      A
 Frequencies --     51.7714                79.5051               112.2219
 Red. masses --      4.3016                 4.0896                 4.5501
 Frc consts  --      0.0068                 0.0152                 0.0338
 IR Inten    --      2.0447                 1.9246                 1.3026

                      7                      8                      9
                      A                      A                      A
 Frequencies --    124.1681               140.6421               166.4368
 Red. masses --      5.5264                 3.0776                 5.9981
 Frc consts  --      0.0502                 0.0359                 0.0979
 IR Inten    --      2.4817                 3.6447                 2.6141

                     10                     11                     12
                      A                      A                      A
 Frequencies --    189.1970               206.9635               216.0148
 Red. masses --      3.0022                 4.5430                 2.7487
 Frc consts  --      0.0633                 0.1147                 0.0756
 IR Inten    --      0.1090                 3.2362                 1.3103

                     13                     14                     15
                      A                      A                      A
 Frequencies --    224.9215               248.0310               261.7240
 Red. masses --      2.0102                 1.7193                 1.2531
 Frc consts  --      0.0599                 0.0623                 0.0506
 IR Inten    --      2.2017                 0.6382                 0.8580

                     16                     17                     18
                      A                      A                      A
 Frequencies --    297.0142               306.8747               342.0357
 Red. masses --      3.1194                 2.9780                 3.2867
 Frc consts  --      0.1621                 0.1652                 0.2265
 IR Inten    --      1.0341                 3.4109                 6.8782

                     19                     20                     21
                      A                      A                      A
 Frequencies --    369.1435               397.1684               402.6042
 Red. masses --      2.9123                 2.5635                 8.3157
 Frc consts  --      0.2338                 0.2383                 0.7942
 IR Inten    --      1.5333                 1.3038                11.3114

                     22                     23                     24
                      A                      A                      A
 Frequencies --    454.7663               473.7073               479.0267
 Red. masses --      1.5603                 2.1499                 4.3119
 Frc consts  --      0.1901                 0.2842                 0.5830
 IR Inten    --    158.9849                35.3481                 4.0647

                     25                     26                     27
                      A                      A                      A
 Frequencies --    504.7804               546.9133               558.4737
 Red. masses --      2.7668                 2.2902                 2.9549
 Frc consts  --      0.4154                 0.4036                 0.5430
 IR Inten    --     21.3072                87.8077                29.4613

                     28                     29                     30
                      A                      A                      A
 Frequencies --    588.8240               602.5741               636.6588
 Red. masses --      3.8870                 3.7708                 4.8090
 Frc consts  --      0.7940                 0.8067                 1.1485
 IR Inten    --      5.4088                 1.6918                11.6397

                     31                     32                     33
                      A                      A                      A
 Frequencies --    680.5243               693.2490               701.6784
 Red. masses --      3.0073                 4.5318                 5.7137
 Frc consts  --      0.8206                 1.2832                 1.6575
 IR Inten    --     13.2919                16.2259                 7.9435

                     34                     35                     36
                      A                      A                      A
 Frequencies --    750.3772               783.1268               805.9759
 Red. masses --      5.1695                 3.9442                 5.4506
 Frc consts  --      1.7150                 1.4252                 2.0861
 IR Inten    --     12.0308                10.0227                16.6715

                     37                     38                     39
                      A                      A                      A
 Frequencies --    841.9365               851.0457               918.2210
 Red. masses --      1.4431                 1.9836                 2.0259
 Frc consts  --      0.6027                 0.8465                 1.0064
 IR Inten    --     20.8464                 1.9611                 5.6118

                     40                     41                     42
                      A                      A                      A
 Frequencies --    938.6892               969.4893               980.2035
 Red. masses --      1.9911                 3.4061                 2.3590
 Frc consts  --      1.0337                 1.8862                 1.3354
 IR Inten    --      6.1748                 2.1345                 4.0318

                     43                     44                     45
                      A                      A                      A
 Frequencies --    987.6251              1005.2156              1011.9936
 Red. masses --      3.9898                 1.2528                 2.0654
 Frc consts  --      2.2929                 0.7458                 1.2462
 IR Inten    --      2.7302                 9.4677                 4.2429

                     46                     47                     48
                      A                      A                      A
 Frequencies --   1024.3575              1048.7766              1069.8399
 Red. masses --      1.3471                 2.6124                 1.6015
 Frc consts  --      0.8328                 1.6930                 1.0800
 IR Inten    --     15.7258                 7.5785                 6.4316

                     49                     50                     51
                      A                      A                      A
 Frequencies --   1129.0478              1146.7972              1172.9697
 Red. masses --      1.9928                 1.7076                 2.5547
 Frc consts  --      1.4967                 1.3232                 2.0709
 IR Inten    --     22.8422                20.1855                35.1099

                     52                     53                     54
                      A                      A                      A
 Frequencies --   1189.2362              1207.5474              1275.4031
 Red. masses --      1.5687                 2.7144                 2.2395
 Frc consts  --      1.3071                 2.3320                 2.1463
 IR Inten    --      7.5211                16.2296                 9.9927

                     55                     56                     57
                      A                      A                      A
 Frequencies --   1290.4283              1306.7132              1317.1453
 Red. masses --      2.3215                 1.2765                 1.5084
 Frc consts  --      2.2777                 1.2842                 1.5418
 IR Inten    --     12.8303                14.9778                38.3834

                     58                     59                     60
                      A                      A                      A
 Frequencies --   1370.2819              1386.8414              1392.5599
 Red. masses --      3.5180                 1.7141                 1.1980
 Frc consts  --      3.8919                 1.9424                 1.3688
 IR Inten    --     88.0801                 1.1661                19.0510

                     61                     62                     63
                      A                      A                      A
 Frequencies --   1413.3063              1425.3016              1435.4471
 Red. masses --      1.4588                 1.3265                 1.4466
 Frc consts  --      1.7168                 1.5877                 1.7562
 IR Inten    --     15.6684                30.5450                 8.2313

                     64                     65                     66
                      A                      A                      A
 Frequencies --   1453.9063              1481.3996              1487.9791
 Red. masses --      1.4632                 1.1191                 1.9827
 Frc consts  --      1.8223                 1.4470                 2.5865
 IR Inten    --     41.4346                15.6959                27.5081

                     67                     68                     69
                      A                      A                      A
 Frequencies --   1492.6735              1502.7441              1510.9016
 Red. masses --      1.1279                 1.1190                 1.0731
 Frc consts  --      1.4806                 1.4888                 1.4433
 IR Inten    --     11.9098                24.3955                 6.3285

                     70                     71                     72
                      A                      A                      A
 Frequencies --   1511.7481              1518.0959              1531.0456
 Red. masses --      1.1064                 1.1663                 1.0558
 Frc consts  --      1.4898                 1.5836                 1.4581
 IR Inten    --      5.3100                 1.6629                 0.8907

                     73                     74                     75
                      A                      A                      A
 Frequencies --   1536.8862              1595.6705              1609.8805
 Red. masses --      1.0601                 3.5685                 5.0867
 Frc consts  --      1.4752                 5.3533                 7.7674
 IR Inten    --     10.6602               191.1993               167.9475

                     76                     77                     78
                      A                      A                      A
 Frequencies --   1636.1677              2364.0983              3053.6084
 Red. masses --      6.9123                12.6887                 1.0370
 Frc consts  --     10.9026                41.7828                 5.6969
 IR Inten    --    717.4516                 1.2580                14.0684

                     79                     80                     81
                      A                      A                      A
 Frequencies --   3056.2121              3061.0177              3064.9571
 Red. masses --      1.0398                 1.0547                 1.0363
 Frc consts  --      5.7222                 5.8227                 5.7356
 IR Inten    --      8.7707                19.4644                17.3989

                     82                     83                     84
                      A                      A                      A
 Frequencies --   3081.8495              3113.5710              3117.7164
 Red. masses --      1.0724                 1.0987                 1.1048
 Frc consts  --      6.0013                 6.2753                 6.3272
 IR Inten    --     47.6119                10.2489                 6.9070

                     85                     86                     87
                      A                      A                      A
 Frequencies --   3120.9591              3140.5225              3151.3331
 Red. masses --      1.1022                 1.1022                 1.1038
 Frc consts  --      6.3252                 6.4048                 6.4582
 IR Inten    --     29.3127                21.2684                 5.4926

                     88                     89                     90
                      A                      A                      A
 Frequencies --   3167.1741              3169.3265              3193.1138
 Red. masses --      1.1012                 1.1073                 1.0908
 Frc consts  --      6.5080                 6.5529                 6.5527
 IR Inten    --      6.7123                 0.3238                 3.2591

                     91                     92                     93
                      A                      A                      A
 Frequencies --   3240.0419              3621.3244              3622.8986
 Red. masses --      1.0932                 1.0761                 1.0648
 Frc consts  --      6.7618                 8.3146                 8.2347
 IR Inten    --      0.1623                38.0450                63.4982

 - Thermochemistry -
 -------------------
 Temperature   298.150 Kelvin.  Pressure   1.00000 Atm.
 Atom     1 has atomic number  6 and mass  12.00000

 Molecular mass:   252.10448 amu.
 Principal axes and moments of inertia in atomic units:
                           1         2         3
     Eigenvalues --  3074.584185650.282337879.20069
           X            0.99991  -0.00010  -0.01334
           Y            0.00027   0.99992   0.01275
           Z            0.01334  -0.01275   0.99983
 This molecule is an asymmetric top.
 Rotational symmetry number  1.
 Warning -- assumption of classical behavior for rotation
           may cause significant error
 Rotational temperatures (Kelvin)      0.02817     0.01533     0.01099
 Rotational constants (GHZ):           0.58699     0.31941     0.22905
    1 imaginary frequencies ignored.
 Zero-point vibrational energy     704461.7 (Joules/Mol)
                                  168.37038 (Kcal/Mol)
 Warning -- explicit consideration of  28 degrees of freedom as
           vibrations may cause significant error
 Vibrational temperatures:     44.99    47.75    74.49   114.39   161.46
          (Kelvin)            178.65   202.35   239.47   272.21   297.77
                              310.80   323.61   356.86   376.56   427.34
                              441.52   492.11   531.12   571.44   579.26
                              654.31   681.56   689.21   726.27   786.89
                              803.52   847.19   866.97   916.01   979.12
                              997.43  1009.56  1079.63  1126.74  1159.62
                             1211.36  1224.46  1321.12  1350.56  1394.88
                             1410.29  1420.97  1446.28  1456.03  1473.82
                             1508.96  1539.26  1624.45  1649.99  1687.64
                             1711.05  1737.39  1835.02  1856.64  1880.07
                             1895.08  1971.53  1995.36  2003.58  2033.43
                             2050.69  2065.29  2091.85  2131.40  2140.87
                             2147.62  2162.11  2173.85  2175.07  2184.20
                             2202.83  2211.24  2295.81  2316.26  2354.08
                             3401.41  4393.46  4397.21  4404.12  4409.79
                             4434.09  4479.73  4485.70  4490.36  4518.51
                             4534.07  4556.86  4559.95  4594.18  4661.70
                             5210.28  5212.54

 Zero-point correction=                           0.268315 (Hartree/Particle)
 Thermal correction to Energy=                    0.285650
 Thermal correction to Enthalpy=                  0.286594
 Thermal correction to Gibbs Free Energy=         0.222577
 Sum of electronic and zero-point Energies=          -1121.019375
 Sum of electronic and thermal Energies=             -1121.002040
 Sum of electronic and thermal Enthalpies=           -1121.001096
 Sum of electronic and thermal Free Energies=        -1121.065113

                     E (Thermal)             CV                S
                      KCal/Mol        Cal/Mol-Kelvin    Cal/Mol-Kelvin
 Total                  179.248             65.105            134.736
 Electronic               0.000              0.000              0.000
 Translational            0.889              2.981             42.474
 Rotational               0.889              2.981             33.281
 Vibrational            177.470             59.143             58.980
 Vibration     1          0.594              1.983              5.747
 Vibration     2          0.594              1.983              5.629
 Vibration     3          0.596              1.977              4.749
 Vibration     4          0.600              1.963              3.903
 Vibration     5          0.607              1.939              3.230
 Vibration     6          0.610              1.929              3.034
 Vibration     7          0.615              1.913              2.795
 Vibration     8          0.624              1.884              2.475
 Vibration     9          0.633              1.855              2.236
 Vibration    10          0.641              1.830              2.070
 Vibration    11          0.645              1.817              1.992
 Vibration    12          0.650              1.803              1.919
 Vibration    13          0.662              1.766              1.745
 Vibration    14          0.669              1.743              1.650
 Vibration    15          0.691              1.679              1.434
 Vibration    16          0.697              1.661              1.379
 Vibration    17          0.721              1.591              1.203
 Vibration    18          0.741              1.536              1.083
 Vibration    19          0.764              1.476              0.973
 Vibration    20          0.768              1.465              0.953
 Vibration    21          0.813              1.350              0.781
 Vibration    22          0.830              1.308              0.727
 Vibration    23          0.835              1.297              0.713
 Vibration    24          0.860              1.239              0.646
 Vibration    25          0.902              1.146              0.551
 Vibration    26          0.914              1.121              0.527
 Vibration    27          0.946              1.056              0.469
 Vibration    28          0.961              1.026              0.445

                           ! Non-Optimized Parameters !
 Normal termination of Gaussian 16 at Sun Dec 13 20:22:31 2020.

 ----------------------------------------------------------------------
 # B3LYP/6-311++G(d,p) empiricaldispersion=gd3bj scf=xqc pop=npa geom=c
 heck
 ----------------------------------------------------------------------

 ---------------------------------------
 CID_106246104_JID_7453_Energie_neutraal
 ---------------------------------------
 Structure from the checkpoint file:  "JID_7453.chk"
 Charge =  0 Multiplicity = 1

 SCF Done:  E(RB3LYP) =  -1121.52172503     A.U. after   16 cycles
 Normal termination of Gaussian 16 at Sun Dec 13 20:29:17 2020.

 ----------------------------------------------------------------------
 # B3LYP/6-311++G(d,p) empiricaldispersion=gd3bj scf=xqc pop=npa geom=c
 heck
 ----------------------------------------------------------------------

 -------------------------------------
 CID_106246104_JID_7453_Energie_kation
 -------------------------------------
 Structure from the checkpoint file:  "JID_7453.chk"
 Charge =  1 Multiplicity = 2

 SCF Done:  E(UB3LYP) =  -1121.22670174     A.U. after   25 cycles
 Normal termination of Gaussian 16 at Sun Dec 13 20:44:10 2020.
 Gaussian 16:  ES64L-G16RevA.03 25-Dec-2016

 ----------------------------------------------------------------------
 # B3LYP/6-311++G(d,p) empiricaldispersion=gd3bj scf=xqc pop=npa geom=c
 heck
 ----------------------------------------------------------------------

 ------------------------------------
 CID_106246104_JID_7453_Energie_anion
 ------------------------------------
 Structure from the checkpoint file:  "JID_7453.chk"
 Charge = -1 Multiplicity = 2

                         Standard orientation:
 ---------------------------------------------------------------------
 Center     Atomic      Atomic             Coordinates (Angstroms)
 Number     Number       Type             X           Y           Z
 ---------------------------------------------------------------------
      1          6           0        4.610064   -1.319626   -0.498640
      2          6           0        3.299561   -0.662323   -0.164190
      3          6           0        3.128137    0.727460   -0.309633
      4          6           0        1.880300    1.228492    0.042530
      5          7           0        0.872345    0.468098    0.489616
      6          6           0        1.141756   -0.847727    0.587824
      7          7           0        2.319024   -1.443312    0.281027
      8          7           0        0.170077   -1.662746    1.076511
      9          6           0       -1.211084   -1.235498    1.156211
     10          6           0       -1.968100   -1.314330   -0.207612
     11          6           0       -2.429480   -2.750609   -0.461710
     12          6           0       -3.196801   -0.370433   -0.174007
     13         16           0       -2.864294    1.386834   -0.589620
     14          6           0       -2.212704    2.102404    0.963678
     15          8           0       -1.111650   -0.991057   -1.287151
     16          6           0        1.600926    2.641408   -0.069711
     17          7           0        1.380883    3.778426   -0.158827
     18          1           0        4.976213   -0.990726   -1.477217
     19          1           0        4.493156   -2.404707   -0.499001
     20          1           0        5.372482   -1.049524    0.242498
     21          1           0        3.917019    1.371406   -0.677734
     22          1           0        0.371440   -2.646370    0.957848
     23          1           0       -1.724811   -1.859229    1.895524
     24          1           0       -1.207990   -0.216147    1.534997
     25          1           0       -3.157384   -3.072135    0.291359
     26          1           0       -2.885727   -2.825014   -1.452841
     27          1           0       -1.574602   -3.435590   -0.434992
     28          1           0       -3.906434   -0.683104   -0.946330
     29          1           0       -3.713217   -0.429352    0.791320
     30          1           0       -2.838351    1.814833    1.813931
     31          1           0       -1.172342    1.818498    1.130246
     32          1           0       -2.266921    3.186984    0.839495
     33          1           0       -1.012383   -0.019281   -1.284690
 ---------------------------------------------------------------------

 SCF Done:  E(UB3LYP) =  -1121.54204743     A.U. after   27 cycles

 The electronic state is 2-A.
 Alpha  occ. eigenvalues --  -88.74629 -19.00630 -14.19970 -14.13950 -14.13852
 Alpha  occ. eigenvalues --  -14.13396 -10.13409 -10.11789 -10.10889 -10.09331
 Alpha  occ. eigenvalues --  -10.08789 -10.07492 -10.05748 -10.05555 -10.04023
 Alpha  occ. eigenvalues --  -10.03911 -10.01716  -7.83212  -5.79619  -5.79225
 Alpha  occ. eigenvalues --   -5.78588  -0.91952  -0.85207  -0.78308  -0.74695
 Alpha  occ. eigenvalues --   -0.72828  -0.71274  -0.67355  -0.64051  -0.60650
 Alpha  occ. eigenvalues --   -0.58837  -0.58552  -0.51698  -0.51601  -0.47812
 Alpha  occ. eigenvalues --   -0.46558  -0.42918  -0.40375  -0.37784  -0.36735
 Alpha  occ. eigenvalues --   -0.35814  -0.34299  -0.33887  -0.32402  -0.32240
 Alpha  occ. eigenvalues --   -0.31307  -0.30894  -0.30599  -0.29949  -0.29219
 Alpha  occ. eigenvalues --   -0.27190  -0.26664  -0.26204  -0.25582  -0.25041
 Alpha  occ. eigenvalues --   -0.23423  -0.21557  -0.21107  -0.20932  -0.17711
 Alpha  occ. eigenvalues --   -0.17701  -0.16500  -0.15747  -0.14938  -0.13433
 Alpha  occ. eigenvalues --   -0.10014  -0.08563   0.04269
 Alpha virt. eigenvalues --    0.06498   0.08300   0.08848   0.09065   0.09825
 Alpha virt. eigenvalues --    0.10704   0.11338   0.11494   0.11710   0.12018
 Alpha virt. eigenvalues --    0.12354   0.13510   0.13702   0.14043   0.14447

  Beta  occ. eigenvalues --  -88.74628 -19.00626 -14.19986 -14.13541 -14.13520
  Beta  occ. eigenvalues --  -14.12952 -10.13410 -10.11852 -10.10889 -10.09331
  Beta  occ. eigenvalues --  -10.08790 -10.07492 -10.05500 -10.05053 -10.04043
  Beta  occ. eigenvalues --  -10.03941 -10.01750  -7.83212  -5.79618  -5.79225
  Beta  occ. eigenvalues --   -5.78588  -0.91943  -0.84893  -0.77978  -0.74017
  Beta  occ. eigenvalues --   -0.72056  -0.71265  -0.67323  -0.63662  -0.60648
  Beta  occ. eigenvalues --   -0.58549  -0.58358  -0.51649  -0.50956  -0.47724
  Beta  occ. eigenvalues --   -0.46404  -0.42713  -0.40292  -0.37767  -0.36532
  Beta  occ. eigenvalues --   -0.35718  -0.34213  -0.33731  -0.32359  -0.32193
  Beta  occ. eigenvalues --   -0.31300  -0.30586  -0.30193  -0.29818  -0.29113
  Beta  occ. eigenvalues --   -0.27127  -0.26214  -0.25750  -0.25475  -0.24835
  Beta  occ. eigenvalues --   -0.23237  -0.21176  -0.20289  -0.19984  -0.17576
  Beta  occ. eigenvalues --   -0.17465  -0.15742  -0.15055  -0.13400  -0.12519
  Beta  occ. eigenvalues --   -0.09537  -0.07443
  Beta virt. eigenvalues --    0.06485   0.08281   0.08828   0.09040   0.09790
  Beta virt. eigenvalues --    0.10670   0.11222   0.11392   0.11565   0.11903
  Beta virt. eigenvalues --    0.12015   0.12356   0.13499   0.13720   0.14249

 Mulliken charges and spin densities:
               1          2
     1  C   -0.569380  -0.032551
     2  C    0.376116   0.150965
     3  C   -0.473193   0.024375
     4  C    1.352391   0.430657
     5  N   -0.097011   0.148583
     6  C   -0.582889  -0.000960
     7  N   -0.103664   0.221483
     8  N   -0.041277  -0.002565
     9  C   -0.624180  -0.002123
    10  C    0.463896  -0.012612
    11  C   -0.608109  -0.002638
    12  C   -0.623148   0.005146
    13  S    0.254540  -0.001067
    14  C   -0.734056  -0.002458
    15  O   -0.062009   0.010465
    16  C   -1.381229  -0.185398
    17  N   -0.349401   0.221548
    18  H    0.128230   0.003059
    19  H    0.120757   0.000359
    20  H    0.131647   0.012573
    21  H    0.142444   0.003238
    22  H    0.287788  -0.001971
    23  H    0.145298  -0.001798
    24  H    0.247108   0.006866
    25  H    0.121833  -0.000075
    26  H    0.147580   0.000354
    27  H    0.138223   0.006603
    28  H    0.221213   0.000882
    29  H    0.180510   0.000092
    30  H    0.143135  -0.000370
    31  H    0.223745   0.001943
    32  H    0.178515   0.000504
    33  H    0.244577  -0.003107
 Sum of Mulliken charges =  -1.00000   1.00000

 Dipole moment (field-independent basis, Debye):
    X=             -7.0411    Y=             -6.1053    Z=              1.6709  Tot=              9.4680
 Quadrupole moment (field-independent basis, Debye-Ang):
   XX=           -136.8851   YY=           -152.5686   ZZ=           -120.0184
   XY=             -0.3887   XZ=             -6.5410   YZ=              1.2407

 Summary of Natural Population Analysis:

                                       Natural Population
                Natural  -----------------------------------------------
    Atom  No    Charge         Core      Valence    Rydberg      Total
 -----------------------------------------------------------------------
      C    1   -0.29875      0.99964     2.29470    0.00441     3.29875
      C    2    0.16134      0.99958     1.82681    0.01227     2.83866
      C    3   -0.15713      0.99948     2.15100    0.00665     3.15713
      C    4    0.13296      0.99944     1.85190    0.01570     2.86704
      N    5   -0.24878      0.99964     2.73774    0.01139     3.74878
      C    6    0.29833      0.99960     1.68422    0.01784     2.70167
      N    7   -0.23079      0.99963     2.71931    0.01185     3.73079
      N    8   -0.31971      0.99965     2.80675    0.01331     3.81971
      C    9   -0.10032      0.99957     2.08921    0.01154     3.10032
      C   10    0.11467      0.99953     1.87028    0.01551     2.88533
      C   11   -0.29038      0.99962     2.28455    0.00621     3.29038
      C   12   -0.25928      0.99953     2.24963    0.01012     3.25928
      S   13    0.08265      4.99964     2.89654    0.02117     7.91735
      C   14   -0.35535      0.99961     2.35031    0.00543     3.35535
      O   15   -0.37872      0.99988     3.37024    0.00860     4.37872
      C   16    0.13768      0.99964     1.84353    0.01915     2.86232
      N   17   -0.15085      0.99979     2.63935    0.01171     3.65085
      H   18    0.09714      0.00000     0.40195    0.00090     0.40286
      H   19    0.10279      0.00000     0.39610    0.00112     0.39721
      H   20    0.09944      0.00000     0.39964    0.00093     0.40056
      H   21    0.09814      0.00000     0.40091    0.00095     0.40186
      H   22    0.19018      0.00000     0.30833    0.00149     0.30982
      H   23    0.08905      0.00000     0.40991    0.00104     0.41095
      H   24    0.11123      0.00000     0.38726    0.00151     0.38877
      H   25    0.09341      0.00000     0.40580    0.00079     0.40659
      H   26    0.10147      0.00000     0.39753    0.00100     0.39853
      H   27    0.10350      0.00000     0.39546    0.00104     0.39650
      H   28    0.10562      0.00000     0.39312    0.00126     0.39438
      H   29    0.10025      0.00000     0.39851    0.00123     0.39975
      H   30    0.09296      0.00000     0.40584    0.00119     0.40704
      H   31    0.12534      0.00000     0.37338    0.00128     0.37466
      H   32    0.10897      0.00000     0.39007    0.00096     0.39103
      H   33    0.24291      0.00000     0.25427    0.00282     0.25709
 =======================================================================
   * Total *    0.00000     20.99347    45.78415    0.22238    67.00000

 Normal termination of Gaussian 16 at Sun Dec 13 21:00:08 2020.
