 Gaussian 16, Revision A.03,

 -----------------------------------------------------------
 # opt freq B3LYP/6-31G(d) empiricaldispersion=gd3bj scf=xqc
 -----------------------------------------------------------

 ------------------------------
 CID_64135841_JID_6063_neutraal
 ------------------------------
 Symbolic Z-matrix:
 Charge =  0 Multiplicity = 1

 SCF Done:  E(RB3LYP) =  -709.439497548     A.U. after   13 cycles
 SCF Done:  E(RB3LYP) =  -709.441003500     A.U. after   12 cycles
 SCF Done:  E(RB3LYP) =  -709.436370414     A.U. after   13 cycles
 SCF Done:  E(RB3LYP) =  -709.441922210     A.U. after   12 cycles
 SCF Done:  E(RB3LYP) =  -709.442766591     A.U. after   14 cycles
 SCF Done:  E(RB3LYP) =  -709.445348605     A.U. after   12 cycles
 SCF Done:  E(RB3LYP) =  -709.445731599     A.U. after   11 cycles
 SCF Done:  E(RB3LYP) =  -709.446116464     A.U. after   12 cycles
 SCF Done:  E(RB3LYP) =  -709.446364284     A.U. after   12 cycles
 SCF Done:  E(RB3LYP) =  -709.446556220     A.U. after   11 cycles
 SCF Done:  E(RB3LYP) =  -709.453616168     A.U. after   10 cycles
 SCF Done:  E(RB3LYP) =  -709.453621000     A.U. after   10 cycles
 SCF Done:  E(RB3LYP) =  -709.453625776     A.U. after   10 cycles
 SCF Done:  E(RB3LYP) =  -709.453626089     A.U. after    7 cycles
 SCF Done:  E(RB3LYP) =  -709.453626249     A.U. after    7 cycles
 Optimization completed.
    -- Stationary point found.
 Normal termination of Gaussian 16 at Thu Dec 10 21:38:55 2020.

 --------------------------------------------------------------------
 #N Geom=AllCheck Guess=TCheck SCRF=Check GenChk RB3LYP/6-31G(d) Freq
 --------------------------------------------------------------------

 Structure from the checkpoint file:  "JID_6063.chk"
 ------------------------------
 CID_64135841_JID_6063_neutraal
 ------------------------------
 Charge =  0 Multiplicity = 1

 SCF Done:  E(RB3LYP) =  -709.453626249     A.U. after    1 cycles

  Exact polarizability: 183.518  -4.138 159.770   6.679 -17.744 104.904
 Approx polarizability: 245.937  -5.056 235.738  13.568 -41.334 168.864

                      1                      2                      3
                      A                      A                      A
 Frequencies --     20.0725                33.9272                48.6755
 Red. masses --      4.0553                 3.0826                 3.4372
 Frc consts  --      0.0010                 0.0021                 0.0048
 IR Inten    --      1.2499                 0.7876                 0.4253

                      4                      5                      6
                      A                      A                      A
 Frequencies --     61.0903                63.9163                80.0743
 Red. masses --      2.5342                 2.3195                 3.3052
 Frc consts  --      0.0056                 0.0056                 0.0125
 IR Inten    --      1.2674                 0.3162                 1.2079

                      7                      8                      9
                      A                      A                      A
 Frequencies --    114.8669               142.6029               167.6763
 Red. masses --      1.9016                 3.9903                 2.8694
 Frc consts  --      0.0148                 0.0478                 0.0475
 IR Inten    --      0.8915                 1.0333                 0.6158

                     10                     11                     12
                      A                      A                      A
 Frequencies --    195.0692               197.6684               235.2086
 Red. masses --      1.7944                 3.6424                 1.9488
 Frc consts  --      0.0402                 0.0839                 0.0635
 IR Inten    --      0.8813                 2.1712                 2.5544

                     13                     14                     15
                      A                      A                      A
 Frequencies --    260.2913               280.7379               298.5866
 Red. masses --      2.0547                 1.9475                 3.4234
 Frc consts  --      0.0820                 0.0904                 0.1798
 IR Inten    --      0.3568                 0.1189                10.4215

                     16                     17                     18
                      A                      A                      A
 Frequencies --    333.6155               344.7549               421.6362
 Red. masses --      2.7261                 2.4209                 2.7502
 Frc consts  --      0.1788                 0.1695                 0.2881
 IR Inten    --      2.7897                 0.7556                 3.3559

                     19                     20                     21
                      A                      A                      A
 Frequencies --    430.0056               466.0415               476.8398
 Red. masses --      3.0405                 2.8901                 2.4587
 Frc consts  --      0.3312                 0.3698                 0.3294
 IR Inten    --      2.1166                12.5307                 5.3635

                     22                     23                     24
                      A                      A                      A
 Frequencies --    509.1678               545.6706               569.4880
 Red. masses --      2.5306                 3.9675                 3.2058
 Frc consts  --      0.3865                 0.6960                 0.6126
 IR Inten    --     15.4820                17.0744                 6.2448

                     25                     26                     27
                      A                      A                      A
 Frequencies --    595.8855               602.5716               662.3353
 Red. masses --      1.4274                 4.1445                 3.8491
 Frc consts  --      0.2986                 0.8866                 0.9949
 IR Inten    --     36.0515                 7.2486                 5.4747

                     28                     29                     30
                      A                      A                      A
 Frequencies --    732.6949               778.3395               782.8640
 Red. masses --      1.7059                 1.8344                 2.1372
 Frc consts  --      0.5396                 0.6548                 0.7717
 IR Inten    --    107.1941                28.0748                48.7813

                     31                     32                     33
                      A                      A                      A
 Frequencies --    794.3871               811.6348               826.2974
 Red. masses --      1.3242                 2.4219                 1.2729
 Frc consts  --      0.4923                 0.9400                 0.5121
 IR Inten    --      3.6069                27.0785                 7.3777

                     34                     35                     36
                      A                      A                      A
 Frequencies --    831.1470               896.5010               920.4084
 Red. masses --      1.8602                 1.9583                 2.1210
 Frc consts  --      0.7571                 0.9273                 1.0587
 IR Inten    --    110.2144                17.1985                31.2438

                     37                     38                     39
                      A                      A                      A
 Frequencies --    921.6304               945.6935               957.5058
 Red. masses --      2.9422                 1.8631                 1.3879
 Frc consts  --      1.4724                 0.9817                 0.7497
 IR Inten    --     31.4239                15.6489                 1.7278

                     40                     41                     42
                      A                      A                      A
 Frequencies --    964.9924               971.7894              1005.4100
 Red. masses --      1.3497                 2.9361                 2.1307
 Frc consts  --      0.7405                 1.6337                 1.2690
 IR Inten    --      1.3400                27.2693                 4.2944

                     43                     44                     45
                      A                      A                      A
 Frequencies --   1054.2138              1068.2805              1082.3992
 Red. masses --      2.5424                 2.7297                 2.4737
 Frc consts  --      1.6647                 1.8354                 1.7076
 IR Inten    --      5.6042                 3.3296                 2.8110

                     46                     47                     48
                      A                      A                      A
 Frequencies --   1111.1818              1126.2751              1137.7381
 Red. masses --      2.2692                 2.2097                 2.2641
 Frc consts  --      1.6508                 1.6515                 1.7267
 IR Inten    --      2.3878                48.3468                33.5778

                     49                     50                     51
                      A                      A                      A
 Frequencies --   1153.0396              1169.7986              1186.4164
 Red. masses --      2.0164                 2.1309                 1.2634
 Frc consts  --      1.5795                 1.7181                 1.0477
 IR Inten    --     70.8378                60.0363                 2.2860

                     52                     53                     54
                      A                      A                      A
 Frequencies --   1189.0089              1191.1744              1226.4611
 Red. masses --      1.6120                 1.3456                 2.0715
 Frc consts  --      1.3427                 1.1249                 1.8358
 IR Inten    --     18.8213                10.8068                73.3539

                     55                     56                     57
                      A                      A                      A
 Frequencies --   1236.4018              1265.4485              1279.2130
 Red. masses --      2.0795                 1.6682                 1.3367
 Frc consts  --      1.8730                 1.5739                 1.2888
 IR Inten    --      3.3445                 5.4739                 1.5764

                     58                     59                     60
                      A                      A                      A
 Frequencies --   1301.1451              1314.0351              1341.0671
 Red. masses --      1.3142                 1.4241                 1.6073
 Frc consts  --      1.3109                 1.4487                 1.7031
 IR Inten    --      7.0648                 0.9983                10.6295

                     61                     62                     63
                      A                      A                      A
 Frequencies --   1347.4284              1353.7365              1368.9647
 Red. masses --      2.3570                 1.2083                 1.2211
 Frc consts  --      2.5213                 1.3046                 1.3483
 IR Inten    --      7.9673                 5.2230                 0.6159

                     64                     65                     66
                      A                      A                      A
 Frequencies --   1377.2696              1386.9402              1399.6911
 Red. masses --      1.4639                 1.7336                 1.3978
 Frc consts  --      1.6361                 1.9648                 1.6135
 IR Inten    --     26.3801                 4.3809                 4.6866

                     67                     68                     69
                      A                      A                      A
 Frequencies --   1420.3621              1443.4304              1448.8541
 Red. masses --      1.2877                 1.3154                 1.3372
 Frc consts  --      1.5306                 1.6147                 1.6538
 IR Inten    --      8.3334                 6.3595                19.2282

                     70                     71                     72
                      A                      A                      A
 Frequencies --   1491.6699              1501.2573              1505.4785
 Red. masses --      1.3564                 1.1262                 1.8380
 Frc consts  --      1.7782                 1.4955                 2.4544
 IR Inten    --     27.2365                 1.7527               149.0424

                     73                     74                     75
                      A                      A                      A
 Frequencies --   1511.5040              1519.3368              1519.4892
 Red. masses --      1.5901                 1.3682                 1.1866
 Frc consts  --      2.1404                 1.8609                 1.6142
 IR Inten    --      0.1615                37.4300                 2.1498

                     76                     77                     78
                      A                      A                      A
 Frequencies --   1520.9528              1526.2723              1530.9543
 Red. masses --      1.1365                 1.0478                 1.1064
 Frc consts  --      1.5489                 1.4382                 1.5279
 IR Inten    --     15.6042                 5.0859                 8.1309

                     79                     80                     81
                      A                      A                      A
 Frequencies --   1532.9075              1543.3757              1550.3390
 Red. masses --      1.0733                 1.0750                 1.0907
 Frc consts  --      1.4859                 1.5086                 1.5446
 IR Inten    --      0.7371                11.4104                 1.0211

                     82                     83                     84
                      A                      A                      A
 Frequencies --   1630.6718              1654.3992              1700.0680
 Red. masses --      5.3523                 4.1693                 1.2944
 Frc consts  --      8.3854                 6.7236                 2.2042
 IR Inten    --     35.2998                47.7064               112.7893

                     85                     86                     87
                      A                      A                      A
 Frequencies --   2983.2005              2991.1813              2999.0132
 Red. masses --      1.0715                 1.0506                 1.0572
 Frc consts  --      5.6183                 5.5381                 5.6023
 IR Inten    --     62.4797                40.8423                58.2168

                     88                     89                     90
                      A                      A                      A
 Frequencies --   3031.1886              3042.9164              3048.9218
 Red. masses --      1.0639                 1.0944                 1.0391
 Frc consts  --      5.7593                 5.9702                 5.6911
 IR Inten    --     20.8093                44.6685                18.5369

                     91                     92                     93
                      A                      A                      A
 Frequencies --   3052.6494              3062.5822              3069.8606
 Red. masses --      1.0750                 1.0783                 1.0881
 Frc consts  --      5.9023                 5.9587                 6.0419
 IR Inten    --     24.1785                32.4318                25.1902

                     94                     95                     96
                      A                      A                      A
 Frequencies --   3074.6798              3080.7411              3099.0579
 Red. masses --      1.0915                 1.0989                 1.1033
 Frc consts  --      6.0797                 6.1450                 6.2433
 IR Inten    --     21.3921                17.9431                62.3628

                     97                     98                     99
                      A                      A                      A
 Frequencies --   3115.4160              3132.4791              3136.9672
 Red. masses --      1.1000                 1.1033                 1.0970
 Frc consts  --      6.2902                 6.3788                 6.3600
 IR Inten    --     38.2825                33.7692                39.7538

                    100                    101                    102
                      A                      A                      A
 Frequencies --   3162.2906              3169.8006              3215.3662
 Red. masses --      1.0887                 1.0896                 1.0952
 Frc consts  --      6.4147                 6.4502                 6.6709
 IR Inten    --     33.9068                24.5528                24.3997

                    103                    104                    105
                      A                      A                      A
 Frequencies --   3371.1057              3474.4395              3614.4531
 Red. masses --      1.0636                 1.0732                 1.0851
 Frc consts  --      7.1218                 7.6329                 8.3522
 IR Inten    --    495.0633                 0.3211                55.8792

 - Thermochemistry -
 -------------------
 Temperature   298.150 Kelvin.  Pressure   1.00000 Atm.
 Atom     1 has atomic number  6 and mass  12.00000

 Molecular mass:   223.16846 amu.
 Principal axes and moments of inertia in atomic units:
                           1         2         3
     Eigenvalues --  2613.052606361.588218369.72167
           X            0.99998   0.00633   0.00072
           Y           -0.00633   0.99998   0.00020
           Z           -0.00072  -0.00021   1.00000
 This molecule is an asymmetric top.
 Rotational symmetry number  1.
 Warning -- assumption of classical behavior for rotation
           may cause significant error
 Rotational temperatures (Kelvin)      0.03315     0.01362     0.01035
 Rotational constants (GHZ):           0.69066     0.28369     0.21563
 Zero-point vibrational energy     863983.3 (Joules/Mol)
                                  206.49697 (Kcal/Mol)
 Warning -- explicit consideration of  26 degrees of freedom as
           vibrations may cause significant error
 Vibrational temperatures:     28.88    48.81    70.03    87.90    91.96
          (Kelvin)            115.21   165.27   205.17   241.25   280.66
                              284.40   338.41   374.50   403.92   429.60
                              480.00   496.03   606.64   618.68   670.53
                              686.07   732.58   785.10   819.37   857.35
                              866.97   952.95  1054.18  1119.86  1126.37
                             1142.95  1167.76  1188.86  1195.84  1289.86
                             1324.26  1326.02  1360.64  1377.64  1388.41
                             1398.19  1446.56  1516.78  1537.02  1557.33
                             1598.74  1620.46  1636.95  1658.97  1683.08
                             1706.99  1710.72  1713.83  1764.60  1778.91
                             1820.70  1840.50  1872.06  1890.60  1929.50
                             1938.65  1947.72  1969.63  1981.58  1995.50
                             2013.84  2043.58  2076.77  2084.58  2146.18
                             2159.97  2166.05  2174.72  2185.99  2186.21
                             2188.31  2195.97  2202.70  2205.51  2220.57
                             2230.59  2346.17  2380.31  2446.02  4292.16
                             4303.64  4314.91  4361.20  4378.08  4386.72
                             4392.08  4406.37  4416.84  4423.78  4432.50
                             4458.85  4482.39  4506.94  4513.40  4549.83
                             4560.64  4626.19  4850.27  4998.94  5200.39

 Zero-point correction=                           0.329074 (Hartree/Particle)
 Thermal correction to Energy=                    0.346094
 Thermal correction to Enthalpy=                  0.347038
 Thermal correction to Gibbs Free Energy=         0.282186
 Sum of electronic and zero-point Energies=           -709.124552
 Sum of electronic and thermal Energies=              -709.107533
 Sum of electronic and thermal Enthalpies=            -709.106588
 Sum of electronic and thermal Free Energies=         -709.171440

                     E (Thermal)             CV                S
                      KCal/Mol        Cal/Mol-Kelvin    Cal/Mol-Kelvin
 Total                  217.177             63.256            136.492
 Electronic               0.000              0.000              0.000
 Translational            0.889              2.981             42.111
 Rotational               0.889              2.981             33.297
 Vibrational            215.400             57.294             61.083
 Vibration     1          0.593              1.986              6.627
 Vibration     2          0.594              1.983              5.585
 Vibration     3          0.595              1.978              4.870
 Vibration     4          0.597              1.973              4.422
 Vibration     5          0.597              1.972              4.332
 Vibration     6          0.600              1.963              3.889
 Vibration     7          0.608              1.937              3.185
 Vibration     8          0.616              1.911              2.769
 Vibration     9          0.624              1.882              2.461
 Vibration    10          0.636              1.847              2.179
 Vibration    11          0.637              1.843              2.155
 Vibration    12          0.655              1.787              1.839
 Vibration    13          0.668              1.745              1.660
 Vibration    14          0.680              1.709              1.529
 Vibration    15          0.692              1.676              1.425
 Vibration    16          0.715              1.608              1.243
 Vibration    17          0.723              1.586              1.190
 Vibration    18          0.784              1.423              0.886
 Vibration    19          0.791              1.405              0.859
 Vibration    20          0.823              1.325              0.749
 Vibration    21          0.833              1.301              0.719
 Vibration    22          0.864              1.230              0.636
 Vibration    23          0.901              1.149              0.553
 Vibration    24          0.926              1.097              0.505
 Vibration    25          0.954              1.041              0.457
 Vibration    26          0.961              1.026              0.445

 Optimization completed.
    -- Stationary point found.
 Normal termination of Gaussian 16 at Thu Dec 10 21:50:58 2020.

 ----------------------------------------------------------------------
 # B3LYP/6-311++G(d,p) empiricaldispersion=gd3bj scf=xqc pop=npa geom=c
 heck
 ----------------------------------------------------------------------

 --------------------------------------
 CID_64135841_JID_6063_Energie_neutraal
 --------------------------------------
 Structure from the checkpoint file:  "JID_6063.chk"
 Charge =  0 Multiplicity = 1

 SCF Done:  E(RB3LYP) =  -709.660087959     A.U. after   14 cycles
 Normal termination of Gaussian 16 at Thu Dec 10 21:56:45 2020.

 ----------------------------------------------------------------------
 # B3LYP/6-311++G(d,p) empiricaldispersion=gd3bj scf=xqc pop=npa geom=c
 heck
 ----------------------------------------------------------------------

 ------------------------------------
 CID_64135841_JID_6063_Energie_kation
 ------------------------------------
 Structure from the checkpoint file:  "JID_6063.chk"
 Charge =  1 Multiplicity = 2

 SCF Done:  E(UB3LYP) =  -709.386032023     A.U. after   23 cycles
 Normal termination of Gaussian 16 at Thu Dec 10 22:11:04 2020.
 Gaussian 16:  ES64L-G16RevA.03 25-Dec-2016

 ----------------------------------------------------------------------
 # B3LYP/6-311++G(d,p) empiricaldispersion=gd3bj scf=xqc pop=npa geom=c
 heck
 ----------------------------------------------------------------------

 -----------------------------------
 CID_64135841_JID_6063_Energie_anion
 -----------------------------------
 Structure from the checkpoint file:  "JID_6063.chk"
 Charge = -1 Multiplicity = 2

                         Standard orientation:
 ---------------------------------------------------------------------
 Center     Atomic      Atomic             Coordinates (Angstroms)
 Number     Number       Type             X           Y           Z
 ---------------------------------------------------------------------
      1          6           0       -1.020473    3.913225    0.295682
      2          6           0       -1.168842    2.515950    0.889569
      3          7           0       -0.668174    1.505192   -0.045136
      4          6           0       -0.682273    0.116254    0.450162
      5          6           0       -2.095747   -0.467973    0.672551
      6          6           0       -2.940520   -0.576935   -0.599491
      7          8           0       -4.273087   -0.993609   -0.352094
      8          6           0       -4.396847   -2.371046   -0.064698
      9          6           0        0.172862   -0.776231   -0.487838
     10          6           0        1.651995   -0.806792   -0.178683
     11          6           0        2.529694    0.254903   -0.532295
     12          7           0        3.854581    0.206909   -0.314848
     13          6           0        4.361879   -0.879801    0.276724
     14          6           0        3.597195   -1.963162    0.693194
     15          6           0        2.222276   -1.909488    0.446070
     16          7           0        2.048633    1.379111   -1.171329
     17          1           0        0.027395    4.123312    0.057739
     18          1           0       -1.377722    4.673570    0.997952
     19          1           0       -1.604786    4.013301   -0.627517
     20          1           0       -0.572008    2.434110    1.806192
     21          1           0       -2.219317    2.347610    1.180321
     22          1           0       -1.199744    1.559434   -0.913995
     23          1           0       -0.185869    0.142368    1.427558
     24          1           0       -1.982001   -1.458193    1.130488
     25          1           0       -2.647999    0.146699    1.392998
     26          1           0       -3.036405    0.406329   -1.074085
     27          1           0       -2.462976   -1.250885   -1.329563
     28          1           0       -3.949581   -2.990181   -0.859322
     29          1           0       -3.931960   -2.648414    0.892889
     30          1           0       -5.466627   -2.587591   -0.007384
     31          1           0       -0.205023   -1.803390   -0.426853
     32          1           0        0.017924   -0.449023   -1.525522
     33          1           0        5.440802   -0.873797    0.426454
     34          1           0        4.054722   -2.819599    1.177077
     35          1           0        1.583760   -2.744217    0.729317
     36          1           0        2.746081    2.111492   -1.228517
     37          1           0        1.123549    1.684036   -0.855959
 ---------------------------------------------------------------------

 SCF Done:  E(UB3LYP) =  -709.648942959     A.U. after   33 cycles
 SCF Done:  E(UB3LYP) =  -709.648942959     a.u. after    1 cycles

 The electronic state is 2-A.
 Alpha  occ. eigenvalues --  -19.03306 -14.21890 -14.21255 -14.20818 -10.14745
 Alpha  occ. eigenvalues --  -10.12510 -10.11869 -10.11607 -10.11212 -10.10798
 Alpha  occ. eigenvalues --  -10.09150 -10.08961 -10.08589 -10.07894 -10.07585
 Alpha  occ. eigenvalues --  -10.07343  -0.94494  -0.86859  -0.83020  -0.79056
 Alpha  occ. eigenvalues --   -0.72705  -0.69751  -0.66297  -0.65206  -0.62008
 Alpha  occ. eigenvalues --   -0.59595  -0.54586  -0.53195  -0.53013  -0.51454
 Alpha  occ. eigenvalues --   -0.48589  -0.43347  -0.42836  -0.41220  -0.40364
 Alpha  occ. eigenvalues --   -0.38530  -0.38472  -0.37607  -0.36751  -0.35864
 Alpha  occ. eigenvalues --   -0.35143  -0.33841  -0.32630  -0.31961  -0.31642
 Alpha  occ. eigenvalues --   -0.30797  -0.30297  -0.29216  -0.28230  -0.27551
 Alpha  occ. eigenvalues --   -0.27293  -0.26235  -0.25810  -0.24913  -0.22629
 Alpha  occ. eigenvalues --   -0.22458  -0.18522  -0.17187  -0.16932  -0.15433
 Alpha  occ. eigenvalues --   -0.12164   0.04009
 Alpha virt. eigenvalues --    0.05593   0.06285   0.06495   0.07232   0.07982
 Alpha virt. eigenvalues --    0.08067   0.08635   0.08786   0.08954   0.09535
 Alpha virt. eigenvalues --    0.10494   0.10876   0.11101   0.11490   0.11855

  Beta  occ. eigenvalues --  -19.03295 -14.21874 -14.21249 -14.20804 -10.14745
  Beta  occ. eigenvalues --  -10.12491 -10.11863 -10.11563 -10.11202 -10.10780
  Beta  occ. eigenvalues --  -10.09124 -10.08952 -10.08576 -10.07893 -10.07570
  Beta  occ. eigenvalues --  -10.07302  -0.94470  -0.86841  -0.82993  -0.79040
  Beta  occ. eigenvalues --   -0.72673  -0.69718  -0.66268  -0.65162  -0.61963
  Beta  occ. eigenvalues --   -0.59545  -0.54535  -0.53140  -0.52950  -0.51417
  Beta  occ. eigenvalues --   -0.48539  -0.43325  -0.42811  -0.41181  -0.40333
  Beta  occ. eigenvalues --   -0.38500  -0.38434  -0.37577  -0.36726  -0.35835
  Beta  occ. eigenvalues --   -0.35111  -0.33801  -0.32597  -0.31912  -0.31605
  Beta  occ. eigenvalues --   -0.30759  -0.30260  -0.29181  -0.28174  -0.27510
  Beta  occ. eigenvalues --   -0.27257  -0.26197  -0.25783  -0.24884  -0.22605
  Beta  occ. eigenvalues --   -0.22409  -0.18449  -0.17165  -0.16907  -0.15408
  Beta  occ. eigenvalues --   -0.12136
  Beta virt. eigenvalues --    0.06103   0.06423   0.06533   0.06970   0.07581
  Beta virt. eigenvalues --    0.08331   0.08425   0.08787   0.08987   0.09503
  Beta virt. eigenvalues --    0.09878   0.10650   0.11252   0.11428   0.11714

 Mulliken charges and spin densities:
               1          2
     1  C    1.252332  -1.815717
     2  C   -0.552778   0.420733
     3  N   -0.077170  -0.033335
     4  C    0.035395  -0.116464
     5  C   -0.332393  -0.144803
     6  C    0.002745  -0.487596
     7  O   -0.178797   0.069031
     8  C    0.967663  -1.227974
     9  C    1.309288  -2.731220
    10  C   -0.126793   2.119554
    11  C   -2.252276   1.200579
    12  N   -0.115580   0.024214
    13  C   -0.011977  -0.264322
    14  C    0.449642  -0.687851
    15  C    0.167236  -0.313053
    16  N   -0.320843   0.013828
    17  H   -0.087155   0.224053
    18  H   -0.362382   0.505269
    19  H   -0.305747   0.447153
    20  H   -0.107260   0.255098
    21  H    0.077225   0.062878
    22  H    0.252095  -0.070455
    23  H    0.129219   0.086618
    24  H    0.050674   0.105251
    25  H   -0.053844   0.223534
    26  H   -0.134027   0.322459
    27  H    0.325287  -0.179577
    28  H   -0.438745   0.556208
    29  H   -0.420723   0.553764
    30  H   -0.087328   0.242707
    31  H    0.053474   0.148577
    32  H   -0.173178   0.389788
    33  H    0.120311   0.045791
    34  H   -0.048610   0.216894
    35  H   -0.679029   0.849472
    36  H    0.148687   0.110333
    37  H    0.525362  -0.121420
 Sum of Mulliken charges =  -1.00000   1.00000

 Dipole moment (field-independent basis, Debye):
    X=              4.0088    Y=              1.1043    Z=             -0.0886  Tot=              4.1591
 Quadrupole moment (field-independent basis, Debye-Ang):
   XX=           -178.1406   YY=           -173.2018   ZZ=           -130.2441
   XY=             -5.7420   XZ=              2.3036   YZ=             -0.4762

 Summary of Natural Population Analysis:

                                       Natural Population
                Natural  -----------------------------------------------
    Atom  No    Charge         Core      Valence    Rydberg      Total
 -----------------------------------------------------------------------
      C    1   -0.28767      0.99967     2.28273    0.00527     3.28767
      C    2   -0.08445      0.99963     2.07490    0.00992     3.08445
      N    3   -0.35466      0.99974     2.84279    0.01214     3.85466
      C    4   -0.00146      0.99958     1.99011    0.01176     3.00146
      C    5   -0.21173      0.99960     2.20350    0.00863     3.21173
      C    6   -0.00778      0.99957     1.99711    0.01110     3.00778
      O    7   -0.29783      0.99989     3.28749    0.01045     4.29783
      C    8   -0.09895      0.99961     2.08970    0.00963     3.09895
      C    9   -0.20515      0.99959     2.19432    0.01125     3.20515
      C   10   -0.04929      0.99947     2.03961    0.01022     3.04929
      C   11    0.20390      0.99950     1.78227    0.01432     2.79610
      N   12   -0.26272      0.99968     2.75204    0.01100     3.76272
      C   13    0.03025      0.99959     1.95635    0.01380     2.96975
      C   14   -0.14859      0.99956     2.13889    0.01014     3.14859
      C   15   -0.07370      0.99952     2.06420    0.00998     3.07370
      N   16   -0.40763      0.99970     2.89863    0.00931     3.90763
      H   17    0.09818      0.00000     0.40052    0.00130     0.40182
      H   18    0.10255      0.00000     0.39617    0.00128     0.39745
      H   19    0.09752      0.00000     0.40108    0.00140     0.40248
      H   20    0.09119      0.00000     0.40757    0.00123     0.40881
      H   21    0.08294      0.00000     0.41549    0.00157     0.41706
      H   22    0.17443      0.00000     0.32273    0.00283     0.32557
      H   23    0.09563      0.00000     0.40244    0.00193     0.40437
      H   24    0.10207      0.00000     0.39620    0.00173     0.39793
      H   25    0.10166      0.00000     0.39678    0.00155     0.39834
      H   26    0.08570      0.00000     0.41229    0.00201     0.41430
      H   27    0.07932      0.00000     0.41900    0.00168     0.42068
      H   28    0.07949      0.00000     0.41870    0.00181     0.42051
      H   29    0.08063      0.00000     0.41752    0.00185     0.41937
      H   30    0.08941      0.00000     0.40946    0.00114     0.41059
      H   31    0.10721      0.00000     0.39118    0.00162     0.39279
      H   32    0.10580      0.00000     0.39258    0.00162     0.39420
      H   33    0.08651      0.00000     0.41242    0.00107     0.41349
      H   34    0.10244      0.00000     0.39674    0.00083     0.39756
      H   35    0.10284      0.00000     0.39584    0.00132     0.39716
      H   36    0.18603      0.00000     0.31159    0.00238     0.31397
      H   37    0.20592      0.00000     0.29123    0.00285     0.29408
 =======================================================================
   * Total *    0.00000     15.99389    44.80221    0.20389    61.00000

 Normal termination of Gaussian 16 at Thu Dec 10 22:31:17 2020.
