 Gaussian 16, Revision A.03,

 -----------------------------------------------------------
 # opt freq B3LYP/6-31G(d) empiricaldispersion=gd3bj scf=xqc
 -----------------------------------------------------------

 ------------------------------
 CID_61394075_JID_5187_neutraal
 ------------------------------
 Symbolic Z-matrix:
 Charge =  0 Multiplicity = 1

 SCF Done:  E(RB3LYP) =  -630.645108238     A.U. after   14 cycles
 SCF Done:  E(RB3LYP) =  -630.648567335     A.U. after   12 cycles
 SCF Done:  E(RB3LYP) =  -630.649339035     A.U. after   11 cycles
 SCF Done:  E(RB3LYP) =  -630.649829354     A.U. after   12 cycles
 SCF Done:  E(RB3LYP) =  -630.650116275     A.U. after   12 cycles
 SCF Done:  E(RB3LYP) =  -630.650284353     A.U. after   11 cycles
 SCF Done:  E(RB3LYP) =  -630.650383152     A.U. after   11 cycles
 SCF Done:  E(RB3LYP) =  -630.650437576     A.U. after   10 cycles
 SCF Done:  E(RB3LYP) =  -630.650482249     A.U. after   10 cycles
 SCF Done:  E(RB3LYP) =  -630.650569434     A.U. after   11 cycles
 SCF Done:  E(RB3LYP) =  -630.650603373     A.U. after    9 cycles
 SCF Done:  E(RB3LYP) =  -630.650603670     A.U. after    7 cycles
 SCF Done:  E(RB3LYP) =  -630.650603728     A.U. after    7 cycles
 SCF Done:  E(RB3LYP) =  -630.650603760     A.U. after    7 cycles
 SCF Done:  E(RB3LYP) =  -630.650603775     A.U. after    6 cycles
 Optimization completed.
    -- Stationary point found.
 Normal termination of Gaussian 16 at Thu Dec 10 14:53:49 2020.

 --------------------------------------------------------------------
 #N Geom=AllCheck Guess=TCheck SCRF=Check GenChk RB3LYP/6-31G(d) Freq
 --------------------------------------------------------------------

 Structure from the checkpoint file:  "JID_5187.chk"
 ------------------------------
 CID_61394075_JID_5187_neutraal
 ------------------------------
 Charge =  0 Multiplicity = 1

 SCF Done:  E(RB3LYP) =  -630.650603775     A.U. after    1 cycles

  Exact polarizability: 226.956  -3.269 160.125   7.388  10.320  71.512
 Approx polarizability: 317.236  -0.620 271.965  15.547  26.066 109.500

                      1                      2                      3
                      A                      A                      A
 Frequencies --     30.4811                47.1623                69.3951
 Red. masses --      3.5079                 2.5969                 4.2689
 Frc consts  --      0.0019                 0.0034                 0.0121
 IR Inten    --      0.8912                 0.9801                 2.6136

                      4                      5                      6
                      A                      A                      A
 Frequencies --    119.1504               130.0823               148.1309
 Red. masses --      1.1448                 2.6158                 3.6030
 Frc consts  --      0.0096                 0.0261                 0.0466
 IR Inten    --      0.1294                 1.6979                 0.8372

                      7                      8                      9
                      A                      A                      A
 Frequencies --    187.7283               211.2835               239.9991
 Red. masses --      3.6277                 1.3951                 3.6944
 Frc consts  --      0.0753                 0.0367                 0.1254
 IR Inten    --      0.2622                 1.2684                 2.3005

                     10                     11                     12
                      A                      A                      A
 Frequencies --    269.1510               301.0222               326.7877
 Red. masses --      2.0683                 3.5888                 3.7028
 Frc consts  --      0.0883                 0.1916                 0.2330
 IR Inten    --      1.0088                 3.2133                 0.2984

                     13                     14                     15
                      A                      A                      A
 Frequencies --    330.5424               397.8166               420.1146
 Red. masses --      3.8569                 1.3094                 3.6032
 Frc consts  --      0.2483                 0.1221                 0.3747
 IR Inten    --      3.9247               161.0617                14.0187

                     16                     17                     18
                      A                      A                      A
 Frequencies --    454.4026               455.4672               503.6342
 Red. masses --      2.6446                 2.2101                 1.6007
 Frc consts  --      0.3217                 0.2701                 0.2392
 IR Inten    --      3.6424                28.8728                50.4130

                     19                     20                     21
                      A                      A                      A
 Frequencies --    531.2835               553.2904               572.3400
 Red. masses --      3.0149                 3.6013                 5.5409
 Frc consts  --      0.5014                 0.6495                 1.0694
 IR Inten    --     20.5716                 1.6068                 2.1597

                     22                     23                     24
                      A                      A                      A
 Frequencies --    634.7101               637.3214               665.7856
 Red. masses --      4.1224                 1.1787                 5.1108
 Frc consts  --      0.9785                 0.2821                 1.3348
 IR Inten    --      7.3456               117.7147                 9.7196

                     25                     26                     27
                      A                      A                      A
 Frequencies --    694.2625               720.3226               745.4762
 Red. masses --      4.1795                 4.2354                 1.9395
 Frc consts  --      1.1869                 1.2948                 0.6350
 IR Inten    --      0.9918                 2.2686                44.8669

                     28                     29                     30
                      A                      A                      A
 Frequencies --    757.7068               767.5076               807.2643
 Red. masses --      2.2289                 3.1662                 1.3786
 Frc consts  --      0.7540                 1.0989                 0.5293
 IR Inten    --     11.1982                 2.6343                 0.1357

                     31                     32                     33
                      A                      A                      A
 Frequencies --    846.4933               857.1620               904.1654
 Red. masses --      1.5382                 4.5743                 1.3239
 Frc consts  --      0.6494                 1.9801                 0.6377
 IR Inten    --      2.4545                 2.6999                 1.4136

                     34                     35                     36
                      A                      A                      A
 Frequencies --    956.7452               978.8988               994.4424
 Red. masses --      1.2381                 3.3627                 3.9421
 Frc consts  --      0.6677                 1.8985                 2.2969
 IR Inten    --      0.0968                 1.0716                 4.6897

                     37                     38                     39
                      A                      A                      A
 Frequencies --   1009.8807              1070.4517              1076.0262
 Red. masses --      1.5035                 2.3705                 1.8694
 Frc consts  --      0.9034                 1.6004                 1.2753
 IR Inten    --      1.8144                 7.8228                 2.0500

                     40                     41                     42
                      A                      A                      A
 Frequencies --   1076.3545              1098.4747              1099.0425
 Red. masses --      1.4260                 1.9472                 2.0442
 Frc consts  --      0.9734                 1.3843                 1.4548
 IR Inten    --      1.0471                10.0791                 0.9803

                     43                     44                     45
                      A                      A                      A
 Frequencies --   1135.7696              1192.8664              1196.8032
 Red. masses --      1.9231                 1.5162                 1.9085
 Frc consts  --      1.4616                 1.2712                 1.6106
 IR Inten    --      9.3211                14.0079                 5.3991

                     46                     47                     48
                      A                      A                      A
 Frequencies --   1198.8024              1261.5530              1293.2840
 Red. masses --      1.2135                 2.1171                 1.6567
 Frc consts  --      1.0275                 1.9852                 1.6326
 IR Inten    --     13.6418                26.9904                 5.3590

                     49                     50                     51
                      A                      A                      A
 Frequencies --   1309.6696              1340.2132              1367.7519
 Red. masses --      2.1071                 2.0962                 2.2057
 Frc consts  --      2.1294                 2.2183                 2.4312
 IR Inten    --     15.4144                 2.2918                26.2333

                     52                     53                     54
                      A                      A                      A
 Frequencies --   1373.8715              1384.0863              1424.4041
 Red. masses --      1.7532                 3.0129                 2.3447
 Frc consts  --      1.9497                 3.4006                 2.8028
 IR Inten    --     26.7863                23.7588                10.4032

                     55                     56                     57
                      A                      A                      A
 Frequencies --   1433.4166              1448.1688              1456.8617
 Red. masses --      1.3342                 2.2482                 2.2864
 Frc consts  --      1.6152                 2.7779                 2.8592
 IR Inten    --      1.0135                 4.5052                 3.3806

                     58                     59                     60
                      A                      A                      A
 Frequencies --   1505.9687              1509.9526              1511.4996
 Red. masses --      2.2850                 1.1113                 1.0672
 Frc consts  --      3.0533                 1.4929                 1.4365
 IR Inten    --     24.5330                 3.4274                 7.2700

                     61                     62                     63
                      A                      A                      A
 Frequencies --   1524.2875              1525.6525              1537.6630
 Red. masses --      1.1159                 1.0829                 1.1011
 Frc consts  --      1.5276                 1.4850                 1.5339
 IR Inten    --     10.5249                 6.7997                 8.8196

                     64                     65                     66
                      A                      A                      A
 Frequencies --   1549.1520              1579.5006              1625.2287
 Red. masses --      2.5899                 4.2859                 4.3995
 Frc consts  --      3.6620                 6.2999                 6.8467
 IR Inten    --     63.2072                10.1907                 6.4954

                     67                     68                     69
                      A                      A                      A
 Frequencies --   1656.4084              1668.3278              1690.0046
 Red. masses --      5.9354                 2.5722                 1.7414
 Frc consts  --      9.5948                 4.2181                 2.9304
 IR Inten    --     47.7552                39.8124               169.4609

                     70                     71                     72
                      A                      A                      A
 Frequencies --   3030.5003              3042.4730              3050.7108
 Red. masses --      1.0408                 1.0622                 1.0353
 Frc consts  --      5.6315                 5.7933                 5.6768
 IR Inten    --     63.2116                36.4259                38.9257

                     73                     74                     75
                      A                      A                      A
 Frequencies --   3073.6928              3080.3387              3117.3035
 Red. masses --      1.1016                 1.1001                 1.1031
 Frc consts  --      6.1322                 6.1499                 6.3157
 IR Inten    --     24.2215                18.1828                49.3391

                     76                     77                     78
                      A                      A                      A
 Frequencies --   3132.5904              3139.9195              3170.6122
 Red. masses --      1.1024                 1.0955                 1.0859
 Frc consts  --      6.3739                 6.3634                 6.4316
 IR Inten    --     31.9352                14.9601                27.7121

                     79                     80                     81
                      A                      A                      A
 Frequencies --   3173.9451              3193.5395              3212.7775
 Red. masses --      1.0879                 1.0915                 1.0965
 Frc consts  --      6.4572                 6.5585                 6.6685
 IR Inten    --      2.2502                28.8215                29.2187

                     82                     83                     84
                      A                      A                      A
 Frequencies --   3458.1045              3658.0814              3659.7223
 Red. masses --      1.0581                 1.0912                 1.0797
 Frc consts  --      7.4553                 8.6031                 8.5201
 IR Inten    --    173.0532                43.6183                33.4222

 - Thermochemistry -
 -------------------
 Temperature   298.150 Kelvin.  Pressure   1.00000 Atm.
 Atom     1 has atomic number  6 and mass  12.00000

 Molecular mass:   201.12660 amu.
 Principal axes and moments of inertia in atomic units:
                           1         2         3
     Eigenvalues --  1481.288315057.998346284.65323
           X            0.99999   0.00245  -0.00243
           Y           -0.00246   0.99998  -0.00633
           Z            0.00241   0.00633   0.99998
 This molecule is an asymmetric top.
 Rotational symmetry number  1.
 Warning -- assumption of classical behavior for rotation
           may cause significant error
 Rotational temperatures (Kelvin)      0.05847     0.01712     0.01378
 Rotational constants (GHZ):           1.21836     0.35681     0.28717
 Zero-point vibrational energy     667475.8 (Joules/Mol)
                                  159.53055 (Kcal/Mol)
 Warning -- explicit consideration of  21 degrees of freedom as
           vibrations may cause significant error
 Vibrational temperatures:     43.86    67.86    99.84   171.43   187.16
          (Kelvin)            213.13   270.10   303.99   345.31   387.25
                              433.10   470.17   475.58   572.37   604.45
                              653.78   655.32   724.62   764.40   796.06
                              823.47   913.21   916.96   957.92   998.89
                             1036.38  1072.57  1090.17  1104.27  1161.47
                             1217.92  1233.26  1300.89  1376.54  1408.42
                             1430.78  1452.99  1540.14  1548.16  1548.63
                             1580.46  1581.28  1634.12  1716.27  1721.93
                             1724.81  1815.09  1860.75  1884.32  1928.27
                             1967.89  1976.69  1991.39  2049.40  2062.37
                             2083.59  2096.10  2166.75  2172.49  2174.71
                             2193.11  2195.07  2212.35  2228.88  2272.55
                             2338.34  2383.20  2400.35  2431.54  4360.21
                             4377.44  4389.29  4422.36  4431.92  4485.10
                             4507.10  4517.64  4561.80  4566.60  4594.79
                             4622.47  4975.44  5263.16  5265.52

 Zero-point correction=                           0.254228 (Hartree/Particle)
 Thermal correction to Energy=                    0.268444
 Thermal correction to Enthalpy=                  0.269388
 Thermal correction to Gibbs Free Energy=         0.212660
 Sum of electronic and zero-point Energies=           -630.396376
 Sum of electronic and thermal Energies=              -630.382159
 Sum of electronic and thermal Enthalpies=            -630.381215
 Sum of electronic and thermal Free Energies=         -630.437944

                     E (Thermal)             CV                S
                      KCal/Mol        Cal/Mol-Kelvin    Cal/Mol-Kelvin
 Total                  168.451             54.823            119.395
 Electronic               0.000              0.000              0.000
 Translational            0.889              2.981             41.801
 Rotational               0.889              2.981             32.221
 Vibrational            166.674             48.862             45.374
 Vibration     1          0.594              1.984              5.798
 Vibration     2          0.595              1.979              4.933
 Vibration     3          0.598              1.969              4.170
 Vibration     4          0.609              1.933              3.114
 Vibration     5          0.612              1.923              2.945
 Vibration     6          0.618              1.905              2.696
 Vibration     7          0.632              1.857              2.250
 Vibration     8          0.643              1.824              2.033
 Vibration     9          0.657              1.779              1.803
 Vibration    10          0.674              1.730              1.602
 Vibration    11          0.693              1.672              1.411
 Vibration    12          0.710              1.622              1.276
 Vibration    13          0.713              1.614              1.257
 Vibration    14          0.764              1.475              0.971
 Vibration    15          0.783              1.427              0.892
 Vibration    16          0.813              1.351              0.783
 Vibration    17          0.814              1.349              0.779
 Vibration    18          0.859              1.242              0.649
 Vibration    19          0.886              1.181              0.584
 Vibration    20          0.909              1.132              0.537
 Vibration    21          0.929              1.091              0.500

 Optimization completed.
    -- Stationary point found.
 Normal termination of Gaussian 16 at Thu Dec 10 15:02:41 2020.

 ----------------------------------------------------------------------
 # B3LYP/6-311++G(d,p) empiricaldispersion=gd3bj scf=xqc pop=npa geom=c
 heck
 ----------------------------------------------------------------------

 --------------------------------------
 CID_61394075_JID_5187_Energie_neutraal
 --------------------------------------
 Structure from the checkpoint file:  "JID_5187.chk"
 Charge =  0 Multiplicity = 1

 SCF Done:  E(RB3LYP) =  -630.823944167     A.U. after   15 cycles
 Normal termination of Gaussian 16 at Thu Dec 10 15:06:52 2020.

 ----------------------------------------------------------------------
 # B3LYP/6-311++G(d,p) empiricaldispersion=gd3bj scf=xqc pop=npa geom=c
 heck
 ----------------------------------------------------------------------

 ------------------------------------
 CID_61394075_JID_5187_Energie_kation
 ------------------------------------
 Structure from the checkpoint file:  "JID_5187.chk"
 Charge =  1 Multiplicity = 2

 SCF Done:  E(UB3LYP) =  -630.572826197     A.U. after   22 cycles
 Normal termination of Gaussian 16 at Thu Dec 10 15:16:15 2020.
 Gaussian 16:  ES64L-G16RevA.03 25-Dec-2016

 ----------------------------------------------------------------------
 # B3LYP/6-311++G(d,p) empiricaldispersion=gd3bj scf=xqc pop=npa geom=c
 heck
 ----------------------------------------------------------------------

 -----------------------------------
 CID_61394075_JID_5187_Energie_anion
 -----------------------------------
 Structure from the checkpoint file:  "JID_5187.chk"
 Charge = -1 Multiplicity = 2

                         Standard orientation:
 ---------------------------------------------------------------------
 Center     Atomic      Atomic             Coordinates (Angstroms)
 Number     Number       Type             X           Y           Z
 ---------------------------------------------------------------------
      1          6           0       -3.591208   -1.853065    1.024290
      2          6           0       -3.391073   -1.055920   -0.274092
      3          6           0       -2.186310   -0.168350   -0.221448
      4          6           0       -2.115071    1.206851   -0.194892
      5          7           0       -0.761208    1.493761   -0.107424
      6          6           0       -0.062352    0.311174   -0.088012
      7          7           0       -0.915966   -0.706117   -0.154849
      8          6           0        1.392260    0.228430    0.006046
      9          6           0        2.152808    1.365267    0.328458
     10          6           0        3.537115    1.327913    0.428114
     11          6           0        4.196234    0.114113    0.206584
     12          6           0        3.474541   -1.028054   -0.105870
     13          6           0        2.069291   -1.006362   -0.215895
     14          7           0        1.386109   -2.143834   -0.573926
     15          6           0       -3.153512    2.275841   -0.240687
     16          1           0       -2.699351   -2.448538    1.243117
     17          1           0       -4.449852   -2.529484    0.945511
     18          1           0       -3.759882   -1.179804    1.872214
     19          1           0       -3.281387   -1.755540   -1.113018
     20          1           0       -4.283840   -0.454766   -0.483816
     21          1           0       -0.359525    2.418342   -0.135896
     22          1           0        1.642510    2.302533    0.537131
     23          1           0        4.092771    2.224280    0.684074
     24          1           0        5.278635    0.057839    0.284001
     25          1           0        3.990860   -1.969377   -0.279690
     26          1           0        0.380281   -2.127954   -0.415414
     27          1           0        1.862998   -3.023314   -0.439250
     28          1           0       -3.156082    2.888140    0.671031
     29          1           0       -3.010572    2.954125   -1.092645
     30          1           0       -4.146451    1.829818   -0.339531
 ---------------------------------------------------------------------

 SCF Done:  E(UB3LYP) =  -630.812814472     A.U. after   33 cycles
 SCF Done:  E(UB3LYP) =  -630.812814472     a.u. after    1 cycles

 The electronic state is 2-A.
 Alpha  occ. eigenvalues --  -14.25311 -14.21322 -14.18954 -10.12887 -10.12097
 Alpha  occ. eigenvalues --  -10.09898 -10.08417 -10.08212 -10.07663 -10.07471
 Alpha  occ. eigenvalues --  -10.07381 -10.07143 -10.06851 -10.06646 -10.06418
 Alpha  occ. eigenvalues --   -0.90955  -0.82479  -0.76848  -0.74292  -0.69899
 Alpha  occ. eigenvalues --   -0.66431  -0.64386  -0.63074  -0.58436  -0.54046
 Alpha  occ. eigenvalues --   -0.52415  -0.51105  -0.48993  -0.45380  -0.43694
 Alpha  occ. eigenvalues --   -0.41405  -0.40648  -0.37984  -0.35442  -0.35253
 Alpha  occ. eigenvalues --   -0.33876  -0.33445  -0.32983  -0.31924  -0.30709
 Alpha  occ. eigenvalues --   -0.30323  -0.29164  -0.28658  -0.27559  -0.26856
 Alpha  occ. eigenvalues --   -0.25629  -0.24968  -0.24825  -0.21822  -0.17949
 Alpha  occ. eigenvalues --   -0.17650  -0.16974  -0.12187  -0.09288   0.04351
 Alpha virt. eigenvalues --    0.06181   0.06377   0.06719   0.07695   0.08112
 Alpha virt. eigenvalues --    0.09010   0.09477   0.09907   0.10233   0.10490
 Alpha virt. eigenvalues --    0.11406   0.12052   0.12614   0.13464   0.13892

  Beta  occ. eigenvalues --  -14.25258 -14.21317 -14.18942 -10.12878 -10.12098
  Beta  occ. eigenvalues --  -10.09880 -10.08403 -10.08217 -10.07632 -10.07422
  Beta  occ. eigenvalues --  -10.07366 -10.07129 -10.06788 -10.06648 -10.06406
  Beta  occ. eigenvalues --   -0.90911  -0.82464  -0.76788  -0.74244  -0.69861
  Beta  occ. eigenvalues --   -0.66389  -0.64310  -0.63031  -0.58373  -0.54004
  Beta  occ. eigenvalues --   -0.52326  -0.51051  -0.48947  -0.45342  -0.43640
  Beta  occ. eigenvalues --   -0.41368  -0.40609  -0.37943  -0.35394  -0.35205
  Beta  occ. eigenvalues --   -0.33839  -0.33408  -0.32936  -0.31886  -0.30644
  Beta  occ. eigenvalues --   -0.30254  -0.29107  -0.28610  -0.27510  -0.26821
  Beta  occ. eigenvalues --   -0.25599  -0.24937  -0.24801  -0.21757  -0.17854
  Beta  occ. eigenvalues --   -0.17606  -0.16871  -0.12104  -0.09213
  Beta virt. eigenvalues --    0.06245   0.06594   0.06871   0.07389   0.08131
  Beta virt. eigenvalues --    0.08749   0.09168   0.09629   0.10412   0.10527
  Beta virt. eigenvalues --    0.11039   0.11870   0.12420   0.12760   0.13619

 Mulliken charges and spin densities:
               1          2
     1  C   -0.134431  -0.410376
     2  C   -1.062325   0.709396
     3  C    0.770634  -0.468700
     4  C   -0.914522   1.150645
     5  N   -0.373126   0.312164
     6  C    0.840186  -0.977869
     7  N   -0.048352   0.028976
     8  C    0.656274  -0.022703
     9  C   -0.336713  -0.212614
    10  C    0.215566  -0.632495
    11  C    0.727358  -0.880349
    12  C   -0.929889   0.328704
    13  C   -0.114192   0.110416
    14  N   -0.365698   0.021694
    15  C    2.075729  -2.593913
    16  H    0.108291   0.034855
    17  H   -0.094368   0.213703
    18  H    0.060693   0.072495
    19  H    0.061324   0.080466
    20  H   -0.026834   0.174668
    21  H   -0.244923   0.559686
    22  H   -0.697852   0.790517
    23  H   -0.222704   0.379908
    24  H    0.043463   0.088168
    25  H   -0.095891   0.208009
    26  H    0.345249   0.002638
    27  H    0.169362   0.051666
    28  H   -0.651329   0.835316
    29  H   -0.422133   0.576076
    30  H   -0.338849   0.468854
 Sum of Mulliken charges =  -1.00000   1.00000

 Dipole moment (field-independent basis, Debye):
    X=              3.3984    Y=             -7.6462    Z=             -0.7837  Tot=              8.4041
 Quadrupole moment (field-independent basis, Debye-Ang):
   XX=           -158.4884   YY=           -142.6212   ZZ=           -118.4598
   XY=              6.9331   XZ=              1.0996   YZ=             -3.0666

 Summary of Natural Population Analysis:

                                       Natural Population
                Natural  -----------------------------------------------
    Atom  No    Charge         Core      Valence    Rydberg      Total
 -----------------------------------------------------------------------
      C    1   -0.28009      0.99966     2.27622    0.00421     3.28009
      C    2   -0.19980      0.99961     2.19159    0.00861     3.19980
      C    3    0.05266      0.99947     1.93222    0.01566     2.94734
      C    4    0.06981      0.99946     1.91861    0.01212     2.93019
      N    5   -0.26542      0.99963     2.75624    0.00955     3.76542
      C    6    0.19065      0.99958     1.79353    0.01624     2.80935
      N    7   -0.28349      0.99966     2.77361    0.01023     3.78349
      C    8   -0.07000      0.99946     2.06083    0.00971     3.07000
      C    9   -0.07635      0.99955     2.06731    0.00949     3.07635
      C   10   -0.12813      0.99956     2.11779    0.01077     3.12813
      C   11   -0.09096      0.99957     2.08178    0.00960     3.09096
      C   12   -0.12901      0.99954     2.12075    0.00873     3.12901
      C   13    0.10350      0.99950     1.88657    0.01043     2.89650
      N   14   -0.40023      0.99969     2.89152    0.00902     3.90023
      C   15   -0.30053      0.99964     2.29494    0.00595     3.30053
      H   16    0.09974      0.00000     0.39887    0.00139     0.40026
      H   17    0.09224      0.00000     0.40671    0.00106     0.40776
      H   18    0.09724      0.00000     0.40150    0.00126     0.40276
      H   19    0.09823      0.00000     0.40054    0.00122     0.40177
      H   20    0.10082      0.00000     0.39789    0.00129     0.39918
      H   21    0.20871      0.00000     0.28547    0.00582     0.29129
      H   22    0.09957      0.00000     0.39790    0.00253     0.40043
      H   23    0.10094      0.00000     0.39812    0.00094     0.39906
      H   24    0.09670      0.00000     0.40252    0.00078     0.40330
      H   25    0.09381      0.00000     0.40481    0.00138     0.40619
      H   26    0.21310      0.00000     0.28469    0.00221     0.28690
      H   27    0.18092      0.00000     0.31762    0.00146     0.31908
      H   28    0.11110      0.00000     0.38478    0.00411     0.38890
      H   29    0.10597      0.00000     0.39238    0.00165     0.39403
      H   30    0.10830      0.00000     0.39002    0.00168     0.39170
 =======================================================================
   * Total *   -0.00000     14.99358    38.82732    0.17910    54.00000

 Normal termination of Gaussian 16 at Thu Dec 10 15:31:59 2020.
