 Gaussian 16, Revision A.03,

 -----------------------------------------------------------
 # opt freq B3LYP/6-31G(d) empiricaldispersion=gd3bj scf=xqc
 -----------------------------------------------------------

 -------------------------------
 CID_149977280_JID_6664_neutraal
 -------------------------------
 Symbolic Z-matrix:
 Charge =  0 Multiplicity = 1

 SCF Done:  E(RB3LYP) =  -1068.49530495     A.U. after   15 cycles
 SCF Done:  E(RB3LYP) =  -1068.50316200     A.U. after   12 cycles
 SCF Done:  E(RB3LYP) =  -1068.50404441     A.U. after   12 cycles
 SCF Done:  E(RB3LYP) =  -1068.50424584     A.U. after   11 cycles
 SCF Done:  E(RB3LYP) =  -1068.50429991     A.U. after   11 cycles
 SCF Done:  E(RB3LYP) =  -1068.50431790     A.U. after   10 cycles
 SCF Done:  E(RB3LYP) =  -1068.50432437     A.U. after   10 cycles
 SCF Done:  E(RB3LYP) =  -1068.50432500     A.U. after    8 cycles
 SCF Done:  E(RB3LYP) =  -1068.50432509     A.U. after    7 cycles
 Optimization completed.
    -- Stationary point found.
 Normal termination of Gaussian 16 at Fri Dec 11 00:05:42 2020.

 --------------------------------------------------------------------
 #N Geom=AllCheck Guess=TCheck SCRF=Check GenChk RB3LYP/6-31G(d) Freq
 --------------------------------------------------------------------

 Structure from the checkpoint file:  "JID_6664.chk"
 -------------------------------
 CID_149977280_JID_6664_neutraal
 -------------------------------
 Charge =  0 Multiplicity = 1

 SCF Done:  E(RB3LYP) =  -1068.50432509     A.U. after    1 cycles

  Exact polarizability: 186.922  12.376 165.725   8.087  -0.331  89.882
 Approx polarizability: 273.844  17.466 279.997  16.124  -0.049 151.815

                      1                      2                      3
                      A                      A                      A
 Frequencies --     58.2164                90.0705               111.0376
 Red. masses --      4.0658                 4.3746                 3.5765
 Frc consts  --      0.0081                 0.0209                 0.0260
 IR Inten    --      0.5573                 2.6955                 0.9047

                      4                      5                      6
                      A                      A                      A
 Frequencies --    135.6113               198.3117               209.7120
 Red. masses --      3.3027                 7.4017                 3.1359
 Frc consts  --      0.0358                 0.1715                 0.0813
 IR Inten    --      2.4188                 0.7848                 2.0094

                      7                      8                      9
                      A                      A                      A
 Frequencies --    229.2746               240.8367               249.2442
 Red. masses --      1.5079                 3.0076                 3.4776
 Frc consts  --      0.0467                 0.1028                 0.1273
 IR Inten    --      1.7451                 6.1954                 4.8862

                     10                     11                     12
                      A                      A                      A
 Frequencies --    260.9928               302.3532               331.3958
 Red. masses --      2.5936                 4.1037                 6.8028
 Frc consts  --      0.1041                 0.2210                 0.4402
 IR Inten    --      0.8889                 2.6854                 2.1782

                     13                     14                     15
                      A                      A                      A
 Frequencies --    384.4044               391.6024               419.1171
 Red. masses --      5.5910                 5.2346                 4.1244
 Frc consts  --      0.4868                 0.4730                 0.4269
 IR Inten    --      3.4475                11.3833                 1.8475

                     16                     17                     18
                      A                      A                      A
 Frequencies --    462.9947               505.2836               543.1935
 Red. masses --      6.1695                 5.9136                 4.4883
 Frc consts  --      0.7792                 0.8896                 0.7803
 IR Inten    --     12.2589                26.0895                 6.2879

                     19                     20                     21
                      A                      A                      A
 Frequencies --    547.9582               563.5894               625.0931
 Red. masses --      3.7942                 4.6570                 4.3068
 Frc consts  --      0.6712                 0.8715                 0.9915
 IR Inten    --      5.2134                20.2627                 4.2073

                     22                     23                     24
                      A                      A                      A
 Frequencies --    671.8419               688.4410               746.7648
 Red. masses --      4.1723                 3.3954                 4.0129
 Frc consts  --      1.1096                 0.9481                 1.3185
 IR Inten    --      1.6337                 6.0974                17.1997

                     25                     26                     27
                      A                      A                      A
 Frequencies --    775.9039               778.4895               809.7219
 Red. masses --      3.1384                 1.5679                 3.1738
 Frc consts  --      1.1132                 0.5598                 1.2260
 IR Inten    --     10.6587                33.2489                14.1924

                     28                     29                     30
                      A                      A                      A
 Frequencies --    814.5864               858.4877               898.8035
 Red. masses --      3.4576                 2.2892                 1.4972
 Frc consts  --      1.3518                 0.9940                 0.7126
 IR Inten    --      3.4957                 0.2033                 1.0751

                     31                     32                     33
                      A                      A                      A
 Frequencies --    907.7213               954.9775               971.5369
 Red. masses --      2.7586                 2.7093                 1.3514
 Frc consts  --      1.3392                 1.4558                 0.7516
 IR Inten    --      1.4932                 6.4774                 0.8855

                     34                     35                     36
                      A                      A                      A
 Frequencies --    992.3087               999.7596              1002.4185
 Red. masses --      2.0021                 2.3104                 1.3050
 Frc consts  --      1.1615                 1.3606                 0.7726
 IR Inten    --      0.2902                 2.5488                 0.0980

                     37                     38                     39
                      A                      A                      A
 Frequencies --   1016.3564              1050.8898              1072.9194
 Red. masses --      3.5002                 2.9388                 2.0506
 Frc consts  --      2.1303                 1.9122                 1.3908
 IR Inten    --     13.5745                22.0927                 0.1636

                     40                     41                     42
                      A                      A                      A
 Frequencies --   1082.6848              1100.2847              1105.9015
 Red. masses --      2.3339                 2.3620                 2.2591
 Frc consts  --      1.6119                 1.6848                 1.6279
 IR Inten    --     13.1397                72.9818                 2.3612

                     43                     44                     45
                      A                      A                      A
 Frequencies --   1116.8222              1147.4718              1198.6905
 Red. masses --      4.5095                 1.7303                 1.1904
 Frc consts  --      3.3140                 1.3423                 1.0077
 IR Inten    --     89.1193                 7.1764                 2.1473

                     46                     47                     48
                      A                      A                      A
 Frequencies --   1200.1025              1211.3774              1212.5362
 Red. masses --      1.2114                 1.5728                 1.5983
 Frc consts  --      1.0279                 1.3598                 1.3845
 IR Inten    --     11.3287                 4.9241                 6.0848

                     49                     50                     51
                      A                      A                      A
 Frequencies --   1258.5347              1266.8260              1294.5215
 Red. masses --      1.3803                 1.6359                 1.6536
 Frc consts  --      1.2881                 1.5469                 1.6327
 IR Inten    --      9.6991                 4.5315                18.6266

                     52                     53                     54
                      A                      A                      A
 Frequencies --   1304.9294              1317.2151              1328.0628
 Red. masses --      1.4696                 3.4145                 1.8857
 Frc consts  --      1.4744                 3.4905                 1.9595
 IR Inten    --     20.9908               113.4617                 2.7251

                     55                     56                     57
                      A                      A                      A
 Frequencies --   1341.8706              1361.8813              1363.2849
 Red. masses --      1.8366                 1.5819                 2.2388
 Frc consts  --      1.9484                 1.7286                 2.4516
 IR Inten    --      5.9304                 6.2622                56.6777

                     58                     59                     60
                      A                      A                      A
 Frequencies --   1368.2377              1435.5362              1498.3490
 Red. masses --      2.3639                 1.2063                 2.3278
 Frc consts  --      2.6074                 1.4647                 3.0791
 IR Inten    --     10.0438                 4.5909                 9.6154

                     61                     62                     63
                      A                      A                      A
 Frequencies --   1512.8272              1522.8039              1525.8112
 Red. masses --      1.0924                 1.0464                 1.0776
 Frc consts  --      1.4730                 1.4297                 1.4781
 IR Inten    --      3.5716                10.3698                 2.8290

                     64                     65                     66
                      A                      A                      A
 Frequencies --   1527.6672              1535.0848              1628.7748
 Red. masses --      1.1336                 2.3480                 6.1813
 Frc consts  --      1.5587                 3.2600                 9.6616
 IR Inten    --      2.6891                10.7192                 1.3280

                     67                     68                     69
                      A                      A                      A
 Frequencies --   1661.5410              1697.0470              3041.2598
 Red. masses --      5.7312                 9.4932                 1.0702
 Frc consts  --      9.3222                16.1082                 5.8320
 IR Inten    --     19.9363                54.7331                45.5547

                     70                     71                     72
                      A                      A                      A
 Frequencies --   3067.1474              3076.6709              3078.5935
 Red. masses --      1.0398                 1.0813                 1.0821
 Frc consts  --      5.7634                 6.0307                 6.0424
 IR Inten    --      8.0458                 7.6375                 4.5604

                     73                     74                     75
                      A                      A                      A
 Frequencies --   3090.0441              3109.5108              3134.8137
 Red. masses --      1.0656                 1.0927                 1.1023
 Frc consts  --      5.9948                 6.2250                 6.3820
 IR Inten    --      5.6169                30.2651                14.3467

                     76                     77                     78
                      A                      A                      A
 Frequencies --   3155.4230              3164.1137              3182.4763
 Red. masses --      1.1039                 1.1031                 1.0876
 Frc consts  --      6.4757                 6.5068                 6.4901
 IR Inten    --     13.9127                 6.6930                 5.7507

                     79                     80                     81
                      A                      A                      A
 Frequencies --   3198.3342              3212.7881              3230.9671
 Red. masses --      1.0892                 1.0950                 1.0936
 Frc consts  --      6.5648                 6.6593                 6.7260
 IR Inten    --     10.2485                21.7921                 5.5408

 - Thermochemistry -
 -------------------
 Temperature   298.150 Kelvin.  Pressure   1.00000 Atm.
 Atom     1 has atomic number  6 and mass  12.00000

 Molecular mass:   235.06670 amu.
 Principal axes and moments of inertia in atomic units:
                           1         2         3
     Eigenvalues --  2479.708783692.051805351.66070
           X            0.99812   0.06075   0.00795
           Y           -0.06060   0.99801  -0.01768
           Z           -0.00901   0.01717   0.99981
 This molecule is an asymmetric top.
 Rotational symmetry number  1.
 Warning -- assumption of classical behavior for rotation
           may cause significant error
 Rotational temperatures (Kelvin)      0.03493     0.02346     0.01618
 Rotational constants (GHZ):           0.72780     0.48882     0.33723
 Zero-point vibrational energy     614527.9 (Joules/Mol)
                                  146.87569 (Kcal/Mol)
 Warning -- explicit consideration of  20 degrees of freedom as
           vibrations may cause significant error
 Vibrational temperatures:     83.76   129.59   159.76   195.11   285.33
          (Kelvin)            301.73   329.87   346.51   358.61   375.51
                              435.02   476.80   553.07   563.43   603.02
                              666.15   726.99   781.53   788.39   810.88
                              899.37   966.63   990.51  1074.43  1116.35
                             1120.07  1165.01  1172.01  1235.17  1293.18
                             1306.01  1374.00  1397.82  1427.71  1438.43
                             1442.26  1462.31  1512.00  1543.69  1557.74
                             1583.06  1591.15  1606.86  1650.96  1724.65
                             1726.68  1742.90  1744.57  1810.75  1822.68
                             1862.53  1877.50  1895.18  1910.79  1930.65
                             1959.44  1961.46  1968.59  2065.42  2155.79
                             2176.62  2190.98  2195.30  2197.97  2208.64
                             2343.44  2390.59  2441.67  4375.69  4412.94
                             4426.64  4429.41  4445.88  4473.89  4510.30
                             4539.95  4552.45  4578.87  4601.69  4622.49
                             4648.64

 Zero-point correction=                           0.234061 (Hartree/Particle)
 Thermal correction to Energy=                    0.247298
 Thermal correction to Enthalpy=                  0.248242
 Thermal correction to Gibbs Free Energy=         0.194629
 Sum of electronic and zero-point Energies=          -1068.270264
 Sum of electronic and thermal Energies=             -1068.257028
 Sum of electronic and thermal Enthalpies=           -1068.256083
 Sum of electronic and thermal Free Energies=        -1068.309697

                     E (Thermal)             CV                S
                      KCal/Mol        Cal/Mol-Kelvin    Cal/Mol-Kelvin
 Total                  155.182             52.990            112.838
 Electronic               0.000              0.000              0.000
 Translational            0.889              2.981             42.266
 Rotational               0.889              2.981             32.260
 Vibrational            153.404             47.028             38.312
 Vibration     1          0.596              1.974              4.517
 Vibration     2          0.602              1.956              3.659
 Vibration     3          0.607              1.940              3.251
 Vibration     4          0.613              1.918              2.865
 Vibration     5          0.637              1.842              2.149
 Vibration     6          0.642              1.826              2.046
 Vibration     7          0.652              1.796              1.885
 Vibration     8          0.658              1.778              1.797
 Vibration     9          0.662              1.764              1.736
 Vibration    10          0.669              1.744              1.655
 Vibration    11          0.694              1.669              1.404
 Vibration    12          0.714              1.613              1.253
 Vibration    13          0.753              1.503              1.022
 Vibration    14          0.759              1.488              0.994
 Vibration    15          0.782              1.429              0.895
 Vibration    16          0.821              1.332              0.757
 Vibration    17          0.861              1.238              0.645
 Vibration    18          0.898              1.155              0.558
 Vibration    19          0.903              1.144              0.548
 Vibration    20          0.919              1.110              0.517

 Optimization completed.
    -- Stationary point found.
 Normal termination of Gaussian 16 at Fri Dec 11 00:15:45 2020.

 ----------------------------------------------------------------------
 # B3LYP/6-311++G(d,p) empiricaldispersion=gd3bj scf=xqc pop=npa geom=c
 heck
 ----------------------------------------------------------------------

 ---------------------------------------
 CID_149977280_JID_6664_Energie_neutraal
 ---------------------------------------
 Structure from the checkpoint file:  "JID_6664.chk"
 Charge =  0 Multiplicity = 1

 SCF Done:  E(RB3LYP) =  -1068.70690653     A.U. after   16 cycles
 Normal termination of Gaussian 16 at Fri Dec 11 00:19:48 2020.

 ----------------------------------------------------------------------
 # B3LYP/6-311++G(d,p) empiricaldispersion=gd3bj scf=xqc pop=npa geom=c
 heck
 ----------------------------------------------------------------------

 -------------------------------------
 CID_149977280_JID_6664_Energie_kation
 -------------------------------------
 Structure from the checkpoint file:  "JID_6664.chk"
 Charge =  1 Multiplicity = 2

 SCF Done:  E(UB3LYP) =  -1068.38589099     A.U. after   29 cycles
 Normal termination of Gaussian 16 at Fri Dec 11 00:29:38 2020.
 Gaussian 16:  ES64L-G16RevA.03 25-Dec-2016

 ----------------------------------------------------------------------
 # B3LYP/6-311++G(d,p) empiricaldispersion=gd3bj scf=xqc pop=npa geom=c
 heck
 ----------------------------------------------------------------------

 ------------------------------------
 CID_149977280_JID_6664_Energie_anion
 ------------------------------------
 Structure from the checkpoint file:  "JID_6664.chk"
 Charge = -1 Multiplicity = 2

                         Standard orientation:
 ---------------------------------------------------------------------
 Center     Atomic      Atomic             Coordinates (Angstroms)
 Number     Number       Type             X           Y           Z
 ---------------------------------------------------------------------
      1          6           0       -0.169920   -2.275510    1.551981
      2          6           0       -0.260776   -1.704337    0.130166
      3          6           0       -1.342387   -0.647834   -0.007547
      4          6           0       -2.649172   -1.105393   -0.215144
      5          6           0       -3.722275   -0.222831   -0.285223
      6          6           0       -3.500238    1.151128   -0.158666
      7          6           0       -2.209305    1.623256    0.030246
      8          6           0       -1.119693    0.739874    0.113651
      9          6           0        0.233172    1.304915    0.251188
     10          7           0        0.491786    2.554729    0.142779
     11          6           0        1.937945    2.765842    0.280168
     12          6           0        2.606473    1.378443    0.115283
     13          6           0        1.461805    0.442257    0.517645
     14         16           0        1.374153   -1.098663   -0.429582
     15          8           0        1.279374   -0.753398   -1.856985
     16          8           0        2.410563   -2.030498    0.045684
     17          1           0        0.008054   -1.484897    2.287597
     18          1           0        0.632427   -3.013085    1.621750
     19          1           0       -1.121435   -2.752798    1.805623
     20          1           0       -0.460861   -2.517319   -0.577270
     21          1           0       -2.821659   -2.173235   -0.322933
     22          1           0       -4.726356   -0.604447   -0.445465
     23          1           0       -4.330664    1.848294   -0.216902
     24          1           0       -2.005435    2.685323    0.109355
     25          1           0        2.135030    3.202317    1.269236
     26          1           0        2.274538    3.492526   -0.465298
     27          1           0        2.862189    1.208720   -0.935415
     28          1           0        3.502689    1.240212    0.722176
     29          1           0        1.509261    0.136210    1.569311
 ---------------------------------------------------------------------

 SCF Done:  E(UB3LYP) =  -1068.72148112     A.U. after   24 cycles

 The electronic state is 2-A.
 Alpha  occ. eigenvalues --  -88.91195 -18.99157 -18.98791 -14.12869 -10.09804
 Alpha  occ. eigenvalues --  -10.08395 -10.06692 -10.06645 -10.06048 -10.04871
 Alpha  occ. eigenvalues --  -10.04647 -10.03643 -10.03235 -10.02652 -10.02193
 Alpha  occ. eigenvalues --  -10.01900  -7.97800  -5.94076  -5.93940  -5.93873
 Alpha  occ. eigenvalues --   -0.98046  -0.87810  -0.79557  -0.73020  -0.69009
 Alpha  occ. eigenvalues --   -0.65545  -0.63054  -0.60362  -0.58610  -0.55816
 Alpha  occ. eigenvalues --   -0.49722  -0.47983  -0.47358  -0.44010  -0.40379
 Alpha  occ. eigenvalues --   -0.38936  -0.37529  -0.36958  -0.35179  -0.33539
 Alpha  occ. eigenvalues --   -0.33246  -0.31441  -0.30966  -0.30001  -0.29561
 Alpha  occ. eigenvalues --   -0.28267  -0.27427  -0.26639  -0.25704  -0.24899
 Alpha  occ. eigenvalues --   -0.24632  -0.22761  -0.21482  -0.20558  -0.20083
 Alpha  occ. eigenvalues --   -0.19848  -0.18078  -0.17404  -0.15759  -0.11761
 Alpha  occ. eigenvalues --   -0.11387  -0.10331   0.04343
 Alpha virt. eigenvalues --    0.08210   0.08793   0.09401   0.10344   0.10959
 Alpha virt. eigenvalues --    0.11117   0.11534   0.12024   0.12612   0.12887
 Alpha virt. eigenvalues --    0.13876   0.14071   0.15136   0.15599   0.15823

  Beta  occ. eigenvalues --  -88.91185 -18.99144 -18.98785 -14.12234 -10.09814
  Beta  occ. eigenvalues --  -10.08415 -10.06677 -10.06676 -10.06039 -10.04671
  Beta  occ. eigenvalues --  -10.04496 -10.03696 -10.03304 -10.02474 -10.01851
  Beta  occ. eigenvalues --  -10.01723  -7.97790  -5.94070  -5.93934  -5.93843
  Beta  occ. eigenvalues --   -0.98018  -0.87791  -0.78839  -0.72733  -0.68821
  Beta  occ. eigenvalues --   -0.65240  -0.62628  -0.60136  -0.58299  -0.55702
  Beta  occ. eigenvalues --   -0.49646  -0.47328  -0.47254  -0.43771  -0.40178
  Beta  occ. eigenvalues --   -0.38638  -0.37387  -0.36875  -0.35009  -0.33410
  Beta  occ. eigenvalues --   -0.33120  -0.31250  -0.30730  -0.29938  -0.29434
  Beta  occ. eigenvalues --   -0.28150  -0.27189  -0.26433  -0.25373  -0.24748
  Beta  occ. eigenvalues --   -0.24264  -0.22005  -0.21360  -0.20419  -0.19885
  Beta  occ. eigenvalues --   -0.19780  -0.17992  -0.16722  -0.14612  -0.11005
  Beta  occ. eigenvalues --   -0.10668  -0.08153
  Beta virt. eigenvalues --    0.08154   0.08751   0.09348   0.10280   0.10662
  Beta virt. eigenvalues --    0.11015   0.11119   0.11584   0.12120   0.12593
  Beta virt. eigenvalues --    0.12944   0.13870   0.14138   0.15168   0.15596

 Mulliken charges and spin densities:
               1          2
     1  C   -0.625960  -0.036019
     2  C   -0.481657   0.014635
     3  C    0.635697   0.103338
     4  C   -0.469433  -0.055614
     5  C   -0.405396   0.280854
     6  C   -0.613828  -0.048118
     7  C   -0.497457   0.198276
     8  C    0.838490   0.055605
     9  C   -0.551141   0.076979
    10  N   -0.083886   0.322879
    11  C   -0.215634  -0.024485
    12  C   -0.593084  -0.011341
    13  C    0.035398   0.003795
    14  S    0.528780   0.063910
    15  O   -0.249196  -0.001077
    16  O   -0.220098   0.008652
    17  H    0.130134   0.015231
    18  H    0.154066   0.009754
    19  H    0.137697   0.009581
    20  H    0.281767   0.001034
    21  H    0.097024   0.002455
    22  H    0.102764  -0.022310
    23  H    0.104615   0.003106
    24  H    0.178129  -0.011755
    25  H    0.105063   0.022675
    26  H    0.129937   0.009494
    27  H    0.173212  -0.008794
    28  H    0.129575   0.008483
    29  H    0.244423   0.008777
 Sum of Mulliken charges =  -1.00000   1.00000

 Dipole moment (field-independent basis, Debye):
    X=              0.8762    Y=             -2.1462    Z=              2.7902  Tot=              3.6276
 Quadrupole moment (field-independent basis, Debye-Ang):
   XX=           -133.5792   YY=           -125.9152   ZZ=           -116.5485
   XY=             11.3620   XZ=              3.2559   YZ=             -1.7182

 Summary of Natural Population Analysis:

                                       Natural Population
                Natural  -----------------------------------------------
    Atom  No    Charge         Core      Valence    Rydberg      Total
 -----------------------------------------------------------------------
      C    1   -0.28804      0.99964     2.28292    0.00548     3.28804
      C    2   -0.20287      0.99953     2.18926    0.01408     3.20287
      C    3    0.00688      0.99947     1.98379    0.00985     2.99312
      C    4   -0.12255      0.99953     2.11370    0.00932     3.12255
      C    5   -0.04420      0.99958     2.03483    0.00979     3.04420
      C    6   -0.12537      0.99957     2.11684    0.00895     3.12537
      C    7   -0.04462      0.99954     2.03584    0.00924     3.04462
      C    8   -0.01616      0.99944     2.00740    0.00932     3.01616
      C    9    0.14327      0.99948     1.84253    0.01473     2.85673
      N   10   -0.13956      0.99966     2.62729    0.01261     3.63956
      C   11   -0.10177      0.99965     2.09162    0.01050     3.10177
      C   12   -0.20512      0.99964     2.19686    0.00862     3.20512
      C   13   -0.23044      0.99947     2.21300    0.01797     3.23044
      S   14    1.03421      4.99917     1.87373    0.09290     6.96579
      O   15   -0.46809      0.99991     3.46231    0.00587     4.46809
      O   16   -0.48068      0.99991     3.47512    0.00565     4.48068
      H   17    0.10062      0.00000     0.39843    0.00095     0.39938
      H   18    0.10612      0.00000     0.39277    0.00110     0.39388
      H   19    0.10220      0.00000     0.39672    0.00108     0.39780
      H   20    0.11236      0.00000     0.38557    0.00207     0.38764
      H   21    0.08903      0.00000     0.41010    0.00086     0.41097
      H   22    0.08516      0.00000     0.41323    0.00161     0.41484
      H   23    0.09014      0.00000     0.40879    0.00106     0.40986
      H   24    0.10495      0.00000     0.39335    0.00171     0.39505
      H   25    0.08654      0.00000     0.41206    0.00140     0.41346
      H   26    0.08928      0.00000     0.40937    0.00135     0.41072
      H   27    0.10659      0.00000     0.39194    0.00147     0.39341
      H   28    0.09714      0.00000     0.40173    0.00113     0.40286
      H   29    0.11509      0.00000     0.38418    0.00073     0.38491
 =======================================================================
   * Total *    0.00013     19.99317    41.74530    0.26140    61.99987

 Normal termination of Gaussian 16 at Fri Dec 11 00:37:59 2020.
