 Gaussian 16, Revision A.03,

 -----------------------------------------------------------
 # opt freq B3LYP/6-31G(d) empiricaldispersion=gd3bj scf=xqc
 -----------------------------------------------------------

 ------------------------------
 CID_64034405_JID_1282_neutraal
 ------------------------------
 Symbolic Z-matrix:
 Charge =  0 Multiplicity = 1

 SCF Done:  E(RB3LYP) =  -931.096341161     A.U. after   15 cycles
 SCF Done:  E(RB3LYP) =  -931.102866071     A.U. after   13 cycles
 SCF Done:  E(RB3LYP) =  -931.101865032     A.U. after   13 cycles
 SCF Done:  E(RB3LYP) =  -931.103709983     A.U. after   12 cycles
 SCF Done:  E(RB3LYP) =  -931.104336663     A.U. after   12 cycles
 SCF Done:  E(RB3LYP) =  -931.104922139     A.U. after   12 cycles
 SCF Done:  E(RB3LYP) =  -931.105394163     A.U. after   14 cycles
 SCF Done:  E(RB3LYP) =  -931.105397574     A.U. after   13 cycles
 SCF Done:  E(RB3LYP) =  -931.105762077     A.U. after   12 cycles
 SCF Done:  E(RB3LYP) =  -931.105768255     A.U. after   11 cycles
 SCF Done:  E(RB3LYP) =  -931.107917425     A.U. after   11 cycles
 SCF Done:  E(RB3LYP) =  -931.107930197     A.U. after   10 cycles
 SCF Done:  E(RB3LYP) =  -931.107935676     A.U. after    9 cycles
 SCF Done:  E(RB3LYP) =  -931.107936778     A.U. after    8 cycles
 SCF Done:  E(RB3LYP) =  -931.107937718     A.U. after    8 cycles
 SCF Done:  E(RB3LYP) =  -931.107938014     A.U. after    7 cycles
 Optimization completed.
    -- Stationary point found.
 Normal termination of Gaussian 16 at Tue Dec  8 19:42:51 2020.

 --------------------------------------------------------------------
 #N Geom=AllCheck Guess=TCheck SCRF=Check GenChk RB3LYP/6-31G(d) Freq
 --------------------------------------------------------------------

 Structure from the checkpoint file:  "JID_1282.chk"
 ------------------------------
 CID_64034405_JID_1282_neutraal
 ------------------------------
 Charge =  0 Multiplicity = 1

 SCF Done:  E(RB3LYP) =  -931.107938014     A.U. after    1 cycles

  Exact polarizability: 108.146   5.795  84.454   3.029   3.284  79.698
 Approx polarizability: 145.581   9.295 128.636  -0.493  11.718 128.576

                      1                      2                      3
                      A                      A                      A
 Frequencies --     51.8794                78.0308                96.7844
 Red. masses --      5.1088                 5.8621                 4.8939
 Frc consts  --      0.0081                 0.0210                 0.0270
 IR Inten    --      3.5459                 2.4385                 1.9994

                      4                      5                      6
                      A                      A                      A
 Frequencies --    102.1355               157.8413               188.3490
 Red. masses --      3.8509                 4.5689                 1.4294
 Frc consts  --      0.0237                 0.0671                 0.0299
 IR Inten    --      9.6041                 1.8945                 0.6417

                      7                      8                      9
                      A                      A                      A
 Frequencies --    193.6397               219.1724               261.4265
 Red. masses --      1.7617                 3.2095                 3.3861
 Frc consts  --      0.0389                 0.0908                 0.1363
 IR Inten    --      3.2203                10.0126                20.3798

                     10                     11                     12
                      A                      A                      A
 Frequencies --    269.9055               296.6219               330.7128
 Red. masses --      1.5710                 2.5079                 2.8431
 Frc consts  --      0.0674                 0.1300                 0.1832
 IR Inten    --     21.2086                19.5091                 1.4411

                     13                     14                     15
                      A                      A                      A
 Frequencies --    364.7195               420.6338               456.4694
 Red. masses --      2.7441                 3.3688                 4.5173
 Frc consts  --      0.2151                 0.3512                 0.5546
 IR Inten    --      2.9762                12.6345                30.8917

                     16                     17                     18
                      A                      A                      A
 Frequencies --    479.5516               507.8124               561.9668
 Red. masses --      3.4176                 2.9770                 2.3737
 Frc consts  --      0.4631                 0.4523                 0.4417
 IR Inten    --      8.8267                23.3286               107.2923

                     19                     20                     21
                      A                      A                      A
 Frequencies --    619.3068               655.7200               712.1084
 Red. masses --      2.5876                 2.6126                 3.5366
 Frc consts  --      0.5847                 0.6619                 1.0566
 IR Inten    --     11.7981                23.9521                17.0990

                     22                     23                     24
                      A                      A                      A
 Frequencies --    782.2647               829.2881               883.1447
 Red. masses --      2.8146                 2.9677                 2.2516
 Frc consts  --      1.0148                 1.2025                 1.0347
 IR Inten    --     30.7979                16.9455                 4.9872

                     25                     26                     27
                      A                      A                      A
 Frequencies --    903.8794               928.3978               937.9106
 Red. masses --      2.5169                 1.7936                 1.5400
 Frc consts  --      1.2115                 0.9109                 0.7982
 IR Inten    --      7.5717                69.0881               105.2146

                     28                     29                     30
                      A                      A                      A
 Frequencies --   1005.4430              1013.6430              1065.3040
 Red. masses --      1.4140                 1.4255                 1.7210
 Frc consts  --      0.8422                 0.8629                 1.1507
 IR Inten    --      7.7142                38.7548                79.6192

                     31                     32                     33
                      A                      A                      A
 Frequencies --   1103.3721              1114.5010              1170.4776
 Red. masses --      2.5675                 2.7626                 1.6990
 Frc consts  --      1.8417                 2.0218                 1.3714
 IR Inten    --     26.2812                37.7071                42.8758

                     34                     35                     36
                      A                      A                      A
 Frequencies --   1176.4169              1216.0397              1255.5937
 Red. masses --      1.9264                 1.3643                 1.5627
 Frc consts  --      1.5708                 1.1887                 1.4516
 IR Inten    --     32.6492                 9.7624                41.7057

                     37                     38                     39
                      A                      A                      A
 Frequencies --   1298.0259              1318.8116              1372.5587
 Red. masses --      1.2584                 6.2106                 1.2166
 Frc consts  --      1.2492                 6.3643                 1.3504
 IR Inten    --      1.9179               173.7617                45.7436

                     40                     41                     42
                      A                      A                      A
 Frequencies --   1375.7052              1388.8329              1437.0012
 Red. masses --      1.1788                 1.5636                 1.4967
 Frc consts  --      1.3145                 1.7770                 1.8210
 IR Inten    --      5.3357                91.2399                36.3160

                     43                     44                     45
                      A                      A                      A
 Frequencies --   1442.1692              1473.6845              1482.0510
 Red. masses --      1.4047                 1.0726                 1.1523
 Frc consts  --      1.7214                 1.3724                 1.4913
 IR Inten    --      8.2003                 6.0965                17.9589

                     46                     47                     48
                      A                      A                      A
 Frequencies --   1494.7278              1498.5843              1524.6645
 Red. masses --      1.1128                 1.5651                 1.1760
 Frc consts  --      1.4649                 2.0709                 1.6106
 IR Inten    --      9.2747                68.1588                21.2095

                     49                     50                     51
                      A                      A                      A
 Frequencies --   1532.6303              1713.5961              1773.8254
 Red. masses --      1.1381                 1.0850                 7.6381
 Frc consts  --      1.5751                 1.8771                14.1598
 IR Inten    --     17.2998                25.1627               375.5886

                     52                     53                     54
                      A                      A                      A
 Frequencies --   3016.3721              3067.1289              3081.9388
 Red. masses --      1.0671                 1.0669                 1.0935
 Frc consts  --      5.7203                 5.9136                 6.1196
 IR Inten    --     42.9419                24.7829                50.7868

                     55                     56                     57
                      A                      A                      A
 Frequencies --   3085.6135              3117.1820              3127.0421
 Red. masses --      1.0284                 1.0591                 1.1015
 Frc consts  --      5.7688                 6.0634                 6.3460
 IR Inten    --      4.3173                 0.3885                31.5894

                     58                     59                     60
                      A                      A                      A
 Frequencies --   3181.0346              3189.6438              3200.8720
 Red. masses --      1.1071                 1.1072                 1.1086
 Frc consts  --      6.6002                 6.6370                 6.6921
 IR Inten    --      0.8771                 0.5713                 6.7679

                     61                     62                     63
                      A                      A                      A
 Frequencies --   3476.3230              3555.2767              3603.3241
 Red. masses --      1.0507                 1.0913                 1.0760
 Frc consts  --      7.4814                 8.1269                 8.2312
 IR Inten    --      7.6297                 5.4382                40.7764

 - Thermochemistry -
 -------------------
 Temperature   298.150 Kelvin.  Pressure   1.00000 Atm.
 Atom     1 has atomic number  6 and mass  12.00000

 Molecular mass:   180.05686 amu.
 Principal axes and moments of inertia in atomic units:
                           1         2         3
     Eigenvalues --  1298.482252495.211303031.91239
           X            0.99882   0.04613   0.01526
           Y           -0.04587   0.99881  -0.01678
           Z           -0.01602   0.01606   0.99974
 This molecule is an asymmetric top.
 Rotational symmetry number  1.
 Warning -- assumption of classical behavior for rotation
           may cause significant error
 Rotational temperatures (Kelvin)      0.06670     0.03471     0.02857
 Rotational constants (GHZ):           1.38989     0.72328     0.59525
 Zero-point vibrational energy     497880.3 (Joules/Mol)
                                  118.99625 (Kcal/Mol)
 Warning -- explicit consideration of  19 degrees of freedom as
           vibrations may cause significant error
 Vibrational temperatures:     74.64   112.27   139.25   146.95   227.10
          (Kelvin)            270.99   278.60   315.34   376.13   388.33
                              426.77   475.82   524.75   605.20   656.76
                              689.97   730.63   808.54   891.04   943.43
                             1024.57  1125.50  1193.16  1270.65  1300.48
                             1335.76  1349.44  1446.61  1458.41  1532.73
                             1587.51  1603.52  1684.06  1692.60  1749.61
                             1806.52  1867.57  1897.48  1974.81  1979.33
                             1998.22  2067.52  2074.96  2120.30  2132.34
                             2150.58  2156.13  2193.65  2205.11  2465.48
                             2552.14  4339.89  4412.91  4434.22  4439.51
                             4484.93  4499.12  4576.80  4589.19  4605.34
                             5001.65  5115.25  5184.38

 Zero-point correction=                           0.189633 (Hartree/Particle)
 Thermal correction to Energy=                    0.202182
 Thermal correction to Enthalpy=                  0.203126
 Thermal correction to Gibbs Free Energy=         0.150825
 Sum of electronic and zero-point Energies=           -930.918305
 Sum of electronic and thermal Energies=              -930.905756
 Sum of electronic and thermal Enthalpies=            -930.904812
 Sum of electronic and thermal Free Energies=         -930.957113

                     E (Thermal)             CV                S
                      KCal/Mol        Cal/Mol-Kelvin    Cal/Mol-Kelvin
 Total                  126.871             45.593            110.076
 Electronic               0.000              0.000              0.000
 Translational            0.889              2.981             41.471
 Rotational               0.889              2.981             30.664
 Vibrational            125.094             39.632             37.942
 Vibration     1          0.596              1.977              4.744
 Vibration     2          0.599              1.964              3.940
 Vibration     3          0.603              1.951              3.518
 Vibration     4          0.604              1.947              3.413
 Vibration     5          0.621              1.894              2.575
 Vibration     6          0.633              1.856              2.244
 Vibration     7          0.635              1.849              2.193
 Vibration     8          0.647              1.812              1.966
 Vibration     9          0.669              1.743              1.652
 Vibration    10          0.674              1.729              1.597
 Vibration    11          0.690              1.680              1.436
 Vibration    12          0.713              1.614              1.257
 Vibration    13          0.738              1.545              1.102
 Vibration    14          0.783              1.425              0.890
 Vibration    15          0.815              1.347              0.776
 Vibration    16          0.836              1.295              0.711
 Vibration    17          0.863              1.233              0.639
 Vibration    18          0.918              1.114              0.520
 Vibration    19          0.979              0.991              0.418

 Optimization completed.
    -- Stationary point found.
 Normal termination of Gaussian 16 at Tue Dec  8 19:47:47 2020.

 ----------------------------------------------------------------------
 # B3LYP/6-311++G(d,p) empiricaldispersion=gd3bj scf=xqc pop=npa geom=c
 heck
 ----------------------------------------------------------------------

 --------------------------------------
 CID_64034405_JID_1282_Energie_neutraal
 --------------------------------------
 Structure from the checkpoint file:  "JID_1282.chk"
 Charge =  0 Multiplicity = 1

 SCF Done:  E(RB3LYP) =  -931.307518230     A.U. after   14 cycles
 Normal termination of Gaussian 16 at Tue Dec  8 19:50:11 2020.

 ----------------------------------------------------------------------
 # B3LYP/6-311++G(d,p) empiricaldispersion=gd3bj scf=xqc pop=npa geom=c
 heck
 ----------------------------------------------------------------------

 ------------------------------------
 CID_64034405_JID_1282_Energie_kation
 ------------------------------------
 Structure from the checkpoint file:  "JID_1282.chk"
 Charge =  1 Multiplicity = 2

 SCF Done:  E(UB3LYP) =  -930.972781269     A.U. after   26 cycles
 Normal termination of Gaussian 16 at Tue Dec  8 19:56:28 2020.
 Gaussian 16:  ES64L-G16RevA.03 25-Dec-2016

 ----------------------------------------------------------------------
 # B3LYP/6-311++G(d,p) empiricaldispersion=gd3bj scf=xqc pop=npa geom=c
 heck
 ----------------------------------------------------------------------

 -----------------------------------
 CID_64034405_JID_1282_Energie_anion
 -----------------------------------
 Structure from the checkpoint file:  "JID_1282.chk"
 Charge = -1 Multiplicity = 2

                         Standard orientation:
 ---------------------------------------------------------------------
 Center     Atomic      Atomic             Coordinates (Angstroms)
 Number     Number       Type             X           Y           Z
 ---------------------------------------------------------------------
      1          6           0        2.717813    0.494789    0.751675
      2         16           0        1.505417   -0.547317   -0.076811
      3          8           0        2.190424   -1.423461   -1.037472
      4          8           0        0.620844   -1.124416    0.952800
      5          6           0        0.509560    0.639299   -1.053186
      6          6           0       -0.349829    1.480550   -0.120262
      7          8           0        0.181559    2.309540    0.615959
      8          7           0       -1.685935    1.255954   -0.118407
      9          6           0       -2.469566    0.259951   -0.849615
     10          6           0       -2.353651   -1.164506   -0.289039
     11          7           0       -2.535460   -1.138532    1.162742
     12          1           0        3.227562   -0.146628    1.473726
     13          1           0        2.180982    1.309628    1.239584
     14          1           0        3.420995    0.871759    0.006911
     15          1           0        1.210017    1.278999   -1.594405
     16          1           0       -0.033234    0.013142   -1.762492
     17          1           0       -2.163674    1.747562    0.626960
     18          1           0       -3.508851    0.589203   -0.773148
     19          1           0       -2.200459    0.283720   -1.911785
     20          1           0       -3.153355   -1.761165   -0.743853
     21          1           0       -1.398829   -1.615253   -0.598470
     22          1           0       -2.753714   -2.078174    1.488011
     23          1           0       -1.632931   -0.911474    1.579857
 ---------------------------------------------------------------------

 SCF Done:  E(UB3LYP) =  -931.297152128     A.U. after   31 cycles

 The electronic state is 2-A.
 Alpha  occ. eigenvalues --  -88.94784 -19.01699 -19.01665 -18.99195 -14.24161
 Alpha  occ. eigenvalues --  -14.18688 -10.18242 -10.11508 -10.10619 -10.10431
 Alpha  occ. eigenvalues --  -10.08921  -8.01308  -5.97552  -5.97457  -5.97408
 Alpha  occ. eigenvalues --   -1.00992  -0.94483  -0.90624  -0.83188  -0.77507
 Alpha  occ. eigenvalues --   -0.70277  -0.65717  -0.63393  -0.53614  -0.51530
 Alpha  occ. eigenvalues --   -0.47387  -0.42041  -0.41243  -0.39989  -0.39050
 Alpha  occ. eigenvalues --   -0.38003  -0.36883  -0.35832  -0.34473  -0.33116
 Alpha  occ. eigenvalues --   -0.32600  -0.31256  -0.31078  -0.28135  -0.27535
 Alpha  occ. eigenvalues --   -0.26149  -0.23750  -0.22513  -0.20878  -0.19755
 Alpha  occ. eigenvalues --   -0.16795  -0.16428  -0.14323   0.04442
 Alpha virt. eigenvalues --    0.06618   0.07669   0.08063   0.08649   0.09075
 Alpha virt. eigenvalues --    0.10070   0.11463   0.11625   0.11989   0.12851
 Alpha virt. eigenvalues --    0.13445   0.14202   0.15023   0.15406   0.16305

  Beta  occ. eigenvalues --  -88.94755 -19.01681 -19.01648 -18.99140 -14.24147
  Beta  occ. eigenvalues --  -14.18663 -10.18184 -10.11441 -10.10575 -10.10366
  Beta  occ. eigenvalues --  -10.08899  -8.01274  -5.97529  -5.97414  -5.97384
  Beta  occ. eigenvalues --   -1.00924  -0.94381  -0.90568  -0.83132  -0.77469
  Beta  occ. eigenvalues --   -0.70142  -0.65596  -0.63307  -0.53498  -0.51435
  Beta  occ. eigenvalues --   -0.47299  -0.41968  -0.41141  -0.39905  -0.38999
  Beta  occ. eigenvalues --   -0.37947  -0.36827  -0.35780  -0.34390  -0.33060
  Beta  occ. eigenvalues --   -0.32526  -0.31121  -0.30997  -0.28052  -0.27378
  Beta  occ. eigenvalues --   -0.26086  -0.23704  -0.22491  -0.20855  -0.19688
  Beta  occ. eigenvalues --   -0.16736  -0.16286  -0.14263
  Beta virt. eigenvalues --    0.06949   0.07721   0.08280   0.09045   0.09151
  Beta virt. eigenvalues --    0.09843   0.10857   0.11760   0.11880   0.12586
  Beta virt. eigenvalues --    0.13094   0.13945   0.14194   0.15035   0.15742

 Mulliken charges and spin densities:
               1          2
     1  C    0.362434  -0.868965
     2  S   -0.030051   0.184726
     3  O   -0.181101   0.035176
     4  O   -0.197532   0.021937
     5  C    0.164688  -0.595524
     6  C   -0.199514   0.156352
     7  O   -0.362410   0.041867
     8  N   -0.282094   0.085871
     9  C    1.564837  -1.886693
    10  C    0.026231  -0.320834
    11  N   -0.451211   0.037754
    12  H   -0.192282   0.393716
    13  H    0.070947   0.171399
    14  H   -0.180877   0.376248
    15  H   -0.244038   0.521770
    16  H   -0.020722   0.276451
    17  H    0.158247   0.159468
    18  H   -0.211851   0.373419
    19  H   -0.768442   0.950258
    20  H   -0.590136   0.765586
    21  H    0.291080  -0.118317
    22  H   -0.014185   0.260381
    23  H    0.287982  -0.022047
 Sum of Mulliken charges =  -1.00000   1.00000

 Dipole moment (field-independent basis, Debye):
    X=              1.8987    Y=              0.5043    Z=              2.4106  Tot=              3.1097
 Quadrupole moment (field-independent basis, Debye-Ang):
   XX=           -132.4301   YY=           -110.0660   ZZ=           -111.2660
   XY=             -3.5250   XZ=             -5.7114   YZ=             -1.8362

 Summary of Natural Population Analysis:

                                       Natural Population
                Natural  -----------------------------------------------
    Atom  No    Charge         Core      Valence    Rydberg      Total
 -----------------------------------------------------------------------
      C    1   -0.39354      0.99961     2.38632    0.00761     3.39354
      S    2    1.02808      4.99932     1.88028    0.09232     6.97192
      O    3   -0.46617      0.99991     3.46057    0.00569     4.46617
      O    4   -0.47539      0.99991     3.46950    0.00599     4.47539
      C    5   -0.32993      0.99955     2.31756    0.01282     3.32993
      C    6    0.33979      0.99965     1.63574    0.02482     2.66021
      O    7   -0.32698      0.99988     3.32111    0.00599     4.32698
      N    8   -0.30895      0.99967     2.79804    0.01125     3.80895
      C    9   -0.09296      0.99961     2.08088    0.01247     3.09296
      C   10   -0.09768      0.99964     2.08710    0.01094     3.09768
      N   11   -0.42997      0.99977     2.91995    0.01025     3.92997
      H   12    0.11774      0.00000     0.38077    0.00149     0.38226
      H   13    0.13178      0.00000     0.36694    0.00128     0.36822
      H   14    0.11465      0.00000     0.38376    0.00159     0.38535
      H   15    0.12475      0.00000     0.37410    0.00115     0.37525
      H   16    0.12459      0.00000     0.37380    0.00161     0.37541
      H   17    0.19816      0.00000     0.29968    0.00216     0.30184
      H   18    0.10202      0.00000     0.39608    0.00190     0.39798
      H   19    0.10165      0.00000     0.39361    0.00474     0.39835
      H   20    0.09413      0.00000     0.40361    0.00226     0.40587
      H   21    0.08417      0.00000     0.41366    0.00217     0.41583
      H   22    0.17508      0.00000     0.32334    0.00158     0.32492
      H   23    0.18498      0.00000     0.31248    0.00254     0.31502
 =======================================================================
   * Total *   -0.00000     14.99650    32.77891    0.22459    48.00000

 Normal termination of Gaussian 16 at Tue Dec  8 20:03:13 2020.
