 Gaussian 16, Revision A.03,

 -----------------------------------------------------------
 # opt freq B3LYP/6-31G(d) empiricaldispersion=gd3bj scf=xqc
 -----------------------------------------------------------

 ------------------------------
 CID_18149088_JID_7278_neutraal
 ------------------------------
 Symbolic Z-matrix:
 Charge =  0 Multiplicity = 1

 SCF Done:  E(RB3LYP) =  -1102.84641089     A.U. after   15 cycles
 SCF Done:  E(RB3LYP) =  -1102.85296496     A.U. after   13 cycles
 SCF Done:  E(RB3LYP) =  -1102.85204823     A.U. after   13 cycles
 SCF Done:  E(RB3LYP) =  -1102.85408508     A.U. after   12 cycles
 SCF Done:  E(RB3LYP) =  -1102.85421739     A.U. after   11 cycles
 SCF Done:  E(RB3LYP) =  -1102.85428587     A.U. after   11 cycles
 SCF Done:  E(RB3LYP) =  -1102.85435047     A.U. after   10 cycles
 SCF Done:  E(RB3LYP) =  -1102.85448892     A.U. after   11 cycles
 SCF Done:  E(RB3LYP) =  -1102.85455225     A.U. after   11 cycles
 SCF Done:  E(RB3LYP) =  -1102.85476776     A.U. after   11 cycles
 SCF Done:  E(RB3LYP) =  -1102.85591316     A.U. after   11 cycles
 SCF Done:  E(RB3LYP) =  -1102.85591925     A.U. after   11 cycles
 SCF Done:  E(RB3LYP) =  -1102.85592108     A.U. after    9 cycles
 SCF Done:  E(RB3LYP) =  -1102.85592163     A.U. after    9 cycles
 SCF Done:  E(RB3LYP) =  -1102.85592166     A.U. after    7 cycles
 SCF Done:  E(RB3LYP) =  -1102.85592166     A.U. after    6 cycles
 Optimization completed.
    -- Stationary point found.
 Normal termination of Gaussian 16 at Sun Dec 13 16:39:53 2020.

 --------------------------------------------------------------------
 #N Geom=AllCheck Guess=TCheck SCRF=Check GenChk RB3LYP/6-31G(d) Freq
 --------------------------------------------------------------------

 Structure from the checkpoint file:  "JID_7278.chk"
 ------------------------------
 CID_18149088_JID_7278_neutraal
 ------------------------------
 Charge =  0 Multiplicity = 1

 SCF Done:  E(RB3LYP) =  -1102.85592166     A.U. after    1 cycles

  Exact polarizability: 214.346   9.201 171.615  17.342  -2.794 110.435
 Approx polarizability: 296.927  18.959 296.176  45.711  -3.915 194.272

                      1                      2                      3
                      A                      A                      A
 Frequencies --     18.4439                33.7079                55.7702
 Red. masses --      5.2469                 4.5081                 1.2674
 Frc consts  --      0.0011                 0.0030                 0.0023
 IR Inten    --      0.3812                 0.0806                 0.0377

                      4                      5                      6
                      A                      A                      A
 Frequencies --     59.2152                84.6428                87.5983
 Red. masses --      2.6773                 5.9570                 1.0302
 Frc consts  --      0.0055                 0.0251                 0.0047
 IR Inten    --      2.9131                 0.5123                 0.2606

                      7                      8                      9
                      A                      A                      A
 Frequencies --    119.9257               125.9447               145.8736
 Red. masses --      1.2964                 2.4575                 4.7636
 Frc consts  --      0.0110                 0.0230                 0.0597
 IR Inten    --      0.2649                 0.5688                 0.7369

                     10                     11                     12
                      A                      A                      A
 Frequencies --    173.7128               202.5765               216.6363
 Red. masses --      4.3495                 4.5904                 4.4408
 Frc consts  --      0.0773                 0.1110                 0.1228
 IR Inten    --      0.2338                 2.0852                 7.1628

                     13                     14                     15
                      A                      A                      A
 Frequencies --    278.8918               292.6132               327.2866
 Red. masses --      4.5588                 2.9264                 4.8444
 Frc consts  --      0.2089                 0.1476                 0.3057
 IR Inten    --      3.6548                 1.5163                 1.8631

                     16                     17                     18
                      A                      A                      A
 Frequencies --    340.5802               361.9090               410.8986
 Red. masses --      6.7157                 2.8225                 4.3069
 Frc consts  --      0.4590                 0.2178                 0.4284
 IR Inten    --      1.9284                 1.9493                 4.6361

                     19                     20                     21
                      A                      A                      A
 Frequencies --    419.9628               444.4391               498.0219
 Red. masses --      3.4847                 5.2691                 3.8528
 Frc consts  --      0.3621                 0.6132                 0.5630
 IR Inten    --      4.0130                 7.6137                 5.6043

                     22                     23                     24
                      A                      A                      A
 Frequencies --    537.9993               556.9517               595.3635
 Red. masses --      6.2707                 4.4537                 4.5064
 Frc consts  --      1.0694                 0.8140                 0.9411
 IR Inten    --      5.2553                13.4949                17.5297

                     25                     26                     27
                      A                      A                      A
 Frequencies --    622.5880               636.0566               654.1381
 Red. masses --      2.6326                 5.1049                 7.4908
 Frc consts  --      0.6012                 1.2168                 1.8885
 IR Inten    --     14.4528                 3.2160                 1.4545

                     28                     29                     30
                      A                      A                      A
 Frequencies --    665.2824               670.7377               724.2993
 Red. masses --      4.5300                 2.9545                 5.3234
 Frc consts  --      1.1813                 0.7831                 1.6454
 IR Inten    --      8.0359                36.6137                21.9770

                     31                     32                     33
                      A                      A                      A
 Frequencies --    735.3333               769.3703               790.0095
 Red. masses --      4.6975                 3.1542                 3.7399
 Frc consts  --      1.4965                 1.1000                 1.3752
 IR Inten    --      9.1591                57.5531                24.9487

                     34                     35                     36
                      A                      A                      A
 Frequencies --    852.0498               857.8598               896.4856
 Red. masses --      5.1482                 1.5143                 2.8736
 Frc consts  --      2.2021                 0.6566                 1.3607
 IR Inten    --      1.0609                10.2449                 6.9252

                     37                     38                     39
                      A                      A                      A
 Frequencies --    967.4824               991.5517              1017.5217
 Red. masses --      1.4540                 1.3198                 1.6587
 Frc consts  --      0.8019                 0.7645                 1.0118
 IR Inten    --      3.0629                 1.2828                11.7267

                     40                     41                     42
                      A                      A                      A
 Frequencies --   1023.5483              1047.4044              1069.1360
 Red. masses --      1.5143                 3.1861                 1.3800
 Frc consts  --      0.9347                 2.0594                 0.9294
 IR Inten    --      4.2627                22.6433                 1.2732

                     43                     44                     45
                      A                      A                      A
 Frequencies --   1074.8325              1079.6046              1123.8024
 Red. masses --      1.6022                 1.4915                 2.0057
 Frc consts  --      1.0906                 1.0242                 1.4924
 IR Inten    --      7.6542                 0.4617                 3.6799

                     46                     47                     48
                      A                      A                      A
 Frequencies --   1156.8319              1175.5644              1203.0236
 Red. masses --      2.9975                 1.3377                 4.4721
 Frc consts  --      2.3634                 1.0891                 3.8134
 IR Inten    --     36.7634                12.3408                 4.2052

                     49                     50                     51
                      A                      A                      A
 Frequencies --   1268.3374              1311.3646              1316.5532
 Red. masses --      3.2270                 6.1571                 5.9831
 Frc consts  --      3.0586                 6.2384                 6.1101
 IR Inten    --     21.0019               207.0106                11.4987

                     52                     53                     54
                      A                      A                      A
 Frequencies --   1332.3879              1339.2250              1360.2388
 Red. masses --      3.9335                 1.5759                 3.1727
 Frc consts  --      4.1143                 1.6653                 3.4587
 IR Inten    --    149.0446                12.9163               262.9859

                     55                     56                     57
                      A                      A                      A
 Frequencies --   1422.5688              1435.2402              1438.7903
 Red. masses --      2.2975                 2.3302                 1.3493
 Frc consts  --      2.7393                 2.8280                 1.6457
 IR Inten    --     18.4280                 7.3469                 2.8476

                     58                     59                     60
                      A                      A                      A
 Frequencies --   1439.0102              1453.8158              1504.6913
 Red. masses --      1.3800                 1.2345                 1.0453
 Frc consts  --      1.6837                 1.5374                 1.3943
 IR Inten    --      8.9984                 0.2502                 5.7714

                     61                     62                     63
                      A                      A                      A
 Frequencies --   1505.2468              1510.0733              1515.1478
 Red. masses --      1.0435                 1.0422                 1.1389
 Frc consts  --      1.3930                 1.4003                 1.5404
 IR Inten    --      0.3822                11.5996                18.7136

                     64                     65                     66
                      A                      A                      A
 Frequencies --   1517.2262              1521.9051              1533.5567
 Red. masses --      1.0741                 1.1087                 2.6723
 Frc consts  --      1.4568                 1.5130                 3.7029
 IR Inten    --      4.0305                 8.1548                18.0624

                     67                     68                     69
                      A                      A                      A
 Frequencies --   1588.5379              1616.4252              1635.8950
 Red. masses --      5.9626                 5.1728                 5.4149
 Frc consts  --      8.8650                 7.9631                 8.5379
 IR Inten    --    272.0471                15.7308                37.2969

                     70                     71                     72
                      A                      A                      A
 Frequencies --   1656.3567              1777.7019              3044.7909
 Red. masses --      5.8580                 9.3515                 1.0385
 Frc consts  --      9.4691                17.4121                 5.6723
 IR Inten    --    126.0417               438.6327                35.8665

                     73                     74                     75
                      A                      A                      A
 Frequencies --   3056.2825              3058.9213              3092.5265
 Red. masses --      1.0381                 1.0360                 1.1019
 Frc consts  --      5.7134                 5.7116                 6.2091
 IR Inten    --     30.6438                13.4001                15.8834

                     76                     77                     78
                      A                      A                      A
 Frequencies --   3108.5704              3118.9166              3138.9896
 Red. masses --      1.1013                 1.1006                 1.0989
 Frc consts  --      6.2699                 6.3077                 6.3798
 IR Inten    --     14.9530                 9.5925                12.2477

                     79                     80                     81
                      A                      A                      A
 Frequencies --   3142.5167              3151.4651              3194.0919
 Red. masses --      1.1034                 1.0982                 1.0911
 Frc consts  --      6.4198                 6.4265                 6.5584
 IR Inten    --     15.5513                22.0681                 9.0262

                     82                     83                     84
                      A                      A                      A
 Frequencies --   3202.2660              3217.6302              3568.4011
 Red. masses --      1.0882                 1.0956                 1.0752
 Frc consts  --      6.5747                 6.6828                 8.0662
 IR Inten    --      8.1570                 7.0350                59.8905

 - Thermochemistry -
 -------------------
 Temperature   298.150 Kelvin.  Pressure   1.00000 Atm.
 Atom     1 has atomic number  6 and mass  12.00000

 Molecular mass:   247.07793 amu.
 Principal axes and moments of inertia in atomic units:
                           1         2         3
     Eigenvalues --  2407.753026815.131908491.28209
           X            0.99998   0.00617  -0.00143
           Y           -0.00617   0.99998  -0.00053
           Z            0.00143   0.00054   1.00000
 This molecule is an asymmetric top.
 Rotational symmetry number  1.
 Warning -- assumption of classical behavior for rotation
           may cause significant error
 Rotational temperatures (Kelvin)      0.03597     0.01271     0.01020
 Rotational constants (GHZ):           0.74955     0.26481     0.21254
 Zero-point vibrational energy     617806.3 (Joules/Mol)
                                  147.65925 (Kcal/Mol)
 Warning -- explicit consideration of  24 degrees of freedom as
           vibrations may cause significant error
 Vibrational temperatures:     26.54    48.50    80.24    85.20   121.78
          (Kelvin)            126.03   172.55   181.21   209.88   249.93
                              291.46   311.69   401.26   421.01   470.89
                              490.02   520.71   591.19   604.23   639.45
                              716.54   774.06   801.33   856.60   895.77
                              915.14   941.16   957.19   965.04  1042.11
                             1057.98  1106.95  1136.65  1225.91  1234.27
                             1289.84  1391.99  1426.62  1463.99  1472.66
                             1506.98  1538.25  1546.44  1553.31  1616.90
                             1664.42  1691.37  1730.88  1824.85  1886.76
                             1894.23  1917.01  1926.85  1957.08  2046.76
                             2064.99  2070.10  2070.41  2091.72  2164.92
                             2165.71  2172.66  2179.96  2182.95  2189.68
                             2206.45  2285.55  2325.68  2353.69  2383.13
                             2557.72  4380.77  4397.31  4401.11  4449.46
                             4472.54  4487.43  4516.31  4521.38  4534.26
                             4595.59  4607.35  4629.45  5134.13

 Zero-point correction=                           0.235310 (Hartree/Particle)
 Thermal correction to Energy=                    0.252124
 Thermal correction to Enthalpy=                  0.253069
 Thermal correction to Gibbs Free Energy=         0.188462
 Sum of electronic and zero-point Energies=          -1102.620612
 Sum of electronic and thermal Energies=             -1102.603797
 Sum of electronic and thermal Enthalpies=           -1102.602853
 Sum of electronic and thermal Free Energies=        -1102.667460

                     E (Thermal)             CV                S
                      KCal/Mol        Cal/Mol-Kelvin    Cal/Mol-Kelvin
 Total                  158.210             60.966            135.976
 Electronic               0.000              0.000              0.000
 Translational            0.889              2.981             42.414
 Rotational               0.889              2.981             33.299
 Vibrational            156.433             55.004             60.263
 Vibration     1          0.593              1.986              6.795
 Vibration     2          0.594              1.983              5.598
 Vibration     3          0.596              1.975              4.602
 Vibration     4          0.597              1.974              4.483
 Vibration     5          0.601              1.960              3.780
 Vibration     6          0.601              1.958              3.713
 Vibration     7          0.609              1.933              3.102
 Vibration     8          0.611              1.927              3.007
 Vibration     9          0.617              1.907              2.725
 Vibration    10          0.627              1.875              2.395
 Vibration    11          0.639              1.836              2.110
 Vibration    12          0.645              1.816              1.987
 Vibration    13          0.679              1.713              1.540
 Vibration    14          0.688              1.687              1.459
 Vibration    15          0.711              1.621              1.273
 Vibration    16          0.720              1.594              1.209
 Vibration    17          0.736              1.551              1.114
 Vibration    18          0.775              1.447              0.923
 Vibration    19          0.783              1.427              0.892
 Vibration    20          0.804              1.373              0.813
 Vibration    21          0.854              1.254              0.663
 Vibration    22          0.893              1.166              0.570
 Vibration    23          0.912              1.124              0.530
 Vibration    24          0.953              1.042              0.458

 Optimization completed.
    -- Stationary point found.
 Normal termination of Gaussian 16 at Sun Dec 13 16:49:45 2020.

 ----------------------------------------------------------------------
 # B3LYP/6-311++G(d,p) empiricaldispersion=gd3bj scf=xqc pop=npa geom=c
 heck
 ----------------------------------------------------------------------

 --------------------------------------
 CID_18149088_JID_7278_Energie_neutraal
 --------------------------------------
 Structure from the checkpoint file:  "JID_7278.chk"
 Charge =  0 Multiplicity = 1

 SCF Done:  E(RB3LYP) =  -1103.07235067     A.U. after   16 cycles
 Normal termination of Gaussian 16 at Sun Dec 13 16:55:02 2020.

 ----------------------------------------------------------------------
 # B3LYP/6-311++G(d,p) empiricaldispersion=gd3bj scf=xqc pop=npa geom=c
 heck
 ----------------------------------------------------------------------

 ------------------------------------
 CID_18149088_JID_7278_Energie_kation
 ------------------------------------
 Structure from the checkpoint file:  "JID_7278.chk"
 Charge =  1 Multiplicity = 2

 SCF Done:  E(UB3LYP) =  -1102.78182558     A.U. after   27 cycles
 Normal termination of Gaussian 16 at Sun Dec 13 17:07:34 2020.
 Gaussian 16:  ES64L-G16RevA.03 25-Dec-2016

 ----------------------------------------------------------------------
 # B3LYP/6-311++G(d,p) empiricaldispersion=gd3bj scf=xqc pop=npa geom=c
 heck
 ----------------------------------------------------------------------

 -----------------------------------
 CID_18149088_JID_7278_Energie_anion
 -----------------------------------
 Structure from the checkpoint file:  "JID_7278.chk"
 Charge = -1 Multiplicity = 2

                         Standard orientation:
 ---------------------------------------------------------------------
 Center     Atomic      Atomic             Coordinates (Angstroms)
 Number     Number       Type             X           Y           Z
 ---------------------------------------------------------------------
      1          6           0       -4.498557   -2.212272    0.254846
      2          6           0       -3.479572   -1.105350    0.220939
      3          7           0       -3.562062   -0.253579   -0.818917
      4          6           0       -2.683539    0.744703   -0.884561
      5          6           0       -1.655336    0.942687    0.046994
      6          6           0       -1.578854    0.061649    1.129272
      7          6           0       -2.506995   -0.969030    1.219199
      8          6           0       -0.775047    2.134082   -0.094090
      9          8           0       -1.210091    3.227490   -0.422269
     10          7           0        0.573185    1.993530    0.221294
     11          6           0        1.434092    0.904564    0.127396
     12          7           0        2.679530    1.024650    0.477126
     13          6           0        3.393903   -0.136947    0.220024
     14          6           0        2.681790   -1.158876   -0.342995
     15         16           0        1.009254   -0.653944   -0.574190
     16          6           0        3.101427   -2.544278   -0.724198
     17          6           0        4.846979   -0.148042    0.589968
     18          1           0       -4.382428   -2.845338    1.138914
     19          1           0       -5.510926   -1.794026    0.249051
     20          1           0       -4.406574   -2.837310   -0.640392
     21          1           0       -2.783003    1.432677   -1.720886
     22          1           0       -0.815442    0.189459    1.890325
     23          1           0       -2.481600   -1.663843    2.052603
     24          1           0        1.066479    2.880396    0.260825
     25          1           0        4.162625   -2.691743   -0.508060
     26          1           0        2.540176   -3.306513   -0.169755
     27          1           0        2.950177   -2.737509   -1.793159
     28          1           0        5.380895    0.649238    0.060425
     29          1           0        4.970431    0.038059    1.663023
     30          1           0        5.325541   -1.099908    0.348993
 ---------------------------------------------------------------------

 SCF Done:  E(UB3LYP) =  -1103.08846270     A.U. after   27 cycles

 The electronic state is 2-A.
 Alpha  occ. eigenvalues --  -88.75270 -18.93996 -14.22206 -14.17679 -14.16539
 Alpha  occ. eigenvalues --  -10.13913 -10.11819 -10.08901 -10.08221 -10.07857
 Alpha  occ. eigenvalues --  -10.07340 -10.06516 -10.06237 -10.04892 -10.04344
 Alpha  occ. eigenvalues --  -10.04279 -10.03487  -7.83861  -5.80170  -5.79810
 Alpha  occ. eigenvalues --   -5.79404  -0.90129  -0.85408  -0.80328  -0.78563
 Alpha  occ. eigenvalues --   -0.69379  -0.66869  -0.66024  -0.65124  -0.61384
 Alpha  occ. eigenvalues --   -0.58233  -0.55987  -0.51069  -0.48872  -0.47860
 Alpha  occ. eigenvalues --   -0.44831  -0.42716  -0.39223  -0.37260  -0.35401
 Alpha  occ. eigenvalues --   -0.34182  -0.33933  -0.33306  -0.31828  -0.30984
 Alpha  occ. eigenvalues --   -0.30839  -0.30395  -0.30276  -0.29880  -0.28475
 Alpha  occ. eigenvalues --   -0.27707  -0.27344  -0.26240  -0.25513  -0.24108
 Alpha  occ. eigenvalues --   -0.23233  -0.22924  -0.17849  -0.16157  -0.16029
 Alpha  occ. eigenvalues --   -0.14457  -0.13520  -0.12162  -0.11225  -0.09384
 Alpha  occ. eigenvalues --    0.03844
 Alpha virt. eigenvalues --    0.06533   0.08113   0.08534   0.09492   0.09708
 Alpha virt. eigenvalues --    0.10265   0.10716   0.11128   0.11300   0.11620
 Alpha virt. eigenvalues --    0.12099   0.12459   0.12953   0.13187   0.13490

  Beta  occ. eigenvalues --  -88.75266 -18.93583 -14.22285 -14.17616 -14.16556
  Beta  occ. eigenvalues --  -10.13720 -10.11529 -10.08906 -10.08227 -10.07748
  Beta  occ. eigenvalues --  -10.07337 -10.06440 -10.05849 -10.04923 -10.04408
  Beta  occ. eigenvalues --  -10.04082 -10.03390  -7.83858  -5.80171  -5.79813
  Beta  occ. eigenvalues --   -5.79383  -0.89518  -0.85142  -0.80078  -0.78411
  Beta  occ. eigenvalues --   -0.69227  -0.66506  -0.65957  -0.64773  -0.61341
  Beta  occ. eigenvalues --   -0.57986  -0.55820  -0.50755  -0.48584  -0.47495
  Beta  occ. eigenvalues --   -0.44686  -0.42500  -0.39096  -0.37138  -0.35125
  Beta  occ. eigenvalues --   -0.33977  -0.33684  -0.33174  -0.31765  -0.30766
  Beta  occ. eigenvalues --   -0.30466  -0.30219  -0.30133  -0.29403  -0.28317
  Beta  occ. eigenvalues --   -0.27467  -0.27079  -0.25568  -0.25303  -0.23349
  Beta  occ. eigenvalues --   -0.23033  -0.22643  -0.17014  -0.15927  -0.15587
  Beta  occ. eigenvalues --   -0.13812  -0.13083  -0.11808  -0.10284  -0.08868
  Beta virt. eigenvalues --    0.06472   0.08056   0.08474   0.09086   0.09688
  Beta virt. eigenvalues --    0.09991   0.10630   0.10982   0.11240   0.11442
  Beta virt. eigenvalues --    0.11779   0.12103   0.12679   0.12939   0.13343

 Mulliken charges and spin densities:
               1          2
     1  C   -0.579813  -0.035830
     2  C   -0.158843   0.234574
     3  N   -0.051861  -0.010517
     4  C   -0.179292   0.079446
     5  C    0.163333   0.040884
     6  C    0.135754   0.266336
     7  C   -0.195119  -0.092537
     8  C   -0.315130   0.124865
     9  O   -0.389988   0.145802
    10  N   -0.136469  -0.058120
    11  C   -0.124567   0.112015
    12  N    0.009065   0.032080
    13  C   -1.218518  -0.011070
    14  C    1.582120   0.056983
    15  S   -0.483737   0.010868
    16  C   -0.225582   0.030082
    17  C   -0.748315  -0.052966
    18  H    0.113625   0.000345
    19  H    0.122772   0.019076
    20  H    0.119602   0.028546
    21  H    0.201387  -0.002101
    22  H    0.185258  -0.011699
    23  H    0.126748   0.006332
    24  H    0.296906   0.012788
    25  H    0.129541   0.008436
    26  H    0.096586   0.055991
    27  H    0.148672  -0.000377
    28  H    0.147467   0.002327
    29  H    0.142965   0.004803
    30  H    0.085432   0.002637
 Sum of Mulliken charges =  -1.00000   1.00000

 Dipole moment (field-independent basis, Debye):
    X=              5.5710    Y=             -5.1171    Z=              1.3159  Tot=              7.6780
 Quadrupole moment (field-independent basis, Debye-Ang):
   XX=           -153.4364   YY=           -136.4851   ZZ=           -116.6336
   XY=              1.8339   XZ=             -7.1875   YZ=              0.7278

 Summary of Natural Population Analysis:

                                       Natural Population
                Natural  -----------------------------------------------
    Atom  No    Charge         Core      Valence    Rydberg      Total
 -----------------------------------------------------------------------
      C    1   -0.29904      0.99965     2.29447    0.00493     3.29904
      C    2    0.16920      0.99956     1.81862    0.01262     2.83080
      N    3   -0.25848      0.99968     2.74677    0.01203     3.75848
      C    4    0.06823      0.99956     1.91884    0.01337     2.93177
      C    5   -0.08830      0.99946     2.07639    0.01244     3.08830
      C    6   -0.02628      0.99954     2.01804    0.00870     3.02628
      C    7   -0.15322      0.99952     2.14557    0.00813     3.15322
      C    8    0.37431      0.99963     1.60460    0.02145     2.62569
      O    9   -0.27605      0.99988     3.27027    0.00590     4.27605
      N   10   -0.33107      0.99962     2.81814    0.01331     3.83107
      C   11    0.16815      0.99960     1.81490    0.01735     2.83185
      N   12   -0.27458      0.99962     2.76289    0.01207     3.77458
      C   13    0.05400      0.99943     1.93255    0.01402     2.94600
      C   14   -0.10871      0.99943     2.09855    0.01073     3.10871
      S   15    0.18576      4.99942     2.79573    0.01909     7.81424
      C   16   -0.29571      0.99962     2.29077    0.00531     3.29571
      C   17   -0.29036      0.99963     2.28618    0.00455     3.29036
      H   18    0.09169      0.00000     0.40752    0.00080     0.40831
      H   19    0.10350      0.00000     0.39541    0.00108     0.39650
      H   20    0.10394      0.00000     0.39498    0.00108     0.39606
      H   21    0.08988      0.00000     0.40883    0.00129     0.41012
      H   22    0.09691      0.00000     0.40187    0.00122     0.40309
      H   23    0.09376      0.00000     0.40511    0.00113     0.40624
      H   24    0.20122      0.00000     0.29694    0.00184     0.29878
      H   25    0.10057      0.00000     0.39847    0.00096     0.39943
      H   26    0.10219      0.00000     0.39646    0.00136     0.39781
      H   27    0.09992      0.00000     0.39893    0.00116     0.40008
      H   28    0.10187      0.00000     0.39694    0.00118     0.39813
      H   29    0.10177      0.00000     0.39710    0.00113     0.39823
      H   30    0.09494      0.00000     0.40427    0.00079     0.40506
 =======================================================================
   * Total *   -0.00000     20.99285    43.79612    0.21103    65.00000

 Normal termination of Gaussian 16 at Sun Dec 13 17:19:17 2020.
