 Gaussian 16, Revision A.03,

 -----------------------------------------------------------
 # opt freq B3LYP/6-31G(d) empiricaldispersion=gd3bj scf=xqc
 -----------------------------------------------------------

 -------------------------------
 CID_116921918_JID_8704_neutraal
 -------------------------------
 Symbolic Z-matrix:
 Charge =  0 Multiplicity = 1

 SCF Done:  E(RB3LYP) =  -845.205839438     A.U. after   15 cycles
 SCF Done:  E(RB3LYP) =  -845.216749530     A.U. after   13 cycles
 SCF Done:  E(RB3LYP) =  -845.216669743     A.U. after   13 cycles
 SCF Done:  E(RB3LYP) =  -845.217480429     A.U. after   13 cycles
 SCF Done:  E(RB3LYP) =  -845.218415098     A.U. after   12 cycles
 SCF Done:  E(RB3LYP) =  -845.218711459     A.U. after   12 cycles
 SCF Done:  E(RB3LYP) =  -845.218793118     A.U. after   12 cycles
 SCF Done:  E(RB3LYP) =  -845.218813697     A.U. after   10 cycles
 SCF Done:  E(RB3LYP) =  -845.218821619     A.U. after   10 cycles
 SCF Done:  E(RB3LYP) =  -845.218827052     A.U. after   10 cycles
 SCF Done:  E(RB3LYP) =  -845.218829537     A.U. after    9 cycles
 SCF Done:  E(RB3LYP) =  -845.218831189     A.U. after    9 cycles
 SCF Done:  E(RB3LYP) =  -845.218831482     A.U. after    8 cycles
 SCF Done:  E(RB3LYP) =  -845.218831517     A.U. after    7 cycles
 Optimization completed.
    -- Stationary point found.
 Normal termination of Gaussian 16 at Fri Dec 11 22:10:12 2020.

 --------------------------------------------------------------------
 #N Geom=AllCheck Guess=TCheck SCRF=Check GenChk RB3LYP/6-31G(d) Freq
 --------------------------------------------------------------------

 Structure from the checkpoint file:  "JID_8704.chk"
 -------------------------------
 CID_116921918_JID_8704_neutraal
 -------------------------------
 Charge =  0 Multiplicity = 1

 SCF Done:  E(RB3LYP) =  -845.218831517     A.U. after    1 cycles

  Exact polarizability: 193.333 -11.335 159.257 -11.097  -6.496 111.350
 Approx polarizability: 259.564 -16.471 247.292 -26.849 -15.244 178.522

                      1                      2                      3
                      A                      A                      A
 Frequencies --     27.7851                33.9406                54.3883
 Red. masses --      4.7984                 4.3870                 3.3763
 Frc consts  --      0.0022                 0.0030                 0.0059
 IR Inten    --      1.0029                 0.8959                 3.6122

                      4                      5                      6
                      A                      A                      A
 Frequencies --     82.0141                88.1371               104.4544
 Red. masses --      3.3609                 3.5930                 3.5475
 Frc consts  --      0.0133                 0.0164                 0.0228
 IR Inten    --      0.8651                 0.7666                 1.1141

                      7                      8                      9
                      A                      A                      A
 Frequencies --    120.6912               125.4138               150.6947
 Red. masses --      3.5447                 4.6465                 4.0973
 Frc consts  --      0.0304                 0.0431                 0.0548
 IR Inten    --      0.0508                 0.2528                 5.3984

                     10                     11                     12
                      A                      A                      A
 Frequencies --    179.4502               196.6309               218.3446
 Red. masses --      3.4859                 3.1060                 3.8485
 Frc consts  --      0.0661                 0.0708                 0.1081
 IR Inten    --      3.9578                 1.0987                 3.5441

                     13                     14                     15
                      A                      A                      A
 Frequencies --    240.4766               248.8364               274.2974
 Red. masses --      2.1369                 1.2063                 1.1816
 Frc consts  --      0.0728                 0.0440                 0.0524
 IR Inten    --      0.8008                 0.0895                 0.6997

                     16                     17                     18
                      A                      A                      A
 Frequencies --    280.3013               306.3824               337.1430
 Red. masses --      2.4167                 2.5703                 4.4731
 Frc consts  --      0.1119                 0.1422                 0.2996
 IR Inten    --     10.2414                18.0869                10.1624

                     19                     20                     21
                      A                      A                      A
 Frequencies --    366.4132               377.4444               390.0659
 Red. masses --      2.7874                 1.4493                 5.3890
 Frc consts  --      0.2205                 0.1217                 0.4831
 IR Inten    --     28.7860               121.8481                10.0741

                     22                     23                     24
                      A                      A                      A
 Frequencies --    409.5359               425.2111               491.7836
 Red. masses --      4.6118                 4.6980                 3.5018
 Frc consts  --      0.4557                 0.5005                 0.4990
 IR Inten    --      1.9108                 8.2246                 6.2325

                     25                     26                     27
                      A                      A                      A
 Frequencies --    526.0410               545.8752               567.3078
 Red. masses --      4.2689                 4.8589                 3.8605
 Frc consts  --      0.6960                 0.8531                 0.7320
 IR Inten    --      0.8921                 5.8098                 2.2826

                     28                     29                     30
                      A                      A                      A
 Frequencies --    628.5310               679.1759               708.0577
 Red. masses --      4.4843                 3.7644                 1.8808
 Frc consts  --      1.0437                 1.0231                 0.5556
 IR Inten    --      4.4324                 9.4062                 5.1197

                     31                     32                     33
                      A                      A                      A
 Frequencies --    726.9950               747.8087               793.9431
 Red. masses --      4.6370                 4.8359                 4.2470
 Frc consts  --      1.4439                 1.5934                 1.5773
 IR Inten    --     29.6907                11.5515                 2.6441

                     34                     35                     36
                      A                      A                      A
 Frequencies --    803.3367               811.9326               837.5156
 Red. masses --      1.4283                 1.5373                 2.5344
 Frc consts  --      0.5431                 0.5971                 1.0474
 IR Inten    --      2.8766                29.5246                11.7241

                     37                     38                     39
                      A                      A                      A
 Frequencies --    871.3106               898.6647               905.8900
 Red. masses --      2.4042                 1.4217                 1.6936
 Frc consts  --      1.0754                 0.6765                 0.8188
 IR Inten    --      0.9186                22.3138                20.3287

                     40                     41                     42
                      A                      A                      A
 Frequencies --    915.5587               929.9616               955.0671
 Red. masses --      1.8871                 2.0731                 2.4550
 Frc consts  --      0.9320                 1.0563                 1.3194
 IR Inten    --      3.8527                 4.4366                 2.3232

                     43                     44                     45
                      A                      A                      A
 Frequencies --    985.2087              1005.2282              1062.5651
 Red. masses --      2.3092                 3.5694                 3.8128
 Frc consts  --      1.3206                 2.1251                 2.5364
 IR Inten    --     12.8748                41.7375                65.9353

                     46                     47                     48
                      A                      A                      A
 Frequencies --   1068.6323              1083.9929              1095.0553
 Red. masses --      4.5393                 1.8199                 2.0327
 Frc consts  --      3.0542                 1.2599                 1.4361
 IR Inten    --     61.0970                27.0798                81.8752

                     49                     50                     51
                      A                      A                      A
 Frequencies --   1100.1999              1147.8102              1175.1132
 Red. masses --      3.4151                 2.3595                 1.9361
 Frc consts  --      2.4355                 1.8315                 1.5752
 IR Inten    --     37.8640                 7.3071                10.9645

                     52                     53                     54
                      A                      A                      A
 Frequencies --   1187.3760              1187.9008              1197.3990
 Red. masses --      1.2721                 1.2707                 1.8581
 Frc consts  --      1.0567                 1.0565                 1.5696
 IR Inten    --      0.6191                 1.2551                 3.6994

                     55                     56                     57
                      A                      A                      A
 Frequencies --   1215.6581              1219.9974              1224.1528
 Red. masses --      1.5337                 1.4126                 1.3111
 Frc consts  --      1.3354                 1.2388                 1.1576
 IR Inten    --     19.1690                11.3105                 1.4450

                     58                     59                     60
                      A                      A                      A
 Frequencies --   1236.8051              1261.7439              1269.2075
 Red. masses --      1.6792                 1.5437                 2.0654
 Frc consts  --      1.5134                 1.4479                 1.9603
 IR Inten    --     40.9137                41.5596               202.3255

                     61                     62                     63
                      A                      A                      A
 Frequencies --   1272.2567              1286.2722              1292.5668
 Red. masses --      1.2420                 2.0207                 1.7171
 Frc consts  --      1.1845                 1.9698                 1.6902
 IR Inten    --      1.7828                25.5808                10.9487

                     64                     65                     66
                      A                      A                      A
 Frequencies --   1303.4969              1321.7198              1333.4985
 Red. masses --      2.4175                 1.7914                 2.0604
 Frc consts  --      2.4201                 1.8439                 2.1587
 IR Inten    --     24.4965               103.7077               106.7997

                     67                     68                     69
                      A                      A                      A
 Frequencies --   1378.6736              1389.6779              1427.2861
 Red. masses --      8.1277                 1.3005                 1.2489
 Frc consts  --      9.1021                 1.4798                 1.4990
 IR Inten    --     24.3431                 3.0288                42.1424

                     70                     71                     72
                      A                      A                      A
 Frequencies --   1470.7622              1496.7047              1501.8102
 Red. masses --      3.1858                 1.3293                 1.1704
 Frc consts  --      4.0603                 1.7545                 1.5553
 IR Inten    --    116.3833                26.6067                 4.0548

                     73                     74                     75
                      A                      A                      A
 Frequencies --   1504.4143              1511.5509              1519.2906
 Red. masses --      1.1262                 1.0880                 1.0481
 Frc consts  --      1.5018                 1.4646                 1.4254
 IR Inten    --      1.1440                 3.6516                 5.3366

                     76                     77                     78
                      A                      A                      A
 Frequencies --   1520.3791              1528.0938              1532.7862
 Red. masses --      1.0479                 1.0994                 1.1983
 Frc consts  --      1.4272                 1.5125                 1.6588
 IR Inten    --      5.5487                12.7039               118.8324

                     79                     80                     81
                      A                      A                      A
 Frequencies --   1537.3291              1538.0261              1551.3649
 Red. masses --      1.1074                 1.0616                 1.9205
 Frc consts  --      1.5421                 1.4796                 2.7233
 IR Inten    --      2.4763                 3.5699                78.5573

                     82                     83                     84
                      A                      A                      A
 Frequencies --   1642.0943              1674.6809              1797.7294
 Red. masses --      6.6666                 6.2884                12.8312
 Frc consts  --     10.5913                10.3909                24.4324
 IR Inten    --     48.8964                 3.3347               141.3607

                     85                     86                     87
                      A                      A                      A
 Frequencies --   3000.8618              3019.6431              3024.7330
 Red. masses --      1.0711                 1.0354                 1.0352
 Frc consts  --      5.6828                 5.5623                 5.5801
 IR Inten    --     68.6229                58.0295                58.7469

                     88                     89                     90
                      A                      A                      A
 Frequencies --   3052.3384              3076.0009              3076.8684
 Red. masses --      1.0702                 1.1062                 1.0589
 Frc consts  --      5.8748                 6.1669                 5.9064
 IR Inten    --     39.5534                44.1426                38.7679

                     91                     92                     93
                      A                      A                      A
 Frequencies --   3083.3080              3083.7413              3119.1110
 Red. masses --      1.0622                 1.1054                 1.1076
 Frc consts  --      5.9499                 6.1934                 6.3489
 IR Inten    --     49.4758                38.5289                10.1871

                     94                     95                     96
                      A                      A                      A
 Frequencies --   3124.2826              3140.3352              3155.2155
 Red. masses --      1.0940                 1.1058                 1.0961
 Frc consts  --      6.2916                 6.4248                 6.4292
 IR Inten    --     14.2873                18.0125                26.8864

                     97                     98                     99
                      A                      A                      A
 Frequencies --   3158.3208              3161.0134              3218.6563
 Red. masses --      1.0990                 1.0997                 1.0870
 Frc consts  --      6.4591                 6.4741                 6.6349
 IR Inten    --     29.4157                19.5641                12.1240

                    100                    101                    102
                      A                      A                      A
 Frequencies --   3227.6194              3234.1097              3731.9441
 Red. masses --      1.0911                 1.0928                 1.0658
 Frc consts  --      6.6972                 6.7345                 8.7457
 IR Inten    --      1.8497                 9.8818                 7.0974

 - Thermochemistry -
 -------------------
 Temperature   298.150 Kelvin.  Pressure   1.00000 Atm.
 Atom     1 has atomic number  6 and mass  12.00000

 Molecular mass:   250.12051 amu.
 Principal axes and moments of inertia in atomic units:
                           1         2         3
     Eigenvalues --  3023.729685765.758057534.38322
           X            0.99999   0.00036   0.00338
           Y           -0.00036   1.00000  -0.00106
           Z           -0.00338   0.00106   0.99999
 This molecule is an asymmetric top.
 Rotational symmetry number  1.
 Warning -- assumption of classical behavior for rotation
           may cause significant error
 Rotational temperatures (Kelvin)      0.02864     0.01502     0.01150
 Rotational constants (GHZ):           0.59686     0.31301     0.23953
 Zero-point vibrational energy     790297.5 (Joules/Mol)
                                  188.88563 (Kcal/Mol)
 Warning -- explicit consideration of  27 degrees of freedom as
           vibrations may cause significant error
 Vibrational temperatures:     39.98    48.83    78.25   118.00   126.81
          (Kelvin)            150.29   173.65   180.44   216.82   258.19
                              282.91   314.15   345.99   358.02   394.65
                              403.29   440.82   485.07   527.19   543.06
                              561.22   589.23   611.78   707.57   756.86
                              785.39   816.23   904.32   977.18  1018.74
                             1045.98  1075.93  1142.31  1155.82  1168.19
                             1205.00  1253.62  1292.98  1303.37  1317.28
                             1338.01  1374.13  1417.50  1446.30  1528.79
                             1537.52  1559.62  1575.54  1582.94  1651.44
                             1690.73  1708.37  1709.12  1722.79  1749.06
                             1755.30  1761.28  1779.49  1815.37  1826.11
                             1830.49  1850.66  1859.72  1875.44  1901.66
                             1918.61  1983.60  1999.44  2053.55  2116.10
                             2153.42  2160.77  2164.52  2174.78  2185.92
                             2187.49  2198.59  2205.34  2211.87  2212.88
                             2232.07  2362.61  2409.49  2586.53  4317.57
                             4344.59  4351.92  4391.63  4425.68  4426.93
                             4436.19  4436.82  4487.71  4495.15  4518.24
                             4539.65  4544.12  4547.99  4630.93  4643.82
                             4653.16  5369.44

 Zero-point correction=                           0.301008 (Hartree/Particle)
 Thermal correction to Energy=                    0.319172
 Thermal correction to Enthalpy=                  0.320117
 Thermal correction to Gibbs Free Energy=         0.254037
 Sum of electronic and zero-point Energies=           -844.917823
 Sum of electronic and thermal Energies=              -844.899659
 Sum of electronic and thermal Enthalpies=            -844.898715
 Sum of electronic and thermal Free Energies=         -844.964794

                     E (Thermal)             CV                S
                      KCal/Mol        Cal/Mol-Kelvin    Cal/Mol-Kelvin
 Total                  200.284             67.622            139.076
 Electronic               0.000              0.000              0.000
 Translational            0.889              2.981             42.451
 Rotational               0.889              2.981             33.240
 Vibrational            198.506             61.660             63.385
 Vibration     1          0.593              1.984              5.982
 Vibration     2          0.594              1.983              5.585
 Vibration     3          0.596              1.976              4.651
 Vibration     4          0.600              1.961              3.842
 Vibration     5          0.601              1.958              3.701
 Vibration     6          0.605              1.946              3.369
 Vibration     7          0.609              1.932              3.089
 Vibration     8          0.610              1.928              3.015
 Vibration     9          0.618              1.902              2.663
 Vibration    10          0.629              1.868              2.334
 Vibration    11          0.636              1.845              2.164
 Vibration    12          0.646              1.813              1.973
 Vibration    13          0.658              1.778              1.799
 Vibration    14          0.662              1.765              1.739
 Vibration    15          0.677              1.721              1.569
 Vibration    16          0.680              1.710              1.532
 Vibration    17          0.697              1.662              1.382
 Vibration    18          0.718              1.601              1.226
 Vibration    19          0.739              1.541              1.095
 Vibration    20          0.748              1.518              1.049
 Vibration    21          0.758              1.491              1.000
 Vibration    22          0.774              1.450              0.928
 Vibration    23          0.787              1.415              0.874
 Vibration    24          0.848              1.268              0.679
 Vibration    25          0.881              1.192              0.596
 Vibration    26          0.901              1.149              0.553
 Vibration    27          0.923              1.102              0.509

 Optimization completed.
    -- Stationary point found.
 Normal termination of Gaussian 16 at Fri Dec 11 22:28:48 2020.

 ----------------------------------------------------------------------
 # B3LYP/6-311++G(d,p) empiricaldispersion=gd3bj scf=xqc pop=npa geom=c
 heck
 ----------------------------------------------------------------------

 ---------------------------------------
 CID_116921918_JID_8704_Energie_neutraal
 ---------------------------------------
 Structure from the checkpoint file:  "JID_8704.chk"
 Charge =  0 Multiplicity = 1

 SCF Done:  E(RB3LYP) =  -845.463243493     A.U. after   15 cycles
 Normal termination of Gaussian 16 at Fri Dec 11 22:36:51 2020.

 ----------------------------------------------------------------------
 # B3LYP/6-311++G(d,p) empiricaldispersion=gd3bj scf=xqc pop=npa geom=c
 heck
 ----------------------------------------------------------------------

 -------------------------------------
 CID_116921918_JID_8704_Energie_kation
 -------------------------------------
 Structure from the checkpoint file:  "JID_8704.chk"
 Charge =  1 Multiplicity = 2

 SCF Done:  E(UB3LYP) =  -845.181670112     A.U. after   27 cycles
 Normal termination of Gaussian 16 at Fri Dec 11 22:57:44 2020.
 Gaussian 16:  ES64L-G16RevA.03 25-Dec-2016

 ----------------------------------------------------------------------
 # B3LYP/6-311++G(d,p) empiricaldispersion=gd3bj scf=xqc pop=npa geom=c
 heck
 ----------------------------------------------------------------------

 ------------------------------------
 CID_116921918_JID_8704_Energie_anion
 ------------------------------------
 Structure from the checkpoint file:  "JID_8704.chk"
 Charge = -1 Multiplicity = 2

                         Standard orientation:
 ---------------------------------------------------------------------
 Center     Atomic      Atomic             Coordinates (Angstroms)
 Number     Number       Type             X           Y           Z
 ---------------------------------------------------------------------
      1          6           0        4.853956   -1.133276   -0.471443
      2          8           0        3.540596   -1.471595   -0.065334
      3          6           0        2.618280   -0.464449    0.002606
      4          6           0        1.336735   -0.843993    0.430477
      5          6           0        0.324474    0.098070    0.531900
      6          6           0        0.573861    1.440355    0.197201
      7          6           0        1.843800    1.820658   -0.224309
      8          6           0        2.868723    0.868816   -0.320165
      9          8           0       -0.508671    2.279050    0.306428
     10          6           0       -0.313245    3.650179    0.009266
     11          6           0       -1.044622   -0.301823    1.026863
     12          8           0       -1.289800   -0.366851    2.215653
     13          6           0       -2.108835   -0.667442    0.001808
     14          6           0       -3.460870    0.093981    0.144347
     15          6           0       -3.492181    0.266545   -1.396305
     16          6           0       -1.993219   -0.128862   -1.454832
     17          6           0       -2.305956   -2.186621    0.062930
     18          8           0       -1.113272   -2.909402   -0.219668
     19          1           0        5.425229   -2.062860   -0.449761
     20          1           0        5.313793   -0.408121    0.213623
     21          1           0        4.868731   -0.721774   -1.490097
     22          1           0        1.140613   -1.883059    0.671223
     23          1           0        2.060252    2.850479   -0.483227
     24          1           0        3.849035    1.190428   -0.650483
     25          1           0        0.435705    4.099748    0.674039
     26          1           0       -0.002044    3.795258   -1.034063
     27          1           0       -1.277897    4.133914    0.170445
     28          1           0       -4.281932   -0.460694    0.609541
     29          1           0       -3.328640    1.038584    0.677304
     30          1           0       -3.749110    1.259669   -1.775166
     31          1           0       -4.140035   -0.467421   -1.884824
     32          1           0       -1.338547    0.740898   -1.522422
     33          1           0       -1.694552   -0.847111   -2.228702
     34          1           0       -2.592162   -2.465941    1.080348
     35          1           0       -3.120347   -2.480028   -0.618791
     36          1           0       -0.804319   -2.634393   -1.097678
 ---------------------------------------------------------------------

 SCF Done:  E(UB3LYP) =  -845.455357362     A.U. after   33 cycles
 SCF Done:  E(UB3LYP) =  -845.455357362     a.u. after    1 cycles

 The electronic state is 2-A.
 Alpha  occ. eigenvalues --  -19.06009 -19.05990 -19.03656 -19.00947 -10.15401
 Alpha  occ. eigenvalues --  -10.13681 -10.13589 -10.13291 -10.13023 -10.12741
 Alpha  occ. eigenvalues --  -10.09326 -10.08597 -10.08139 -10.08091 -10.08087
 Alpha  occ. eigenvalues --  -10.08015 -10.07794 -10.07759  -0.97649  -0.97501
 Alpha  occ. eigenvalues --   -0.94488  -0.93579  -0.76712  -0.76083  -0.67600
 Alpha  occ. eigenvalues --   -0.66754  -0.63341  -0.62248  -0.58824  -0.57810
 Alpha  occ. eigenvalues --   -0.56403  -0.53073  -0.50300  -0.47954  -0.45357
 Alpha  occ. eigenvalues --   -0.44308  -0.42641  -0.41480  -0.40592  -0.39423
 Alpha  occ. eigenvalues --   -0.38041  -0.37765  -0.37180  -0.35803  -0.35148
 Alpha  occ. eigenvalues --   -0.34819  -0.34353  -0.33255  -0.31988  -0.31559
 Alpha  occ. eigenvalues --   -0.30340  -0.29044  -0.28926  -0.27480  -0.26733
 Alpha  occ. eigenvalues --   -0.26049  -0.25488  -0.25188  -0.24530  -0.23811
 Alpha  occ. eigenvalues --   -0.22780  -0.21968  -0.20312  -0.18943  -0.16105
 Alpha  occ. eigenvalues --   -0.14786  -0.11459   0.03855
 Alpha virt. eigenvalues --    0.05713   0.06054   0.06359   0.07576   0.07905
 Alpha virt. eigenvalues --    0.07955   0.08498   0.09266   0.09559   0.09967
 Alpha virt. eigenvalues --    0.10337   0.10546   0.11037   0.11326   0.11698

  Beta  occ. eigenvalues --  -19.06003 -19.05985 -19.03639 -19.00848 -10.15284
  Beta  occ. eigenvalues --  -10.13676 -10.13587 -10.13261 -10.13005 -10.12695
  Beta  occ. eigenvalues --  -10.09335 -10.08604 -10.08131 -10.08081 -10.08067
  Beta  occ. eigenvalues --  -10.07999 -10.07779 -10.07744  -0.97637  -0.97483
  Beta  occ. eigenvalues --   -0.94335  -0.93502  -0.76675  -0.76060  -0.67546
  Beta  occ. eigenvalues --   -0.66716  -0.63278  -0.62195  -0.58766  -0.57767
  Beta  occ. eigenvalues --   -0.56300  -0.53027  -0.50227  -0.47871  -0.45317
  Beta  occ. eigenvalues --   -0.44259  -0.42603  -0.41425  -0.40536  -0.39353
  Beta  occ. eigenvalues --   -0.38013  -0.37736  -0.37141  -0.35756  -0.35103
  Beta  occ. eigenvalues --   -0.34778  -0.34257  -0.33145  -0.31939  -0.31511
  Beta  occ. eigenvalues --   -0.30299  -0.29006  -0.28855  -0.27369  -0.26608
  Beta  occ. eigenvalues --   -0.25947  -0.25452  -0.25108  -0.24448  -0.23779
  Beta  occ. eigenvalues --   -0.22698  -0.21945  -0.20287  -0.18909  -0.16084
  Beta  occ. eigenvalues --   -0.14712  -0.11438
  Beta virt. eigenvalues --    0.06022   0.06387   0.06889   0.07172   0.07724
  Beta virt. eigenvalues --    0.08279   0.08541   0.08762   0.09585   0.10084
  Beta virt. eigenvalues --    0.10213   0.10540   0.10616   0.11194   0.11589

 Mulliken charges and spin densities:
               1          2
     1  C    0.416637  -0.737208
     2  O   -0.197344   0.035871
     3  C   -0.563998  -0.134964
     4  C   -0.446563  -0.094618
     5  C    0.479667   0.298510
     6  C   -0.290975   0.045791
     7  C    0.708439  -0.764314
     8  C    0.310934   0.064817
     9  O   -0.126140   0.032563
    10  C    0.846123  -1.136735
    11  C   -0.234563  -0.215562
    12  O   -0.129411   0.037394
    13  C    0.195165   0.506128
    14  C   -0.605343   0.122104
    15  C    0.234531  -0.603262
    16  C   -0.277046  -0.121300
    17  C    0.004184  -0.586799
    18  O   -0.172511  -0.004020
    19  H   -0.096706   0.268160
    20  H   -0.082447   0.235009
    21  H   -0.155397   0.311758
    22  H    0.238011   0.005009
    23  H   -0.504837   0.696897
    24  H   -0.480618   0.683487
    25  H   -0.145008   0.295055
    26  H   -0.405974   0.573800
    27  H   -0.161037   0.330453
    28  H    0.094648   0.047248
    29  H    0.222011  -0.046557
    30  H   -0.067720   0.217667
    31  H    0.058270   0.059990
    32  H    0.435709  -0.274313
    33  H   -0.424936   0.559122
    34  H    0.229949  -0.010080
    35  H   -0.049934   0.213303
    36  H    0.144229   0.089595
 Sum of Mulliken charges =  -1.00000   1.00000

 Dipole moment (field-independent basis, Debye):
    X=             -3.6191    Y=             -2.9228    Z=              0.8094  Tot=              4.7218
 Quadrupole moment (field-independent basis, Debye-Ang):
   XX=           -166.5552   YY=           -165.9749   ZZ=           -146.9817
   XY=             -6.7495   XZ=              3.9240   YZ=              5.3435

 Summary of Natural Population Analysis:

                                       Natural Population
                Natural  -----------------------------------------------
    Atom  No    Charge         Core      Valence    Rydberg      Total
 -----------------------------------------------------------------------
      C    1   -0.10099      0.99960     2.09234    0.00905     3.10099
      O    2   -0.27354      0.99986     3.26456    0.00912     4.27354
      C    3    0.14963      0.99938     1.83752    0.01348     2.85037
      C    4   -0.10443      0.99948     2.09539    0.00956     3.10443
      C    5   -0.07057      0.99942     2.05844    0.01271     3.07057
      C    6    0.15272      0.99933     1.83469    0.01326     2.84728
      C    7   -0.12925      0.99952     2.12000    0.00973     3.12925
      C    8   -0.13565      0.99953     2.12655    0.00957     3.13565
      O    9   -0.27749      0.99986     3.26862    0.00901     4.27749
      C   10   -0.09955      0.99960     2.09077    0.00918     3.09955
      C   11    0.32303      0.99954     1.65316    0.02427     2.67697
      O   12   -0.27173      0.99987     3.26582    0.00604     4.27173
      C   13   -0.09027      0.99951     2.07638    0.01439     3.09027
      C   14   -0.17768      0.99961     2.16918    0.00890     3.17768
      C   15   -0.19244      0.99965     2.18414    0.00865     3.19244
      C   16   -0.18946      0.99961     2.18047    0.00938     3.18946
      C   17   -0.00144      0.99952     1.98761    0.01431     3.00144
      O   18   -0.36861      0.99990     3.36224    0.00647     4.36861
      H   19    0.09154      0.00000     0.40754    0.00092     0.40846
      H   20    0.08456      0.00000     0.41406    0.00138     0.41544
      H   21    0.08541      0.00000     0.41304    0.00156     0.41459
      H   22    0.11528      0.00000     0.38311    0.00160     0.38472
      H   23    0.10964      0.00000     0.38808    0.00228     0.39036
      H   24    0.10711      0.00000     0.39096    0.00194     0.39289
      H   25    0.08577      0.00000     0.41272    0.00151     0.41423
      H   26    0.08695      0.00000     0.41098    0.00207     0.41305
      H   27    0.09297      0.00000     0.40610    0.00094     0.40703
      H   28    0.09525      0.00000     0.40389    0.00085     0.40475
      H   29    0.10694      0.00000     0.39193    0.00112     0.39306
      H   30    0.09796      0.00000     0.40109    0.00095     0.40204
      H   31    0.09463      0.00000     0.40412    0.00125     0.40537
      H   32    0.10977      0.00000     0.38830    0.00193     0.39023
      H   33    0.09315      0.00000     0.40548    0.00137     0.40685
      H   34    0.09391      0.00000     0.40495    0.00114     0.40609
      H   35    0.07818      0.00000     0.42066    0.00116     0.42182
      H   36    0.22871      0.00000     0.26793    0.00335     0.27129
 =======================================================================
   * Total *   -0.00000     17.99278    48.78282    0.22440    67.00000

 Normal termination of Gaussian 16 at Fri Dec 11 23:22:55 2020.
