 Gaussian 16, Revision A.03,

 -----------------------------------------------------------
 # opt freq B3LYP/6-31G(d) empiricaldispersion=gd3bj scf=xqc
 -----------------------------------------------------------

 ------------------------------
 CID_21895745_JID_2894_neutraal
 ------------------------------
 Symbolic Z-matrix:
 Charge =  0 Multiplicity = 1

 SCF Done:  E(RB3LYP) =  -539.746971725     A.U. after   15 cycles
 SCF Done:  E(RB3LYP) =  -539.750124878     A.U. after   12 cycles
 SCF Done:  E(RB3LYP) =  -539.750415981     A.U. after   12 cycles
 SCF Done:  E(RB3LYP) =  -539.750960420     A.U. after   12 cycles
 SCF Done:  E(RB3LYP) =  -539.751125576     A.U. after   11 cycles
 SCF Done:  E(RB3LYP) =  -539.751213224     A.U. after   11 cycles
 SCF Done:  E(RB3LYP) =  -539.751253680     A.U. after   10 cycles
 SCF Done:  E(RB3LYP) =  -539.751290093     A.U. after   10 cycles
 SCF Done:  E(RB3LYP) =  -539.751310376     A.U. after   10 cycles
 SCF Done:  E(RB3LYP) =  -539.751366942     A.U. after   10 cycles
 SCF Done:  E(RB3LYP) =  -539.756770797     A.U. after    9 cycles
 SCF Done:  E(RB3LYP) =  -539.756772159     A.U. after    9 cycles
 SCF Done:  E(RB3LYP) =  -539.756772286     A.U. after    8 cycles
 SCF Done:  E(RB3LYP) =  -539.756772367     A.U. after    8 cycles
 SCF Done:  E(RB3LYP) =  -539.756772400     A.U. after    7 cycles
 Optimization completed.
    -- Stationary point found.
 Normal termination of Gaussian 16 at Wed Dec  9 18:36:18 2020.

 --------------------------------------------------------------------
 #N Geom=AllCheck Guess=TCheck SCRF=Check GenChk RB3LYP/6-31G(d) Freq
 --------------------------------------------------------------------

 Structure from the checkpoint file:  "JID_2894.chk"
 ------------------------------
 CID_21895745_JID_2894_neutraal
 ------------------------------
 Charge =  0 Multiplicity = 1

 SCF Done:  E(RB3LYP) =  -539.756772400     A.U. after    1 cycles

  Exact polarizability: 127.020  -3.239 125.923   3.308   1.126  90.476
 Approx polarizability: 166.613 -17.655 176.956   3.154  -5.671 130.988

                      1                      2                      3
                      A                      A                      A
 Frequencies --     10.6086                29.6168                33.7673
 Red. masses --      3.8593                 2.6755                 4.0163
 Frc consts  --      0.0003                 0.0014                 0.0027
 IR Inten    --      0.1739                 1.3863                 1.9310

                      4                      5                      6
                      A                      A                      A
 Frequencies --     51.3530                64.8836                80.7212
 Red. masses --      2.8899                 2.9643                 4.6630
 Frc consts  --      0.0045                 0.0074                 0.0179
 IR Inten    --      0.4801                 1.5670                 0.9234

                      7                      8                      9
                      A                      A                      A
 Frequencies --     90.1997                97.5098                99.3789
 Red. masses --      3.8869                 3.0959                 1.9203
 Frc consts  --      0.0186                 0.0173                 0.0112
 IR Inten    --      2.0553                 0.4375                 4.6989

                     10                     11                     12
                      A                      A                      A
 Frequencies --    111.3931               175.6083               211.9488
 Red. masses --      2.1302                 1.0568                 2.8780
 Frc consts  --      0.0156                 0.0192                 0.0762
 IR Inten    --      1.0373                 0.5871                 1.4521

                     13                     14                     15
                      A                      A                      A
 Frequencies --    246.4102               264.5242               285.9638
 Red. masses --      1.3997                 2.6573                 1.0752
 Frc consts  --      0.0501                 0.1096                 0.0518
 IR Inten    --      0.9785                 5.1917                 0.6912

                     16                     17                     18
                      A                      A                      A
 Frequencies --    310.5335               323.8990               353.4212
 Red. masses --      1.0724                 2.3883                 3.0572
 Frc consts  --      0.0609                 0.1476                 0.2250
 IR Inten    --      0.9456                 2.1213                 6.3716

                     19                     20                     21
                      A                      A                      A
 Frequencies --    394.3780               400.3652               454.9492
 Red. masses --      2.3221                 2.3382                 2.3322
 Frc consts  --      0.2128                 0.2208                 0.2844
 IR Inten    --     11.0753                 1.6636                 2.2237

                     22                     23                     24
                      A                      A                      A
 Frequencies --    560.0516               584.8132               646.0372
 Red. masses --      3.0540                 2.7549                 1.3667
 Frc consts  --      0.5644                 0.5551                 0.3361
 IR Inten    --     27.2563                19.7251                26.5146

                     25                     26                     27
                      A                      A                      A
 Frequencies --    707.1506               731.5887               797.2856
 Red. masses --      1.8043                 1.8251                 1.5874
 Frc consts  --      0.5316                 0.5755                 0.5945
 IR Inten    --     21.5481                30.8532                10.6215

                     28                     29                     30
                      A                      A                      A
 Frequencies --    800.7563               810.9597               889.6987
 Red. masses --      1.3774                 2.0665                 2.7408
 Frc consts  --      0.5204                 0.8007                 1.2782
 IR Inten    --    144.4432                20.1508                 3.0909

                     31                     32                     33
                      A                      A                      A
 Frequencies --    907.8322               950.3557               956.0630
 Red. masses --      1.3495                 1.3478                 2.0692
 Frc consts  --      0.6553                 0.7172                 1.1144
 IR Inten    --     11.3873                36.1256                 0.8078

                     34                     35                     36
                      A                      A                      A
 Frequencies --    959.8142              1025.8307              1041.2195
 Red. masses --      1.8790                 1.4991                 1.4599
 Frc consts  --      1.0199                 0.9295                 0.9325
 IR Inten    --      1.3793                 3.8204                 7.2446

                     37                     38                     39
                      A                      A                      A
 Frequencies --   1047.9479              1087.5642              1091.7352
 Red. masses --      1.1875                 1.4877                 2.3923
 Frc consts  --      0.7684                 1.0368                 1.6800
 IR Inten    --      7.5430                 2.3118                12.6450

                     40                     41                     42
                      A                      A                      A
 Frequencies --   1118.2111              1143.0354              1176.9167
 Red. masses --      1.3400                 1.7048                 3.2083
 Frc consts  --      0.9872                 1.3123                 2.6183
 IR Inten    --      0.0418                13.1993                22.8660

                     43                     44                     45
                      A                      A                      A
 Frequencies --   1181.4625              1214.1007              1250.3081
 Red. masses --      2.6217                 1.4558                 2.3564
 Frc consts  --      2.1561                 1.2643                 2.1703
 IR Inten    --     12.6836                 5.3278                88.6034

                     46                     47                     48
                      A                      A                      A
 Frequencies --   1287.3348              1297.1836              1322.5155
 Red. masses --      1.6704                 1.3408                 1.2198
 Frc consts  --      1.6310                 1.3293                 1.2570
 IR Inten    --      1.0050                 1.7607                 7.3263

                     49                     50                     51
                      A                      A                      A
 Frequencies --   1388.7118              1401.3171              1426.2729
 Red. masses --      1.4717                 1.5926                 1.3054
 Frc consts  --      1.6722                 1.8425                 1.5646
 IR Inten    --     64.7718                41.4086                22.0724

                     52                     53                     54
                      A                      A                      A
 Frequencies --   1437.3524              1446.0097              1463.8625
 Red. masses --      1.4930                 1.3880                 1.1562
 Frc consts  --      1.8173                 1.7100                 1.4597
 IR Inten    --     18.9652                 3.2257                 2.2752

                     55                     56                     57
                      A                      A                      A
 Frequencies --   1471.0393              1493.4878              1500.4951
 Red. masses --      1.2695                 1.1767                 1.3780
 Frc consts  --      1.6186                 1.5465                 1.8279
 IR Inten    --     25.5151                 7.8254                21.8859

                     58                     59                     60
                      A                      A                      A
 Frequencies --   1503.3321              1505.3456              1511.2256
 Red. masses --      1.0664                 1.3043                 1.1389
 Frc consts  --      1.4199                 1.7415                 1.5325
 IR Inten    --      4.2839                19.3321                 3.8075

                     61                     62                     63
                      A                      A                      A
 Frequencies --   1515.3878              1519.9606              1525.5538
 Red. masses --      1.0437                 1.0999                 1.0654
 Frc consts  --      1.4121                 1.4971                 1.4608
 IR Inten    --      2.1787                 2.7065                20.0607

                     64                     65                     66
                      A                      A                      A
 Frequencies --   1530.6577              1532.9709              1541.3801
 Red. masses --      1.0770                 1.0633                 1.0539
 Frc consts  --      1.4866                 1.4723                 1.4752
 IR Inten    --      3.0518                22.4194                10.1848

                     67                     68                     69
                      A                      A                      A
 Frequencies --   1553.4161              1566.8500              1715.7061
 Red. masses --      1.0452                 1.0471                 5.2585
 Frc consts  --      1.4861                 1.5145                 9.1201
 IR Inten    --     11.1346                12.3815                89.6867

                     70                     71                     72
                      A                      A                      A
 Frequencies --   1749.1940              2977.3810              2991.3542
 Red. masses --      6.7165                 1.0471                 1.0489
 Frc consts  --     12.1079                 5.4688                 5.5300
 IR Inten    --    243.5182                43.6518                60.9518

                     73                     74                     75
                      A                      A                      A
 Frequencies --   3019.9579              3040.5149              3043.1684
 Red. masses --      1.0736                 1.0912                 1.0583
 Frc consts  --      5.7687                 5.9435                 5.7745
 IR Inten    --     33.2666                40.0722                18.2520

                     76                     77                     78
                      A                      A                      A
 Frequencies --   3045.7251              3049.3295              3057.7471
 Red. masses --      1.0411                 1.0406                 1.0899
 Frc consts  --      5.6903                 5.7009                 6.0039
 IR Inten    --     36.9552                19.5693                41.3287

                     79                     80                     81
                      A                      A                      A
 Frequencies --   3079.3411              3109.6450              3110.8540
 Red. masses --      1.1019                 1.0959                 1.0986
 Frc consts  --      6.1559                 6.2435                 6.2637
 IR Inten    --     24.0077                45.8264                55.9422

                     82                     83                     84
                      A                      A                      A
 Frequencies --   3112.0886              3112.1769              3122.5143
 Red. masses --      1.0985                 1.0970                 1.1016
 Frc consts  --      6.2681                 6.2600                 6.3284
 IR Inten    --     10.7141                48.9958                37.9632

                     85                     86                     87
                      A                      A                      A
 Frequencies --   3145.1348              3148.5313              3166.4984
 Red. masses --      1.1040                 1.0907                 1.0603
 Frc consts  --      6.4342                 6.3707                 6.2638
 IR Inten    --     12.4374                10.0165                 9.4081

                     88                     89                     90
                      A                      A                      A
 Frequencies --   3248.3408              3494.0498              3602.7755
 Red. masses --      1.1154                 1.0741                 1.0745
 Frc consts  --      6.9341                 7.7258                 8.2175
 IR Inten    --     12.9783                 1.3178                58.8863

 - Thermochemistry -
 -------------------
 Temperature   298.150 Kelvin.  Pressure   1.00000 Atm.
 Atom     1 has atomic number  6 and mass  12.00000

 Molecular mass:   172.15756 amu.
 Principal axes and moments of inertia in atomic units:
                           1         2         3
     Eigenvalues --  2138.920693231.090334735.42215
           X            0.99996   0.00442   0.00831
           Y           -0.00457   0.99984   0.01729
           Z           -0.00823  -0.01733   0.99982
 This molecule is an asymmetric top.
 Rotational symmetry number  1.
 Warning -- assumption of classical behavior for rotation
           may cause significant error
 Rotational temperatures (Kelvin)      0.04049     0.02681     0.01829
 Rotational constants (GHZ):           0.84376     0.55855     0.38112
 Zero-point vibrational energy     757570.3 (Joules/Mol)
                                  181.06365 (Kcal/Mol)
 Warning -- explicit consideration of  23 degrees of freedom as
           vibrations may cause significant error
 Vibrational temperatures:     15.26    42.61    48.58    73.89    93.35
          (Kelvin)            116.14   129.78   140.29   142.98   160.27
                              252.66   304.95   354.53   380.59   411.44
                              446.79   466.02   508.49   567.42   576.04
                              654.57   805.79   841.42   929.50  1017.43
                             1052.59  1147.12  1152.11  1166.79  1280.08
                             1306.17  1367.35  1375.56  1380.96  1475.94
                             1498.08  1507.76  1564.76  1570.76  1608.86
                             1644.57  1693.32  1699.86  1746.82  1798.91
                             1852.19  1866.36  1902.80  1998.05  2016.18
                             2052.09  2068.03  2080.49  2106.17  2116.50
                             2148.80  2158.88  2162.96  2165.86  2174.32
                             2180.31  2186.88  2194.93  2202.27  2205.60
                             2217.70  2235.02  2254.35  2468.52  2516.70
                             4283.79  4303.89  4345.05  4374.62  4378.44
                             4382.12  4387.31  4399.42  4430.48  4474.09
                             4475.83  4477.60  4477.73  4492.60  4525.15
                             4530.03  4555.89  4673.64  5027.16  5183.59

 Zero-point correction=                           0.288543 (Hartree/Particle)
 Thermal correction to Energy=                    0.305541
 Thermal correction to Enthalpy=                  0.306485
 Thermal correction to Gibbs Free Energy=         0.240287
 Sum of electronic and zero-point Energies=           -539.468229
 Sum of electronic and thermal Energies=              -539.451232
 Sum of electronic and thermal Enthalpies=            -539.450288
 Sum of electronic and thermal Free Energies=         -539.516485

                     E (Thermal)             CV                S
                      KCal/Mol        Cal/Mol-Kelvin    Cal/Mol-Kelvin
 Total                  191.730             57.585            139.324
 Electronic               0.000              0.000              0.000
 Translational            0.889              2.981             41.337
 Rotational               0.889              2.981             31.859
 Vibrational            189.952             51.624             66.128
 Vibration     1          0.593              1.987              7.894
 Vibration     2          0.593              1.984              5.855
 Vibration     3          0.594              1.983              5.595
 Vibration     4          0.596              1.977              4.765
 Vibration     5          0.597              1.971              4.303
 Vibration     6          0.600              1.962              3.873
 Vibration     7          0.602              1.956              3.656
 Vibration     8          0.603              1.951              3.503
 Vibration     9          0.604              1.950              3.466
 Vibration    10          0.607              1.940              3.244
 Vibration    11          0.628              1.872              2.375
 Vibration    12          0.643              1.823              2.027
 Vibration    13          0.661              1.769              1.756
 Vibration    14          0.671              1.738              1.632
 Vibration    15          0.684              1.700              1.498
 Vibration    16          0.699              1.654              1.359
 Vibration    17          0.708              1.628              1.290
 Vibration    18          0.730              1.568              1.151
 Vibration    19          0.761              1.482              0.984
 Vibration    20          0.766              1.469              0.961
 Vibration    21          0.813              1.350              0.781
 Vibration    22          0.916              1.118              0.524
 Vibration    23          0.942              1.064              0.477

                           ! Non-Optimized Parameters !
 Normal termination of Gaussian 16 at Wed Dec  9 18:43:00 2020.

 ----------------------------------------------------------------------
 # B3LYP/6-311++G(d,p) empiricaldispersion=gd3bj scf=xqc pop=npa geom=c
 heck
 ----------------------------------------------------------------------

 --------------------------------------
 CID_21895745_JID_2894_Energie_neutraal
 --------------------------------------
 Structure from the checkpoint file:  "JID_2894.chk"
 Charge =  0 Multiplicity = 1

 SCF Done:  E(RB3LYP) =  -539.922523726     A.U. after   14 cycles
 Normal termination of Gaussian 16 at Wed Dec  9 18:45:43 2020.

 ----------------------------------------------------------------------
 # B3LYP/6-311++G(d,p) empiricaldispersion=gd3bj scf=xqc pop=npa geom=c
 heck
 ----------------------------------------------------------------------

 ------------------------------------
 CID_21895745_JID_2894_Energie_kation
 ------------------------------------
 Structure from the checkpoint file:  "JID_2894.chk"
 Charge =  1 Multiplicity = 2

 SCF Done:  E(UB3LYP) =  -539.622807981     A.U. after   24 cycles
 Normal termination of Gaussian 16 at Wed Dec  9 18:51:46 2020.
 Gaussian 16:  ES64L-G16RevA.03 25-Dec-2016

 ----------------------------------------------------------------------
 # B3LYP/6-311++G(d,p) empiricaldispersion=gd3bj scf=xqc pop=npa geom=c
 heck
 ----------------------------------------------------------------------

 -----------------------------------
 CID_21895745_JID_2894_Energie_anion
 -----------------------------------
 Structure from the checkpoint file:  "JID_2894.chk"
 Charge = -1 Multiplicity = 2

                         Standard orientation:
 ---------------------------------------------------------------------
 Center     Atomic      Atomic             Coordinates (Angstroms)
 Number     Number       Type             X           Y           Z
 ---------------------------------------------------------------------
      1          6           0        0.530800    3.322859    0.341762
      2          6           0       -0.747923    2.814465   -0.328639
      3          6           0       -0.611124    1.395577   -0.889870
      4          7           0       -0.262926    0.411732    0.130639
      5          6           0       -0.883665   -0.771166    0.431329
      6          8           0       -0.281711   -1.672899    1.015800
      7          6           0       -2.335295   -0.949163    0.078272
      8          6           0       -3.236297    0.006516    0.330665
      9          6           0       -2.693469   -2.322089   -0.421598
     10          6           0        2.586202   -1.216885   -1.219428
     11          7           0        3.647739   -1.028880   -0.234405
     12          6           0        3.171420   -0.357317    0.970696
     13          1           0        0.792757    2.708589    1.210615
     14          1           0        0.412101    4.353414    0.691965
     15          1           0        1.378265    3.302465   -0.355132
     16          1           0       -1.576919    2.837208    0.389999
     17          1           0       -1.025368    3.481310   -1.155578
     18          1           0       -1.541930    1.080867   -1.363240
     19          1           0        0.169630    1.384950   -1.664727
     20          1           0        0.705408    0.404856    0.426826
     21          1           0       -4.297492   -0.160309    0.164282
     22          1           0       -2.951961    0.970478    0.740955
     23          1           0       -2.201087   -2.533492   -1.379454
     24          1           0       -2.339324   -3.075794    0.288393
     25          1           0       -3.773657   -2.427308   -0.555529
     26          1           0        2.270498   -0.235043   -1.597720
     27          1           0        1.692521   -1.731132   -0.826807
     28          1           0        2.975113   -1.784541   -2.071425
     29          1           0        4.009690   -1.943330    0.028645
     30          1           0        2.286355   -0.830304    1.431467
     31          1           0        3.974470   -0.320392    1.714280
     32          1           0        2.917035    0.683948    0.723017
 ---------------------------------------------------------------------

 SCF Done:  E(UB3LYP) =  -539.910557695     A.U. after   33 cycles
 SCF Done:  E(UB3LYP) =  -539.910557695     a.u. after    1 cycles

 The electronic state is 2-A.
 Alpha  occ. eigenvalues --  -18.96346 -14.21716 -14.20308 -10.14638 -10.09606
 Alpha  occ. eigenvalues --  -10.08701 -10.08404 -10.06800 -10.06285 -10.05832
 Alpha  occ. eigenvalues --  -10.05269 -10.04890  -0.91569  -0.80606  -0.80377
 Alpha  occ. eigenvalues --   -0.68937  -0.67178  -0.60329  -0.58406  -0.58031
 Alpha  occ. eigenvalues --   -0.53254  -0.51497  -0.48912  -0.42830  -0.39398
 Alpha  occ. eigenvalues --   -0.39180  -0.36650  -0.34702  -0.34368  -0.33735
 Alpha  occ. eigenvalues --   -0.33261  -0.32967  -0.31349  -0.30483  -0.29714
 Alpha  occ. eigenvalues --   -0.29042  -0.27455  -0.27100  -0.26657  -0.26544
 Alpha  occ. eigenvalues --   -0.25396  -0.24211  -0.23925  -0.23507  -0.15429
 Alpha  occ. eigenvalues --   -0.14690  -0.13819  -0.12730   0.04787
 Alpha virt. eigenvalues --    0.06889   0.07185   0.07526   0.08129   0.09030
 Alpha virt. eigenvalues --    0.09290   0.09928   0.10234   0.11201   0.11851
 Alpha virt. eigenvalues --    0.12498   0.12664   0.12739   0.13267   0.13987

  Beta  occ. eigenvalues --  -18.96218 -14.21720 -14.20303 -10.14525 -10.09588
  Beta  occ. eigenvalues --  -10.08689 -10.08392 -10.06731 -10.06266 -10.05814
  Beta  occ. eigenvalues --  -10.05221 -10.04744  -0.91343  -0.80545  -0.80355
  Beta  occ. eigenvalues --   -0.68716  -0.67124  -0.60306  -0.58302  -0.57891
  Beta  occ. eigenvalues --   -0.53212  -0.51209  -0.48795  -0.42692  -0.39376
  Beta  occ. eigenvalues --   -0.39133  -0.36497  -0.34671  -0.34280  -0.33661
  Beta  occ. eigenvalues --   -0.33151  -0.32903  -0.31145  -0.30412  -0.29614
  Beta  occ. eigenvalues --   -0.29014  -0.27292  -0.26995  -0.26600  -0.26469
  Beta  occ. eigenvalues --   -0.25308  -0.24093  -0.23759  -0.23452  -0.14846
  Beta  occ. eigenvalues --   -0.14444  -0.13604  -0.12586
  Beta virt. eigenvalues --    0.06850   0.07452   0.07880   0.08381   0.08612
  Beta virt. eigenvalues --    0.09306   0.09823   0.10139   0.10497   0.11508
  Beta virt. eigenvalues --    0.12042   0.12509   0.12864   0.13097   0.13342

 Mulliken charges and spin densities:
               1          2
     1  C    0.734654  -1.246913
     2  C   -0.162658   0.031854
     3  C    0.121709  -0.546668
     4  N   -0.014297   0.000495
     5  C   -0.191264  -0.310905
     6  O   -0.310872   0.039773
     7  C   -0.267697   1.246918
     8  C   -0.341322  -0.293573
     9  C   -0.051841  -0.499337
    10  C   -0.216470  -0.275721
    11  N   -0.188225   0.059312
    12  C   -0.352034  -0.177961
    13  H   -0.280028   0.421403
    14  H   -0.800066   0.962559
    15  H   -0.023927   0.159821
    16  H    0.209608  -0.105221
    17  H   -0.326766   0.461725
    18  H    0.191097  -0.029287
    19  H   -0.275909   0.425775
    20  H    1.115935  -0.722023
    21  H    0.067295   0.034939
    22  H   -0.124874   0.272611
    23  H    0.012348   0.126345
    24  H    0.039473   0.150002
    25  H   -0.032581   0.161750
    26  H   -0.107487   0.266217
    27  H    0.280865  -0.096408
    28  H   -0.052761   0.167730
    29  H    0.160062   0.046314
    30  H    0.128054   0.055195
    31  H   -0.060476   0.188802
    32  H    0.120453   0.024478
 Sum of Mulliken charges =  -1.00000   1.00000

 Dipole moment (field-independent basis, Debye):
    X=              0.0842    Y=             -4.2812    Z=             -0.9462  Tot=              4.3853
 Quadrupole moment (field-independent basis, Debye-Ang):
   XX=           -121.6661   YY=           -139.1908   ZZ=           -108.0444
   XY=             -8.6114   XZ=              6.8400   YZ=              2.9002

 Summary of Natural Population Analysis:

                                       Natural Population
                Natural  -----------------------------------------------
    Atom  No    Charge         Core      Valence    Rydberg      Total
 -----------------------------------------------------------------------
      C    1   -0.28973      0.99967     2.28383    0.00623     3.28973
      C    2   -0.19306      0.99964     2.18525    0.00817     3.19306
      C    3   -0.08875      0.99961     2.07800    0.01114     3.08875
      N    4   -0.32631      0.99967     2.81711    0.00953     3.82631
      C    5    0.34851      0.99959     1.62972    0.02218     2.65149
      O    6   -0.32253      0.99988     3.31673    0.00592     4.32253
      C    7   -0.03715      0.99949     2.02763    0.01003     3.03715
      C    8   -0.16008      0.99951     2.15382    0.00675     3.16008
      C    9   -0.29510      0.99963     2.29009    0.00538     3.29510
      C   10   -0.18421      0.99966     2.17699    0.00756     3.18421
      N   11   -0.33817      0.99976     2.82630    0.01210     3.83817
      C   12   -0.18789      0.99966     2.18042    0.00780     3.18789
      H   13    0.09673      0.00000     0.40178    0.00149     0.40327
      H   14    0.10232      0.00000     0.39580    0.00188     0.39768
      H   15    0.09638      0.00000     0.40200    0.00162     0.40362
      H   16    0.09466      0.00000     0.40388    0.00146     0.40534
      H   17    0.09642      0.00000     0.40215    0.00143     0.40358
      H   18    0.10632      0.00000     0.39228    0.00140     0.39368
      H   19    0.08873      0.00000     0.40964    0.00163     0.41127
      H   20    0.19338      0.00000     0.30270    0.00393     0.30662
      H   21    0.08738      0.00000     0.41155    0.00107     0.41262
      H   22    0.09407      0.00000     0.40438    0.00155     0.40593
      H   23    0.09927      0.00000     0.39927    0.00146     0.40073
      H   24    0.11243      0.00000     0.38588    0.00169     0.38757
      H   25    0.09539      0.00000     0.40334    0.00127     0.40461
      H   26    0.09005      0.00000     0.40828    0.00167     0.40995
      H   27    0.09168      0.00000     0.40657    0.00175     0.40832
      H   28    0.08984      0.00000     0.40919    0.00097     0.41016
      H   29    0.16629      0.00000     0.33164    0.00207     0.33371
      H   30    0.09278      0.00000     0.40548    0.00174     0.40722
      H   31    0.09173      0.00000     0.40741    0.00086     0.40827
      H   32    0.08860      0.00000     0.40976    0.00164     0.41140
 =======================================================================
   * Total *   -0.00000     11.99577    35.85886    0.14537    48.00000

 Normal termination of Gaussian 16 at Wed Dec  9 19:00:12 2020.
