 Gaussian 16, Revision A.03,

 -----------------------------------------------------------
 # opt freq B3LYP/6-31G(d) empiricaldispersion=gd3bj scf=xqc
 -----------------------------------------------------------

 ------------------------------
 CID_145510868_JID_313_neutraal
 ------------------------------
 Symbolic Z-matrix:
 Charge =  0 Multiplicity = 1

 SCF Done:  E(RB3LYP) =  -477.100072357     A.U. after   13 cycles
 SCF Done:  E(RB3LYP) =  -477.107239152     A.U. after   12 cycles
 SCF Done:  E(RB3LYP) =  -477.111743372     A.U. after   12 cycles
 SCF Done:  E(RB3LYP) =  -477.113706678     A.U. after   11 cycles
 SCF Done:  E(RB3LYP) =  -477.114059939     A.U. after   11 cycles
 SCF Done:  E(RB3LYP) =  -477.114228368     A.U. after   11 cycles
 SCF Done:  E(RB3LYP) =  -477.114320118     A.U. after   10 cycles
 SCF Done:  E(RB3LYP) =  -477.114334524     A.U. after    9 cycles
 SCF Done:  E(RB3LYP) =  -477.114337821     A.U. after    8 cycles
 SCF Done:  E(RB3LYP) =  -477.114338511     A.U. after    8 cycles
 SCF Done:  E(RB3LYP) =  -477.114338760     A.U. after    7 cycles
 SCF Done:  E(RB3LYP) =  -477.114338944     A.U. after    7 cycles
 SCF Done:  E(RB3LYP) =  -477.114339056     A.U. after    7 cycles
 SCF Done:  E(RB3LYP) =  -477.114339128     A.U. after    7 cycles
 SCF Done:  E(RB3LYP) =  -477.114339161     A.U. after    6 cycles
 Optimization completed.
    -- Stationary point found.
 Normal termination of Gaussian 16 at Tue Dec  8 10:24:57 2020.

 --------------------------------------------------------------------
 #N Geom=AllCheck Guess=TCheck SCRF=Check GenChk RB3LYP/6-31G(d) Freq
 --------------------------------------------------------------------

 Structure from the checkpoint file:  "JID_313.chk"
 ------------------------------
 CID_145510868_JID_313_neutraal
 ------------------------------
 Charge =  0 Multiplicity = 1

 SCF Done:  E(RB3LYP) =  -477.114339161     A.U. after    1 cycles

  Exact polarizability: 119.073  -8.109  88.781   1.584   1.001  70.754
 Approx polarizability: 150.193 -15.427 135.418  -0.929   4.873 101.304

                      1                      2                      3
                      A                      A                      A
 Frequencies --     40.9423                64.3011               132.7516
 Red. masses --      3.1520                 3.5459                 2.5960
 Frc consts  --      0.0031                 0.0086                 0.0270
 IR Inten    --      0.9466                 1.2367                10.4122

                      4                      5                      6
                      A                      A                      A
 Frequencies --    178.1343               228.7420               241.9908
 Red. masses --      3.3285                 1.6404                 1.0925
 Frc consts  --      0.0622                 0.0506                 0.0377
 IR Inten    --      0.5614                13.9982                 1.1176

                      7                      8                      9
                      A                      A                      A
 Frequencies --    266.2613               287.2095               300.4564
 Red. masses --      1.2145                 1.3403                 2.9300
 Frc consts  --      0.0507                 0.0651                 0.1558
 IR Inten    --     11.9043                 4.2858                12.9395

                     10                     11                     12
                      A                      A                      A
 Frequencies --    310.4225               358.2207               367.0443
 Red. masses --      2.0569                 1.8912                 2.0851
 Frc consts  --      0.1168                 0.1430                 0.1655
 IR Inten    --     13.6404                39.5984                21.5564

                     13                     14                     15
                      A                      A                      A
 Frequencies --    369.2458               413.1878               414.9781
 Red. masses --      1.9731                 2.0677                 1.6701
 Frc consts  --      0.1585                 0.2080                 0.1695
 IR Inten    --     21.4941                18.2447                28.6748

                     16                     17                     18
                      A                      A                      A
 Frequencies --    442.2481               464.9842               491.9840
 Red. masses --      1.4590                 2.0051                 2.9598
 Frc consts  --      0.1681                 0.2554                 0.4221
 IR Inten    --     47.1716               125.0235                10.7738

                     19                     20                     21
                      A                      A                      A
 Frequencies --    519.2537               602.6637               616.5404
 Red. masses --      3.5767                 3.0486                 2.9111
 Frc consts  --      0.5682                 0.6524                 0.6520
 IR Inten    --      7.0902                10.3532                39.2549

                     22                     23                     24
                      A                      A                      A
 Frequencies --    794.0781               824.6417               860.4727
 Red. masses --      3.7060                 1.4265                 5.4560
 Frc consts  --      1.3768                 0.5716                 2.3801
 IR Inten    --     13.5440                70.0114                18.3946

                     25                     26                     27
                      A                      A                      A
 Frequencies --    881.1278               916.3967               940.2632
 Red. masses --      1.3308                 2.2698                 1.5419
 Frc consts  --      0.6087                 1.1231                 0.8032
 IR Inten    --     82.1769                 0.7758                 1.4403

                     28                     29                     30
                      A                      A                      A
 Frequencies --    979.9360              1027.8104              1030.4137
 Red. masses --      2.2957                 1.4676                 1.7136
 Frc consts  --      1.2988                 0.9135                 1.0720
 IR Inten    --     62.4276                13.1278                71.4613

                     31                     32                     33
                      A                      A                      A
 Frequencies --   1089.3882              1120.4158              1139.4935
 Red. masses --      1.3073                 1.8110                 2.0742
 Frc consts  --      0.9141                 1.3394                 1.5868
 IR Inten    --     33.2479                51.1442                64.3605

                     34                     35                     36
                      A                      A                      A
 Frequencies --   1155.2159              1172.4157              1224.3983
 Red. masses --      1.6958                 2.0306                 2.4329
 Frc consts  --      1.3334                 1.6445                 2.1489
 IR Inten    --     20.5491                10.7750                43.8711

                     37                     38                     39
                      A                      A                      A
 Frequencies --   1243.5444              1319.6457              1339.6630
 Red. masses --      2.1654                 1.4870                 2.2544
 Frc consts  --      1.9729                 1.5257                 2.3838
 IR Inten    --     67.3147                 1.4704                21.5856

                     40                     41                     42
                      A                      A                      A
 Frequencies --   1360.7619              1391.7786              1413.2537
 Red. masses --      1.5777                 1.6231                 1.3455
 Frc consts  --      1.7213                 1.8524                 1.5834
 IR Inten    --     57.6078                31.0227                21.2345

                     43                     44                     45
                      A                      A                      A
 Frequencies --   1421.4514              1438.9810              1479.2834
 Red. masses --      1.5003                 1.3040                 1.1932
 Frc consts  --      1.7860                 1.5909                 1.5383
 IR Inten    --      5.2092                 6.4177                 2.1168

                     46                     47                     48
                      A                      A                      A
 Frequencies --   1512.6892              1515.8359              1517.3250
 Red. masses --      1.0472                 1.0508                 1.0481
 Frc consts  --      1.4118                 1.4226                 1.4218
 IR Inten    --      0.9998                 1.0694                19.9207

                     49                     50                     51
                      A                      A                      A
 Frequencies --   1528.2008              1532.9879              1539.0413
 Red. masses --      1.0569                 1.0552                 1.0659
 Frc consts  --      1.4542                 1.4611                 1.4875
 IR Inten    --      3.6134                 4.4366                 2.1146

                     52                     53                     54
                      A                      A                      A
 Frequencies --   1668.9049              1693.0433              1759.0422
 Red. masses --      1.1543                 1.1461                 4.3627
 Frc consts  --      1.8942                 1.9356                 7.9535
 IR Inten    --     41.5469                24.8513                34.1116

                     55                     56                     57
                      A                      A                      A
 Frequencies --   2953.3978              3043.2303              3060.1084
 Red. masses --      1.0590                 1.0388                 1.0361
 Frc consts  --      5.4426                 5.6683                 5.7164
 IR Inten    --    111.2771                26.3235                22.9341

                     58                     59                     60
                      A                      A                      A
 Frequencies --   3084.0079              3113.0132              3131.4178
 Red. masses --      1.0755                 1.0983                 1.1015
 Frc consts  --      6.0269                 6.2708                 6.3640
 IR Inten    --     42.4953                29.3006                11.2391

                     61                     62                     63
                      A                      A                      A
 Frequencies --   3133.7159              3137.2628              3151.5828
 Red. masses --      1.1023                 1.1017                 1.1032
 Frc consts  --      6.3776                 6.3890                 6.4557
 IR Inten    --     21.1558                39.6854                17.7905

                     64                     65                     66
                      A                      A                      A
 Frequencies --   3236.5024              3323.8991              3478.3467
 Red. masses --      1.0880                 1.0587                 1.0502
 Frc consts  --      6.7145                 6.8915                 7.4862
 IR Inten    --      1.2001                36.1625                54.5420

                     67                     68                     69
                      A                      A                      A
 Frequencies --   3520.7074              3586.0575              3706.3492
 Red. masses --      1.0826                 1.0935                 1.0652
 Frc consts  --      7.9065                 8.2855                 8.6214
 IR Inten    --      0.4178                24.6407                 4.6531

 - Thermochemistry -
 -------------------
 Temperature   298.150 Kelvin.  Pressure   1.00000 Atm.
 Atom     1 has atomic number  6 and mass  12.00000

 Molecular mass:   145.12151 amu.
 Principal axes and moments of inertia in atomic units:
                           1         2         3
     Eigenvalues --   784.572342351.396952706.06005
           X            0.99976  -0.02129   0.00481
           Y            0.02139   0.99955  -0.02108
           Z           -0.00435   0.02117   0.99977
 This molecule is an asymmetric top.
 Rotational symmetry number  1.
 Warning -- assumption of classical behavior for rotation
           may cause significant error
 Rotational temperatures (Kelvin)      0.11040     0.03684     0.03201
 Rotational constants (GHZ):           2.30029     0.76752     0.66693
 Zero-point vibrational energy     583796.0 (Joules/Mol)
                                  139.53058 (Kcal/Mol)
 Warning -- explicit consideration of  21 degrees of freedom as
           vibrations may cause significant error
 Vibrational temperatures:     58.91    92.51   191.00   256.30   329.11
          (Kelvin)            348.17   383.09   413.23   432.29   446.63
                              515.40   528.09   531.26   594.49   597.06
                              636.30   669.01   707.86   747.09   867.10
                              887.06  1142.50  1186.48  1238.03  1267.75
                             1318.49  1352.83  1409.91  1478.79  1482.54
                             1567.39  1612.03  1639.48  1662.10  1686.84
                             1761.64  1789.18  1898.68  1927.48  1957.83
                             2002.46  2033.36  2045.15  2070.37  2128.36
                             2176.42  2180.95  2183.09  2198.74  2205.63
                             2214.34  2401.18  2435.91  2530.87  4249.28
                             4378.53  4402.81  4437.20  4478.93  4505.41
                             4508.72  4513.82  4534.42  4656.61  4782.35
                             5004.57  5065.51  5159.54  5332.61

 Zero-point correction=                           0.222356 (Hartree/Particle)
 Thermal correction to Energy=                    0.234467
 Thermal correction to Enthalpy=                  0.235411
 Thermal correction to Gibbs Free Energy=         0.185128
 Sum of electronic and zero-point Energies=           -476.891983
 Sum of electronic and thermal Energies=              -476.879872
 Sum of electronic and thermal Enthalpies=            -476.878928
 Sum of electronic and thermal Free Energies=         -476.929211

                     E (Thermal)             CV                S
                      KCal/Mol        Cal/Mol-Kelvin    Cal/Mol-Kelvin
 Total                  147.130             46.145            105.830
 Electronic               0.000              0.000              0.000
 Translational            0.889              2.981             40.828
 Rotational               0.889              2.981             29.991
 Vibrational            145.353             40.184             35.011
 Vibration     1          0.594              1.981              5.213
 Vibration     2          0.597              1.971              4.321
 Vibration     3          0.613              1.921              2.906
 Vibration     4          0.629              1.869              2.348
 Vibration     5          0.651              1.797              1.889
 Vibration     6          0.658              1.776              1.788
 Vibration     7          0.672              1.735              1.620
 Vibration     8          0.684              1.697              1.490
 Vibration     9          0.693              1.673              1.414
 Vibration    10          0.699              1.654              1.360
 Vibration    11          0.733              1.558              1.130
 Vibration    12          0.740              1.540              1.092
 Vibration    13          0.742              1.535              1.083
 Vibration    14          0.777              1.442              0.915
 Vibration    15          0.778              1.438              0.909
 Vibration    16          0.802              1.378              0.820
 Vibration    17          0.822              1.328              0.752
 Vibration    18          0.848              1.268              0.678
 Vibration    19          0.874              1.207              0.612
 Vibration    20          0.961              1.026              0.445
 Vibration    21          0.976              0.997              0.422

 Optimization completed.
    -- Stationary point found.
 Normal termination of Gaussian 16 at Tue Dec  8 10:29:38 2020.

 ----------------------------------------------------------------------
 # B3LYP/6-311++G(d,p) empiricaldispersion=gd3bj scf=xqc pop=npa geom=c
 heck
 ----------------------------------------------------------------------

 --------------------------------------
 CID_145510868_JID_313_Energie_neutraal
 --------------------------------------
 Structure from the checkpoint file:  "JID_313.chk"
 Charge =  0 Multiplicity = 1

 SCF Done:  E(RB3LYP) =  -477.276629754     A.U. after   14 cycles
 Normal termination of Gaussian 16 at Tue Dec  8 10:31:48 2020.

 ----------------------------------------------------------------------
 # B3LYP/6-311++G(d,p) empiricaldispersion=gd3bj scf=xqc pop=npa geom=c
 heck
 ----------------------------------------------------------------------

 ------------------------------------
 CID_145510868_JID_313_Energie_kation
 ------------------------------------
 Structure from the checkpoint file:  "JID_313.chk"
 Charge =  1 Multiplicity = 2

 SCF Done:  E(UB3LYP) =  -477.025126299     A.U. after   19 cycles
 Normal termination of Gaussian 16 at Tue Dec  8 10:37:26 2020.
 Gaussian 16:  ES64L-G16RevA.03 25-Dec-2016

 ----------------------------------------------------------------------
 # B3LYP/6-311++G(d,p) empiricaldispersion=gd3bj scf=xqc pop=npa geom=c
 heck
 ----------------------------------------------------------------------

 -----------------------------------
 CID_145510868_JID_313_Energie_anion
 -----------------------------------
 Structure from the checkpoint file:  "JID_313.chk"
 Charge = -1 Multiplicity = 2

                         Standard orientation:
 ---------------------------------------------------------------------
 Center     Atomic      Atomic             Coordinates (Angstroms)
 Number     Number       Type             X           Y           Z
 ---------------------------------------------------------------------
      1          6           0       -2.109157   -0.267281    1.490493
      2          6           0       -1.678785   -0.236781    0.021163
      3          6           0       -2.706209    0.542543   -0.820440
      4          6           0       -0.277836    0.372610   -0.104505
      5          6           0        0.787080   -0.448987   -0.198803
      6          7           0        2.161938   -0.129006   -0.359205
      7          6           0        3.067749   -1.189958    0.063789
      8          7           0        2.531572    1.146327    0.164303
      9          7           0       -0.227438    1.774644    0.034151
     10          8           0       -1.684527   -1.604404   -0.409448
     11          1           0       -2.049298    0.738420    1.914994
     12          1           0       -1.441314   -0.927050    2.051390
     13          1           0       -3.134972   -0.640528    1.584055
     14          1           0       -2.865441    1.557343   -0.441507
     15          1           0       -2.386034    0.608054   -1.868361
     16          1           0       -3.663321    0.014071   -0.786980
     17          1           0        0.600950   -1.514621   -0.167016
     18          1           0        4.083787   -0.951420   -0.268923
     19          1           0        3.080260   -1.327748    1.161560
     20          1           0        2.770880   -2.134866   -0.400222
     21          1           0        2.731193    1.064463    1.170698
     22          1           0        3.400001    1.416862   -0.293969
     23          1           0       -0.839382    2.260013   -0.613473
     24          1           0        0.732182    2.103956   -0.048158
     25          1           0       -1.302835   -1.608349   -1.303430
 ---------------------------------------------------------------------

 SCF Done:  E(UB3LYP) =  -477.264199647     A.U. after   29 cycles

 The electronic state is 2-A.
 Alpha  occ. eigenvalues --  -19.01531 -14.23374 -14.21575 -14.18482 -10.12827
 Alpha  occ. eigenvalues --  -10.07908 -10.07892 -10.06708 -10.06046 -10.05230
 Alpha  occ. eigenvalues --   -0.92144  -0.87352  -0.78492  -0.69686  -0.67145
 Alpha  occ. eigenvalues --   -0.61897  -0.58946  -0.55029  -0.48358  -0.44787
 Alpha  occ. eigenvalues --   -0.42249  -0.39844  -0.37667  -0.36373  -0.35544
 Alpha  occ. eigenvalues --   -0.34009  -0.33658  -0.31033  -0.29422  -0.28766
 Alpha  occ. eigenvalues --   -0.28319  -0.27764  -0.26822  -0.25190  -0.22871
 Alpha  occ. eigenvalues --   -0.21157  -0.17568  -0.16396  -0.15677  -0.06730
 Alpha  occ. eigenvalues --    0.04614
 Alpha virt. eigenvalues --    0.06828   0.08351   0.08789   0.09605   0.09758
 Alpha virt. eigenvalues --    0.10194   0.11237   0.11795   0.12496   0.12962
 Alpha virt. eigenvalues --    0.13483   0.13894   0.14212   0.15098   0.16276

  Beta  occ. eigenvalues --  -19.01515 -14.23368 -14.21505 -14.18460 -10.12826
  Beta  occ. eigenvalues --  -10.07898 -10.07835 -10.06697 -10.06014 -10.05220
  Beta  occ. eigenvalues --   -0.92109  -0.87292  -0.78448  -0.69574  -0.67114
  Beta  occ. eigenvalues --   -0.61846  -0.58904  -0.54939  -0.48301  -0.44737
  Beta  occ. eigenvalues --   -0.42199  -0.39779  -0.37608  -0.36323  -0.35499
  Beta  occ. eigenvalues --   -0.33979  -0.33627  -0.30984  -0.29383  -0.28724
  Beta  occ. eigenvalues --   -0.28275  -0.27743  -0.26792  -0.25165  -0.22842
  Beta  occ. eigenvalues --   -0.21119  -0.17537  -0.16351  -0.15621  -0.06682
  Beta virt. eigenvalues --    0.06844   0.07967   0.08969   0.09142   0.10061
  Beta virt. eigenvalues --    0.10424   0.10868   0.11625   0.12161   0.12852
  Beta virt. eigenvalues --    0.13342   0.13788   0.14267   0.14498   0.15165

 Mulliken charges and spin densities:
               1          2
     1  C    0.118474  -0.645441
     2  C   -0.104552   0.264959
     3  C    0.007882  -0.663185
     4  C   -0.794275   1.039858
     5  C    0.770515  -1.446457
     6  N   -0.032039   0.214962
     7  C    1.502917  -1.832449
     8  N   -0.346020  -0.143191
     9  N   -0.484268   0.055909
    10  O   -0.201015  -0.002498
    11  H    0.026291   0.142469
    12  H    0.076971   0.091215
    13  H    0.049395   0.077925
    14  H   -0.101539   0.223540
    15  H   -0.164933   0.326256
    16  H    0.019913   0.146529
    17  H    0.138070   0.004106
    18  H   -0.753957   0.893820
    19  H   -0.356320   0.480237
    20  H   -0.297217   0.429974
    21  H   -0.156776   0.348974
    22  H   -0.142627   0.415281
    23  H   -0.010764   0.240634
    24  H    0.227380   0.112096
    25  H    0.008495   0.224476
 Sum of Mulliken charges =  -1.00000   1.00000

 Dipole moment (field-independent basis, Debye):
    X=             -6.1087    Y=             -0.0102    Z=             -0.1044  Tot=              6.1096
 Quadrupole moment (field-independent basis, Debye-Ang):
   XX=           -132.4042   YY=            -97.3923   ZZ=            -91.4509
   XY=             -0.5864   XZ=             -1.8018   YZ=             -0.3900

 Summary of Natural Population Analysis:

                                       Natural Population
                Natural  -----------------------------------------------
    Atom  No    Charge         Core      Valence    Rydberg      Total
 -----------------------------------------------------------------------
      C    1   -0.28622      0.99961     2.28077    0.00584     3.28622
      C    2    0.11947      0.99952     1.86580    0.01521     2.88053
      C    3   -0.29974      0.99962     2.29289    0.00723     3.29974
      C    4    0.04614      0.99943     1.93968    0.01475     2.95386
      C    5   -0.03871      0.99941     2.02605    0.01324     3.03871
      N    6   -0.17884      0.99970     2.66306    0.01607     3.67884
      C    7   -0.17912      0.99964     2.16988    0.00960     3.17912
      N    8   -0.33052      0.99977     2.81673    0.01403     3.83052
      N    9   -0.42397      0.99972     2.91198    0.01227     3.92397
      O   10   -0.37736      0.99989     3.37066    0.00681     4.37736
      H   11    0.10529      0.00000     0.39355    0.00115     0.39471
      H   12    0.10554      0.00000     0.39344    0.00101     0.39446
      H   13    0.09489      0.00000     0.40417    0.00094     0.40511
      H   14    0.10068      0.00000     0.39822    0.00110     0.39932
      H   15    0.10021      0.00000     0.39854    0.00124     0.39979
      H   16    0.10330      0.00000     0.39573    0.00097     0.39670
      H   17    0.10349      0.00000     0.39484    0.00167     0.39651
      H   18    0.09809      0.00000     0.39866    0.00326     0.40191
      H   19    0.08245      0.00000     0.41479    0.00276     0.41755
      H   20    0.09704      0.00000     0.40135    0.00161     0.40296
      H   21    0.16742      0.00000     0.32863    0.00394     0.33258
      H   22    0.18188      0.00000     0.31241    0.00571     0.31812
      H   23    0.17668      0.00000     0.32130    0.00202     0.32332
      H   24    0.20220      0.00000     0.29549    0.00231     0.29780
      H   25    0.22970      0.00000     0.26709    0.00321     0.27030
 =======================================================================
   * Total *   -0.00000      9.99631    29.85572    0.14797    40.00000

 Normal termination of Gaussian 16 at Tue Dec  8 10:45:50 2020.
