 Gaussian 16, Revision A.03,

 -----------------------------------------------------------
 # opt freq B3LYP/6-31G(d) empiricaldispersion=gd3bj scf=xqc
 -----------------------------------------------------------

 -------------------------------
 CID_110656432_JID_7798_neutraal
 -------------------------------
 Symbolic Z-matrix:
 Charge =  0 Multiplicity = 1

 SCF Done:  E(RB3LYP) =  -1087.98773829     A.U. after   15 cycles
 SCF Done:  E(RB3LYP) =  -1087.99091858     A.U. after   12 cycles
 SCF Done:  E(RB3LYP) =  -1087.99067402     A.U. after   12 cycles
 SCF Done:  E(RB3LYP) =  -1087.99071696     A.U. after   12 cycles
 SCF Done:  E(RB3LYP) =  -1087.99152812     A.U. after    9 cycles
 SCF Done:  E(RB3LYP) =  -1087.99189838     A.U. after   12 cycles
 SCF Done:  E(RB3LYP) =  -1087.99195048     A.U. after   13 cycles
 SCF Done:  E(RB3LYP) =  -1087.99228413     A.U. after   12 cycles
 SCF Done:  E(RB3LYP) =  -1087.99247614     A.U. after   13 cycles
 SCF Done:  E(RB3LYP) =  -1087.99264966     A.U. after   12 cycles
 SCF Done:  E(RB3LYP) =  -1087.99285498     A.U. after   10 cycles
 SCF Done:  E(RB3LYP) =  -1087.99285887     A.U. after    9 cycles
 SCF Done:  E(RB3LYP) =  -1087.99286323     A.U. after    9 cycles
 SCF Done:  E(RB3LYP) =  -1087.99286340     A.U. after    7 cycles
 SCF Done:  E(RB3LYP) =  -1087.99286344     A.U. after    7 cycles
 SCF Done:  E(RB3LYP) =  -1087.99286345     A.U. after    6 cycles
 Optimization completed on the basis of negligible forces.
    -- Stationary point found.
 Normal termination of Gaussian 16 at Fri Dec 11 13:28:00 2020.

 --------------------------------------------------------------------
 #N Geom=AllCheck Guess=TCheck SCRF=Check GenChk RB3LYP/6-31G(d) Freq
 --------------------------------------------------------------------

 Structure from the checkpoint file:  "JID_7798.chk"
 -------------------------------
 CID_110656432_JID_7798_neutraal
 -------------------------------
 Charge =  0 Multiplicity = 1

 SCF Done:  E(RB3LYP) =  -1087.99286345     A.U. after    1 cycles

  Exact polarizability: 238.512 -14.004 173.353  -9.417  -9.981 102.013
 Approx polarizability: 318.777 -25.346 299.017 -15.096 -26.259 160.394

                      1                      2                      3
                      A                      A                      A
 Frequencies --     19.7496                20.3110                31.1867
 Red. masses --      3.0261                 1.1218                 5.3896
 Frc consts  --      0.0007                 0.0003                 0.0031
 IR Inten    --      0.2259                 0.1523                 0.7059

                      4                      5                      6
                      A                      A                      A
 Frequencies --     40.9719                74.0691                97.5660
 Red. masses --      4.0964                 3.6351                 4.4229
 Frc consts  --      0.0041                 0.0118                 0.0248
 IR Inten    --      0.4275                 1.0606                 1.4531

                      7                      8                      9
                      A                      A                      A
 Frequencies --    115.5176               131.8582               185.4633
 Red. masses --      5.9138                 4.8842                 3.7659
 Frc consts  --      0.0465                 0.0500                 0.0763
 IR Inten    --      0.2190                 2.5990                 0.9381

                     10                     11                     12
                      A                      A                      A
 Frequencies --    214.2789               240.1479               243.5109
 Red. masses --      2.9884                 1.4317                 2.2647
 Frc consts  --      0.0808                 0.0486                 0.0791
 IR Inten    --      0.9194                 0.0709                 0.6478

                     13                     14                     15
                      A                      A                      A
 Frequencies --    280.7773               295.7351               320.5472
 Red. masses --      1.3607                 2.3520                 3.1199
 Frc consts  --      0.0632                 0.1212                 0.1889
 IR Inten    --      0.1999                 0.3562                 1.0976

                     16                     17                     18
                      A                      A                      A
 Frequencies --    344.5785               345.6825               361.0596
 Red. masses --      4.3749                 2.6706                 2.6899
 Frc consts  --      0.3061                 0.1880                 0.2066
 IR Inten    --      0.9544                 1.1399                 2.2782

                     19                     20                     21
                      A                      A                      A
 Frequencies --    380.9215               449.0023               460.7136
 Red. masses --      5.0902                 3.0086                 2.7947
 Frc consts  --      0.4352                 0.3574                 0.3495
 IR Inten    --      0.3297                 1.4546                 3.1653

                     22                     23                     24
                      A                      A                      A
 Frequencies --    488.0193               540.3246               546.4329
 Red. masses --      4.6595                 5.1631                 4.3637
 Frc consts  --      0.6538                 0.8881                 0.7677
 IR Inten    --      1.8546                 2.8879                 1.1530

                     25                     26                     27
                      A                      A                      A
 Frequencies --    589.6146               644.4289               695.6084
 Red. masses --      3.9203                 6.9855                 6.8825
 Frc consts  --      0.8030                 1.7092                 1.9621
 IR Inten    --      4.1235                 3.3062                 2.2621

                     28                     29                     30
                      A                      A                      A
 Frequencies --    703.6054               724.5785               753.0384
 Red. masses --      2.9637                 4.3115                 4.7476
 Frc consts  --      0.8645                 1.3337                 1.5862
 IR Inten    --      3.7526                15.9211                 6.5273

                     31                     32                     33
                      A                      A                      A
 Frequencies --    770.6428               811.0467               869.2230
 Red. masses --      6.2418                 1.6565                 3.7404
 Frc consts  --      2.1841                 0.6420                 1.6651
 IR Inten    --     17.5423                14.4496                16.3783

                     34                     35                     36
                      A                      A                      A
 Frequencies --    879.3438               902.0077               910.9454
 Red. masses --      2.3178                 2.4503                 1.3086
 Frc consts  --      1.0559                 1.1746                 0.6398
 IR Inten    --      1.0127                 1.8331                 0.8820

                     37                     38                     39
                      A                      A                      A
 Frequencies --    938.4431               948.0862               970.0993
 Red. masses --      1.3885                 1.1612                 1.4334
 Frc consts  --      0.7205                 0.6150                 0.7948
 IR Inten    --      3.8621                 1.5268                 0.0806

                     40                     41                     42
                      A                      A                      A
 Frequencies --    981.4589               988.4248              1000.0047
 Red. masses --      1.2877                 8.3851                 8.6489
 Frc consts  --      0.7308                 4.8266                 5.0958
 IR Inten    --      0.0885                11.4866                 7.1407

                     43                     44                     45
                      A                      A                      A
 Frequencies --   1017.5991              1027.1837              1057.3709
 Red. masses --      2.7137                 2.4139                 4.8663
 Frc consts  --      1.6556                 1.5006                 3.2055
 IR Inten    --      9.2900                 6.5836                13.1126

                     46                     47                     48
                      A                      A                      A
 Frequencies --   1078.6386              1096.3031              1127.3547
 Red. masses --      1.5221                 1.3732                 2.9099
 Frc consts  --      1.0434                 0.9724                 2.1789
 IR Inten    --      4.5665                15.8531                11.8112

                     49                     50                     51
                      A                      A                      A
 Frequencies --   1133.5775              1144.0207              1187.9029
 Red. masses --      1.6137                 2.2916                 1.4721
 Frc consts  --      1.2217                 1.7671                 1.2239
 IR Inten    --      5.7987                 1.4066                16.5686

                     52                     53                     54
                      A                      A                      A
 Frequencies --   1202.3739              1208.9406              1227.9943
 Red. masses --      1.8727                 1.1291                 2.3245
 Frc consts  --      1.5951                 0.9723                 2.0652
 IR Inten    --      2.8841                 0.6217                 6.4134

                     55                     56                     57
                      A                      A                      A
 Frequencies --   1282.2148              1301.5743              1318.8738
 Red. masses --      1.5058                 2.3801                 1.2581
 Frc consts  --      1.4586                 2.3757                 1.2894
 IR Inten    --     15.8588                 5.4515                 9.5925

                     58                     59                     60
                      A                      A                      A
 Frequencies --   1337.3604              1358.5699              1371.0127
 Red. masses --      1.7851                 1.3316                 2.8651
 Frc consts  --      1.8811                 1.4481                 3.1730
 IR Inten    --      1.7362                 1.8667                 5.1859

                     61                     62                     63
                      A                      A                      A
 Frequencies --   1391.5013              1428.4375              1444.0836
 Red. masses --      3.9102                 1.2466                 1.2468
 Frc consts  --      4.4608                 1.4986                 1.5319
 IR Inten    --     13.2728                 6.2727                 0.2322

                     64                     65                     66
                      A                      A                      A
 Frequencies --   1447.7395              1473.3620              1487.6327
 Red. masses --      1.2275                 1.1370                 2.3941
 Frc consts  --      1.5159                 1.4542                 3.1217
 IR Inten    --      1.0881                11.3275                 9.9971

                     67                     68                     69
                      A                      A                      A
 Frequencies --   1515.2197              1515.6552              1522.0594
 Red. masses --      1.0430                 1.0442                 2.0629
 Frc consts  --      1.4109                 1.4134                 2.8158
 IR Inten    --      1.2016                 6.0061                27.2105

                     70                     71                     72
                      A                      A                      A
 Frequencies --   1527.5516              1532.3791              1533.4461
 Red. masses --      1.0553                 1.0708                 1.3781
 Frc consts  --      1.4508                 1.4815                 1.9092
 IR Inten    --      2.7215                11.1593                29.9453

                     73                     74                     75
                      A                      A                      A
 Frequencies --   1544.3270              1601.8051              1609.9420
 Red. masses --      1.0476                 7.1216                 9.4266
 Frc consts  --      1.4721                10.7659                14.3955
 IR Inten    --      0.9246                46.9042                50.7857

                     76                     77                     78
                      A                      A                      A
 Frequencies --   1652.6088              1671.1075              3048.2659
 Red. masses --      6.0687                 5.6178                 1.0418
 Frc consts  --      9.7652                 9.2433                 5.7036
 IR Inten    --      7.5515                 6.0896                13.0965

                     79                     80                     81
                      A                      A                      A
 Frequencies --   3048.2907              3053.6689              3058.2299
 Red. masses --      1.0415                 1.0497                 1.0700
 Frc consts  --      5.7019                 5.7672                 5.8965
 IR Inten    --     37.6064                16.4608                18.1268

                     82                     83                     84
                      A                      A                      A
 Frequencies --   3100.3241              3101.1798              3117.0114
 Red. masses --      1.0605                 1.1010                 1.0993
 Frc consts  --      6.0059                 6.2384                 6.2927
 IR Inten    --      6.0325                17.9775                18.4263

                     85                     86                     87
                      A                      A                      A
 Frequencies --   3124.5480              3134.8273              3137.2024
 Red. masses --      1.0931                 1.1009                 1.1030
 Frc consts  --      6.2876                 6.3744                 6.3958
 IR Inten    --     18.5907                13.1739                20.3863

                     88                     89                     90
                      A                      A                      A
 Frequencies --   3159.3374              3161.7542              3182.0626
 Red. masses --      1.1049                 1.1010                 1.0877
 Frc consts  --      6.4977                 6.4850                 6.4890
 IR Inten    --      0.7341                15.7098                 7.4433

                     91                     92                     93
                      A                      A                      A
 Frequencies --   3202.1276              3214.7035              3223.5673
 Red. masses --      1.0918                 1.0910                 1.0939
 Frc consts  --      6.5959                 6.6429                 6.6975
 IR Inten    --     20.7764                 1.5342                 6.8429

 - Thermochemistry -
 -------------------
 Temperature   298.150 Kelvin.  Pressure   1.00000 Atm.
 Atom     1 has atomic number  6 and mass  12.00000

 Molecular mass:   248.09834 amu.
 Principal axes and moments of inertia in atomic units:
                           1         2         3
     Eigenvalues --  2049.018618367.352619674.58324
           X            0.99987   0.01427  -0.00771
           Y           -0.01429   0.99989  -0.00253
           Z            0.00767   0.00264   0.99997
 This molecule is an asymmetric top.
 Rotational symmetry number  1.
 Warning -- assumption of classical behavior for rotation
           may cause significant error
 Rotational temperatures (Kelvin)      0.04227     0.01035     0.00895
 Rotational constants (GHZ):           0.88078     0.21569     0.18654
 Zero-point vibrational energy     710305.8 (Joules/Mol)
                                  169.76715 (Kcal/Mol)
 Warning -- explicit consideration of  25 degrees of freedom as
           vibrations may cause significant error
 Vibrational temperatures:     28.42    29.22    44.87    58.95   106.57
          (Kelvin)            140.38   166.20   189.71   266.84   308.30
                              345.52   350.36   403.98   425.50   461.20
                              495.77   497.36   519.48   548.06   646.01
                              662.86   702.15   777.41   786.20   848.32
                              927.19  1000.83  1012.33  1042.51  1083.45
                             1108.78  1166.92  1250.62  1265.18  1297.79
                             1310.65  1350.21  1364.08  1395.76  1412.10
                             1422.12  1438.78  1464.10  1477.89  1521.32
                             1551.92  1577.34  1622.01  1630.97  1645.99
                             1709.13  1729.95  1739.40  1766.81  1844.82
                             1872.68  1897.57  1924.16  1954.68  1972.58
                             2002.06  2055.20  2077.71  2082.97  2119.84
                             2140.37  2180.06  2180.69  2189.90  2197.81
                             2204.75  2206.29  2221.94  2304.64  2316.35
                             2377.74  2404.35  4385.77  4385.81  4393.55
                             4400.11  4460.67  4461.91  4484.68  4495.53
                             4510.32  4513.73  4545.58  4549.06  4578.28
                             4607.15  4625.24  4637.99

 Zero-point correction=                           0.270541 (Hartree/Particle)
 Thermal correction to Energy=                    0.287522
 Thermal correction to Enthalpy=                  0.288466
 Thermal correction to Gibbs Free Energy=         0.222676
 Sum of electronic and zero-point Energies=          -1087.722322
 Sum of electronic and thermal Energies=             -1087.705342
 Sum of electronic and thermal Enthalpies=           -1087.704398
 Sum of electronic and thermal Free Energies=        -1087.770187

                     E (Thermal)             CV                S
                      KCal/Mol        Cal/Mol-Kelvin    Cal/Mol-Kelvin
 Total                  180.422             62.655            138.466
 Electronic               0.000              0.000              0.000
 Translational            0.889              2.981             42.427
 Rotational               0.889              2.981             33.472
 Vibrational            178.645             56.694             62.567
 Vibration     1          0.593              1.986              6.659
 Vibration     2          0.593              1.986              6.604
 Vibration     3          0.594              1.983              5.752
 Vibration     4          0.594              1.981              5.212
 Vibration     5          0.599              1.966              4.042
 Vibration     6          0.603              1.951              3.502
 Vibration     7          0.608              1.937              3.174
 Vibration     8          0.612              1.921              2.919
 Vibration     9          0.632              1.860              2.273
 Vibration    10          0.644              1.819              2.007
 Vibration    11          0.657              1.779              1.802
 Vibration    12          0.659              1.773              1.777
 Vibration    13          0.680              1.709              1.529
 Vibration    14          0.690              1.682              1.441
 Vibration    15          0.706              1.634              1.307
 Vibration    16          0.723              1.586              1.191
 Vibration    17          0.724              1.584              1.186
 Vibration    18          0.735              1.552              1.118
 Vibration    19          0.751              1.511              1.036
 Vibration    20          0.808              1.363              0.799
 Vibration    21          0.819              1.337              0.764
 Vibration    22          0.844              1.277              0.689
 Vibration    23          0.895              1.161              0.565
 Vibration    24          0.902              1.147              0.552
 Vibration    25          0.947              1.054              0.468

 Optimization completed on the basis of negligible forces.
    -- Stationary point found.
 Normal termination of Gaussian 16 at Fri Dec 11 13:40:08 2020.

 ----------------------------------------------------------------------
 # B3LYP/6-311++G(d,p) empiricaldispersion=gd3bj scf=xqc pop=npa geom=c
 heck
 ----------------------------------------------------------------------

 ---------------------------------------
 CID_110656432_JID_7798_Energie_neutraal
 ---------------------------------------
 Structure from the checkpoint file:  "JID_7798.chk"
 Charge =  0 Multiplicity = 1

 SCF Done:  E(RB3LYP) =  -1088.19944520     A.U. after   15 cycles
 Normal termination of Gaussian 16 at Fri Dec 11 13:46:19 2020.

 ----------------------------------------------------------------------
 # B3LYP/6-311++G(d,p) empiricaldispersion=gd3bj scf=xqc pop=npa geom=c
 heck
 ----------------------------------------------------------------------

 -------------------------------------
 CID_110656432_JID_7798_Energie_kation
 -------------------------------------
 Structure from the checkpoint file:  "JID_7798.chk"
 Charge =  1 Multiplicity = 2

 SCF Done:  E(UB3LYP) =  -1087.90344652     A.U. after   26 cycles
 Normal termination of Gaussian 16 at Fri Dec 11 14:01:46 2020.
 Gaussian 16:  ES64L-G16RevA.03 25-Dec-2016

 ----------------------------------------------------------------------
 # B3LYP/6-311++G(d,p) empiricaldispersion=gd3bj scf=xqc pop=npa geom=c
 heck
 ----------------------------------------------------------------------

 ------------------------------------
 CID_110656432_JID_7798_Energie_anion
 ------------------------------------
 Structure from the checkpoint file:  "JID_7798.chk"
 Charge = -1 Multiplicity = 2

                         Standard orientation:
 ---------------------------------------------------------------------
 Center     Atomic      Atomic             Coordinates (Angstroms)
 Number     Number       Type             X           Y           Z
 ---------------------------------------------------------------------
      1          6           0       -5.499374   -0.576749    0.672149
      2          6           0       -4.196005    0.040922    0.227902
      3          6           0       -3.019728   -0.705739    0.203857
      4          6           0       -1.807822   -0.127540   -0.206010
      5          6           0       -1.769902    1.216227   -0.598162
      6          6           0       -2.943636    1.966833   -0.576085
      7          6           0       -4.142624    1.386598   -0.168208
      8          6           0       -0.603598   -0.944230   -0.208217
      9          7           0       -0.455411   -2.188457    0.141967
     10          7           0        0.895769   -2.496689   -0.027415
     11          6           0        1.469929   -1.419489   -0.464058
     12          8           0        0.582655   -0.389398   -0.615126
     13          6           0        2.898348   -1.189874   -0.780853
     14         16           0        3.890390   -0.360021    0.534531
     15          6           0        3.343491    1.416683    0.513234
     16          6           0        3.112998    1.963133   -0.895061
     17          6           0        2.162100    1.682887    1.449467
     18          1           0       -5.376342   -1.636950    0.910708
     19          1           0       -5.891732   -0.074650    1.564808
     20          1           0       -6.264888   -0.492815   -0.108380
     21          1           0       -3.023447   -1.748785    0.503854
     22          1           0       -0.833894    1.663135   -0.915061
     23          1           0       -2.921616    3.009609   -0.879024
     24          1           0       -5.052342    1.982061   -0.155253
     25          1           0        3.374119   -2.166312   -0.893034
     26          1           0        3.002184   -0.646462   -1.723150
     27          1           0        4.233993    1.903520    0.929289
     28          1           0        2.216613    1.528812   -1.348731
     29          1           0        2.961373    3.047931   -0.845638
     30          1           0        3.968819    1.767989   -1.548945
     31          1           0        2.364907    1.305811    2.455585
     32          1           0        1.977932    2.763065    1.516864
     33          1           0        1.249286    1.207597    1.083034
 ---------------------------------------------------------------------

 SCF Done:  E(UB3LYP) =  -1088.20932184     A.U. after   31 cycles

 The electronic state is 2-A.
 Alpha  occ. eigenvalues --  -88.73355 -19.05123 -14.19522 -14.17208 -10.11725
 Alpha  occ. eigenvalues --  -10.11319 -10.10553 -10.09993 -10.07605 -10.06297
 Alpha  occ. eigenvalues --  -10.05313 -10.04336 -10.03634 -10.03209 -10.02733
 Alpha  occ. eigenvalues --  -10.02519 -10.02066  -7.81993  -5.78400  -5.78023
 Alpha  occ. eigenvalues --   -5.77349  -1.00632  -0.82824  -0.73352  -0.72246
 Alpha  occ. eigenvalues --   -0.70107  -0.65324  -0.63833  -0.60677  -0.59824
 Alpha  occ. eigenvalues --   -0.56336  -0.56014  -0.51427  -0.48379  -0.45916
 Alpha  occ. eigenvalues --   -0.45571  -0.43152  -0.38969  -0.36946  -0.36551
 Alpha  occ. eigenvalues --   -0.35595  -0.34698  -0.33096  -0.32969  -0.32115
 Alpha  occ. eigenvalues --   -0.31030  -0.30572  -0.30427  -0.29352  -0.28459
 Alpha  occ. eigenvalues --   -0.27703  -0.27009  -0.26336  -0.26077  -0.24254
 Alpha  occ. eigenvalues --   -0.22843  -0.21568  -0.20777  -0.20556  -0.20243
 Alpha  occ. eigenvalues --   -0.17789  -0.15919  -0.13526  -0.12623  -0.11645
 Alpha  occ. eigenvalues --   -0.09662   0.04486
 Alpha virt. eigenvalues --    0.06722   0.08217   0.08335   0.09086   0.09844
 Alpha virt. eigenvalues --    0.10169   0.11005   0.11099   0.11242   0.11721
 Alpha virt. eigenvalues --    0.12215   0.12391   0.12969   0.13302   0.13864

  Beta  occ. eigenvalues --  -88.73327 -19.04865 -14.19620 -14.16992 -10.11500
  Beta  occ. eigenvalues --  -10.11319 -10.10557 -10.09760 -10.07602 -10.06297
  Beta  occ. eigenvalues --  -10.05312 -10.04376 -10.03699 -10.03029 -10.02563
  Beta  occ. eigenvalues --  -10.02384 -10.01727  -7.81964  -5.78346  -5.77990
  Beta  occ. eigenvalues --   -5.77328  -1.00236  -0.82561  -0.73092  -0.72014
  Beta  occ. eigenvalues --   -0.69846  -0.65101  -0.63685  -0.60277  -0.59816
  Beta  occ. eigenvalues --   -0.56168  -0.55818  -0.50956  -0.48098  -0.45802
  Beta  occ. eigenvalues --   -0.45323  -0.42892  -0.38815  -0.36860  -0.36233
  Beta  occ. eigenvalues --   -0.35435  -0.33971  -0.32865  -0.32818  -0.32031
  Beta  occ. eigenvalues --   -0.30922  -0.30415  -0.30301  -0.29326  -0.28320
  Beta  occ. eigenvalues --   -0.27585  -0.26806  -0.26247  -0.26068  -0.24046
  Beta  occ. eigenvalues --   -0.21957  -0.21377  -0.20655  -0.20433  -0.19306
  Beta  occ. eigenvalues --   -0.17726  -0.14547  -0.13300  -0.12472  -0.10799
  Beta  occ. eigenvalues --   -0.08169
  Beta virt. eigenvalues --    0.06640   0.08160   0.08288   0.08967   0.09644
  Beta virt. eigenvalues --    0.09799   0.10252   0.11070   0.11172   0.11526
  Beta virt. eigenvalues --    0.11730   0.12344   0.12434   0.13010   0.13554

 Mulliken charges and spin densities:
               1          2
     1  C   -0.460567   0.012764
     2  C   -0.027098  -0.033493
     3  C   -0.897849   0.127366
     4  C    0.833155   0.028568
     5  C   -0.329824   0.182871
     6  C   -0.362044  -0.031737
     7  C   -0.243421   0.275231
     8  C   -0.518510   0.114882
     9  N   -0.138194   0.114779
    10  N   -0.010266  -0.058357
    11  C    0.131061   0.153253
    12  O    0.008098   0.054165
    13  C   -0.223243   0.053898
    14  S    0.077601  -0.009876
    15  C    0.270984  -0.017032
    16  C   -0.609889  -0.087076
    17  C   -0.649115   0.013388
    18  H    0.133701  -0.000257
    19  H    0.121688   0.009953
    20  H    0.118310   0.008712
    21  H    0.179331  -0.008422
    22  H    0.056259  -0.004743
    23  H    0.117743   0.003948
    24  H    0.097486  -0.024171
    25  H    0.248949   0.008054
    26  H    0.144361   0.027697
    27  H    0.185661   0.035247
    28  H    0.161957   0.019198
    29  H    0.116606   0.000335
    30  H    0.115420   0.029217
    31  H    0.106468   0.002908
    32  H    0.108116  -0.000213
    33  H    0.137068  -0.001056
 Sum of Mulliken charges =  -1.00000   1.00000

 Dipole moment (field-independent basis, Debye):
    X=              3.7672    Y=              4.4671    Z=             -0.9459  Tot=              5.9196
 Quadrupole moment (field-independent basis, Debye-Ang):
   XX=           -160.2609   YY=           -134.2880   ZZ=           -119.9825
   XY=              7.9524   XZ=             -5.2342   YZ=              3.2439

 Summary of Natural Population Analysis:

                                       Natural Population
                Natural  -----------------------------------------------
    Atom  No    Charge         Core      Valence    Rydberg      Total
 -----------------------------------------------------------------------
      C    1   -0.28776      0.99964     2.28347    0.00464     3.28776
      C    2   -0.03887      0.99953     2.03060    0.00874     3.03887
      C    3   -0.05353      0.99943     2.04551    0.00860     3.05353
      C    4   -0.03038      0.99939     2.02154    0.00945     3.03038
      C    5   -0.05859      0.99946     2.05102    0.00811     3.05859
      C    6   -0.12562      0.99960     2.11607    0.00995     3.12562
      C    7   -0.04366      0.99952     2.03491    0.00923     3.04366
      C    8    0.28756      0.99955     1.69525    0.01764     2.71244
      N    9   -0.14845      0.99967     2.63556    0.01323     3.64845
      N   10   -0.18602      0.99966     2.67338    0.01298     3.68602
      C   11    0.26858      0.99958     1.71370    0.01814     2.73142
      O   12   -0.23812      0.99985     3.22623    0.01204     4.23812
      C   13   -0.27654      0.99952     2.26549    0.01153     3.27654
      S   14    0.08954      4.99963     2.89202    0.01881     7.91046
      C   15   -0.16934      0.99959     2.15458    0.01517     3.16934
      C   16   -0.29442      0.99963     2.28926    0.00553     3.29442
      C   17   -0.29283      0.99963     2.28708    0.00612     3.29283
      H   18    0.09790      0.00000     0.40117    0.00093     0.40210
      H   19    0.09579      0.00000     0.40315    0.00106     0.40421
      H   20    0.09552      0.00000     0.40343    0.00106     0.40448
      H   21    0.10106      0.00000     0.39723    0.00171     0.39894
      H   22    0.09529      0.00000     0.40323    0.00149     0.40471
      H   23    0.08972      0.00000     0.40908    0.00120     0.41028
      H   24    0.08421      0.00000     0.41435    0.00144     0.41579
      H   25    0.11977      0.00000     0.37926    0.00097     0.38023
      H   26    0.10735      0.00000     0.39062    0.00203     0.39265
      H   27    0.09736      0.00000     0.40119    0.00146     0.40264
      H   28    0.10880      0.00000     0.38991    0.00129     0.39120
      H   29    0.09800      0.00000     0.40100    0.00100     0.40200
      H   30    0.09912      0.00000     0.39958    0.00130     0.40088
      H   31    0.10094      0.00000     0.39824    0.00082     0.39906
      H   32    0.09288      0.00000     0.40620    0.00092     0.40712
      H   33    0.11476      0.00000     0.38416    0.00108     0.38524
 =======================================================================
   * Total *    0.00000     20.99289    44.79747    0.20964    66.00000

 Normal termination of Gaussian 16 at Fri Dec 11 14:20:02 2020.
