 Gaussian 16, Revision A.03,

 -----------------------------------------------------------
 # opt freq B3LYP/6-31G(d) empiricaldispersion=gd3bj scf=xqc
 -----------------------------------------------------------

 ------------------------------
 CID_148510195_JID_293_neutraal
 ------------------------------
 Symbolic Z-matrix:
 Charge =  0 Multiplicity = 1

 SCF Done:  E(RB3LYP) =  -389.466238942     A.U. after   14 cycles
 SCF Done:  E(RB3LYP) =  -389.471327731     A.U. after   12 cycles
 SCF Done:  E(RB3LYP) =  -389.472414783     A.U. after   12 cycles
 SCF Done:  E(RB3LYP) =  -389.472530883     A.U. after   11 cycles
 SCF Done:  E(RB3LYP) =  -389.472540824     A.U. after    9 cycles
 SCF Done:  E(RB3LYP) =  -389.472543066     A.U. after    8 cycles
 SCF Done:  E(RB3LYP) =  -389.472543223     A.U. after    7 cycles
 Optimization completed.
    -- Stationary point found.
 Normal termination of Gaussian 16 at Tue Dec  8 10:21:04 2020.

 --------------------------------------------------------------------
 #N Geom=AllCheck Guess=TCheck SCRF=Check GenChk RB3LYP/6-31G(d) Freq
 --------------------------------------------------------------------

 Structure from the checkpoint file:  "JID_293.chk"
 ------------------------------
 CID_148510195_JID_293_neutraal
 ------------------------------
 Charge =  0 Multiplicity = 1

 SCF Done:  E(RB3LYP) =  -389.472543223     A.U. after    1 cycles

  Exact polarizability: 109.044  -7.453 124.028   7.885  -0.239  69.886
 Approx polarizability: 137.156 -15.239 210.629  11.573  -1.279 108.132

                      1                      2                      3
                      A                      A                      A
 Frequencies --     62.6636                82.9835               138.0809
 Red. masses --      2.7320                 3.3435                 2.0286
 Frc consts  --      0.0063                 0.0136                 0.0228
 IR Inten    --      0.0142                 0.0278                 0.0246

                      4                      5                      6
                      A                      A                      A
 Frequencies --    182.0560               228.9076               266.1729
 Red. masses --      3.2712                 2.2416                 1.4907
 Frc consts  --      0.0639                 0.0692                 0.0622
 IR Inten    --      0.2009                 0.6984                 0.2561

                      7                      8                      9
                      A                      A                      A
 Frequencies --    309.1209               346.4209               389.0536
 Red. masses --      1.7862                 2.5958                 2.9936
 Frc consts  --      0.1006                 0.1835                 0.2670
 IR Inten    --      0.0675                 0.4844                 2.1602

                     10                     11                     12
                      A                      A                      A
 Frequencies --    423.8020               477.4227               623.3297
 Red. masses --      2.3082                 2.0471                 3.5981
 Frc consts  --      0.2443                 0.2749                 0.8237
 IR Inten    --      3.4999                 0.9568                 0.3727

                     13                     14                     15
                      A                      A                      A
 Frequencies --    665.5470               698.5719               781.6682
 Red. masses --      3.5035                 1.2364                 1.4295
 Frc consts  --      0.9144                 0.3555                 0.5146
 IR Inten    --      7.1138                 5.4413                 2.7989

                     16                     17                     18
                      A                      A                      A
 Frequencies --    787.7174               807.2925               821.4899
 Red. masses --      2.8263                 2.0352                 1.5251
 Frc consts  --      1.0332                 0.7815                 0.6064
 IR Inten    --      0.3583                 1.4578                25.9319

                     19                     20                     21
                      A                      A                      A
 Frequencies --    854.4111               883.7055               889.2248
 Red. masses --      1.8159                 1.4805                 2.3353
 Frc consts  --      0.7810                 0.6812                 1.0880
 IR Inten    --      3.1810                35.6672                11.4184

                     22                     23                     24
                      A                      A                      A
 Frequencies --    919.2998               931.6893               939.2329
 Red. masses --      1.5379                 2.6814                 2.0714
 Frc consts  --      0.7658                 1.3714                 1.0766
 IR Inten    --      3.6160                 4.0539                 0.9643

                     25                     26                     27
                      A                      A                      A
 Frequencies --    960.5144               976.1806              1007.0357
 Red. masses --      1.4936                 1.7413                 2.1886
 Frc consts  --      0.8119                 0.9777                 1.3077
 IR Inten    --      3.6831                 0.8894                 5.6530

                     28                     29                     30
                      A                      A                      A
 Frequencies --   1039.2520              1068.5814              1081.2260
 Red. masses --      1.6711                 1.3641                 1.1649
 Frc consts  --      1.0634                 0.9177                 0.8024
 IR Inten    --      1.4727                 3.4391                 1.2607

                     31                     32                     33
                      A                      A                      A
 Frequencies --   1096.5167              1126.4249              1133.2914
 Red. masses --      1.9695                 1.6283                 1.1389
 Frc consts  --      1.3952                 1.2173                 0.8619
 IR Inten    --      1.0502                 0.7715                 2.0790

                     34                     35                     36
                      A                      A                      A
 Frequencies --   1159.7529              1213.4324              1268.5348
 Red. masses --      1.6815                 1.9683                 1.3896
 Frc consts  --      1.3325                 1.7076                 1.3175
 IR Inten    --      0.3789                 2.3824                 3.7010

                     37                     38                     39
                      A                      A                      A
 Frequencies --   1275.1411              1304.3646              1319.4843
 Red. masses --      1.5274                 1.2956                 1.3740
 Frc consts  --      1.4633                 1.2988                 1.4094
 IR Inten    --      0.6797                 0.2132                 0.1837

                     40                     41                     42
                      A                      A                      A
 Frequencies --   1337.7620              1377.8603              1388.5758
 Red. masses --      2.0079                 1.5314                 1.7399
 Frc consts  --      2.1172                 1.7130                 1.9766
 IR Inten    --      3.4784                 2.8503                14.5288

                     43                     44                     45
                      A                      A                      A
 Frequencies --   1398.0305              1440.6811              1447.5234
 Red. masses --      1.4238                 1.5660                 1.5621
 Frc consts  --      1.6396                 1.9150                 1.9284
 IR Inten    --      2.3111                 3.9097                 1.4005

                     46                     47                     48
                      A                      A                      A
 Frequencies --   1479.9981              1514.4421              1521.0291
 Red. masses --      1.2985                 1.0799                 1.0761
 Frc consts  --      1.6758                 1.4593                 1.4668
 IR Inten    --      0.0405                 2.3744                 0.7780

                     49                     50                     51
                      A                      A                      A
 Frequencies --   1532.0771              1540.5675              1637.3618
 Red. masses --      1.0490                 1.0647                 5.8320
 Frc consts  --      1.4507                 1.4888                 9.2121
 IR Inten    --      6.1000                 5.9377                 2.3010

                     52                     53                     54
                      A                      A                      A
 Frequencies --   1722.3604              3020.7923              3030.4712
 Red. masses --      5.7535                 1.0598                 1.0652
 Frc consts  --     10.0562                 5.6979                 5.7639
 IR Inten    --     24.3615                31.4194                22.6758

                     55                     56                     57
                      A                      A                      A
 Frequencies --   3045.1216              3055.4418              3067.3432
 Red. masses --      1.0390                 1.0977                 1.1014
 Frc consts  --      5.6766                 6.0378                 6.1054
 IR Inten    --     20.1329                52.0275                38.4157

                     58                     59                     60
                      A                      A                      A
 Frequencies --   3107.5419              3126.9482              3142.3393
 Red. masses --      1.1009                 1.1017                 1.0885
 Frc consts  --      6.2636                 6.3471                 6.3325
 IR Inten    --     45.7439                42.3027                16.2158

                     61                     62                     63
                      A                      A                      A
 Frequencies --   3164.5269              3174.9276              3195.7236
 Red. masses --      1.0589                 1.0893                 1.0908
 Frc consts  --      6.2475                 6.4693                 6.5635
 IR Inten    --      6.2283                17.8249                12.5635

                     64                     65                     66
                      A                      A                      A
 Frequencies --   3206.3338              3228.2615              3243.6284
 Red. masses --      1.0866                 1.1029                 1.1166
 Frc consts  --      6.5814                 6.7719                 6.9215
 IR Inten    --      5.6581                23.8614                15.8073

 - Thermochemistry -
 -------------------
 Temperature   298.150 Kelvin.  Pressure   1.00000 Atm.
 Atom     1 has atomic number  6 and mass  12.00000

 Molecular mass:   134.10955 amu.
 Principal axes and moments of inertia in atomic units:
                           1         2         3
     Eigenvalues --   806.215231893.670102495.29980
           X            0.99998   0.00468   0.00509
           Y           -0.00468   0.99999  -0.00067
           Z           -0.00509   0.00064   0.99999
 This molecule is an asymmetric top.
 Rotational symmetry number  1.
 Warning -- assumption of classical behavior for rotation
           may cause significant error
 Rotational temperatures (Kelvin)      0.10743     0.04574     0.03471
 Rotational constants (GHZ):           2.23854     0.95304     0.72326
 Zero-point vibrational energy     560374.3 (Joules/Mol)
                                  133.93267 (Kcal/Mol)
 Warning -- explicit consideration of  11 degrees of freedom as
           vibrations may cause significant error
 Vibrational temperatures:     90.16   119.39   198.67   261.94   329.35
          (Kelvin)            382.96   444.76   498.42   559.76   609.76
                              686.90   896.83   957.57  1005.09  1124.65
                             1133.35  1161.51  1181.94  1229.31  1271.46
                             1279.40  1322.67  1340.49  1351.35  1381.97
                             1404.51  1448.90  1495.25  1537.45  1555.64
                             1577.64  1620.67  1630.55  1668.63  1745.86
                             1825.14  1834.64  1876.69  1898.44  1924.74
                             1982.43  1997.85  2011.45  2072.82  2082.66
                             2129.39  2178.94  2188.42  2204.32  2216.53
                             2355.80  2478.09  4346.25  4360.17  4381.25
                             4396.10  4413.22  4471.06  4498.98  4521.13
                             4553.05  4568.01  4597.93  4613.20  4644.75
                             4666.86

 Zero-point correction=                           0.213435 (Hartree/Particle)
 Thermal correction to Energy=                    0.223157
 Thermal correction to Enthalpy=                  0.224101
 Thermal correction to Gibbs Free Energy=         0.178437
 Sum of electronic and zero-point Energies=           -389.259108
 Sum of electronic and thermal Energies=              -389.249386
 Sum of electronic and thermal Enthalpies=            -389.248442
 Sum of electronic and thermal Free Energies=         -389.294106

                     E (Thermal)             CV                S
                      KCal/Mol        Cal/Mol-Kelvin    Cal/Mol-Kelvin
 Total                  140.033             38.006             96.108
 Electronic               0.000              0.000              0.000
 Translational            0.889              2.981             40.593
 Rotational               0.889              2.981             29.723
 Vibrational            138.256             32.045             25.793
 Vibration     1          0.597              1.972              4.371
 Vibration     2          0.600              1.961              3.819
 Vibration     3          0.614              1.915              2.830
 Vibration     4          0.630              1.864              2.307
 Vibration     5          0.652              1.797              1.887
 Vibration     6          0.672              1.735              1.621
 Vibration     7          0.698              1.656              1.367
 Vibration     8          0.724              1.583              1.182
 Vibration     9          0.757              1.494              1.004
 Vibration    10          0.786              1.418              0.879
 Vibration    11          0.834              1.300              0.717

 Optimization completed.
    -- Stationary point found.
 Normal termination of Gaussian 16 at Tue Dec  8 10:25:42 2020.

 ----------------------------------------------------------------------
 # B3LYP/6-311++G(d,p) empiricaldispersion=gd3bj scf=xqc pop=npa geom=c
 heck
 ----------------------------------------------------------------------

 --------------------------------------
 CID_148510195_JID_293_Energie_neutraal
 --------------------------------------
 Structure from the checkpoint file:  "JID_293.chk"
 Charge =  0 Multiplicity = 1

 SCF Done:  E(RB3LYP) =  -389.576314120     A.U. after   14 cycles
 Normal termination of Gaussian 16 at Tue Dec  8 10:27:41 2020.

 ----------------------------------------------------------------------
 # B3LYP/6-311++G(d,p) empiricaldispersion=gd3bj scf=xqc pop=npa geom=c
 heck
 ----------------------------------------------------------------------

 ------------------------------------
 CID_148510195_JID_293_Energie_kation
 ------------------------------------
 Structure from the checkpoint file:  "JID_293.chk"
 Charge =  1 Multiplicity = 2

 SCF Done:  E(UB3LYP) =  -389.287152206     A.U. after   20 cycles
 Normal termination of Gaussian 16 at Tue Dec  8 10:31:51 2020.
 Gaussian 16:  ES64L-G16RevA.03 25-Dec-2016

 ----------------------------------------------------------------------
 # B3LYP/6-311++G(d,p) empiricaldispersion=gd3bj scf=xqc pop=npa geom=c
 heck
 ----------------------------------------------------------------------

 -----------------------------------
 CID_148510195_JID_293_Energie_anion
 -----------------------------------
 Structure from the checkpoint file:  "JID_293.chk"
 Charge = -1 Multiplicity = 2

                         Standard orientation:
 ---------------------------------------------------------------------
 Center     Atomic      Atomic             Coordinates (Angstroms)
 Number     Number       Type             X           Y           Z
 ---------------------------------------------------------------------
      1          6           0        2.648215    1.308276    0.016993
      2          6           0        2.835597   -0.136001   -0.457082
      3          6           0        1.804903   -1.121200    0.117690
      4          6           0        0.379906   -0.777112   -0.257814
      5          6           0       -0.784825   -1.366144    0.518018
      6          6           0       -0.436143    0.105913    0.672373
      7          6           0       -1.569968    0.879254    0.071225
      8          6           0       -1.706726    2.213001    0.047884
      9          6           0       -2.502481   -0.116533   -0.478381
     10          6           0       -2.091172   -1.369768   -0.203436
     11          1           0        1.683135    1.712399   -0.305008
     12          1           0        3.435696    1.957744   -0.381331
     13          1           0        2.686103    1.371661    1.111808
     14          1           0        2.783143   -0.167276   -1.554282
     15          1           0        3.842204   -0.483375   -0.189606
     16          1           0        2.039337   -2.133956   -0.239265
     17          1           0        1.895899   -1.151504    1.212986
     18          1           0        0.208358   -0.638902   -1.324888
     19          1           0       -0.576299   -2.096883    1.295314
     20          1           0        0.059915    0.483820    1.560683
     21          1           0       -2.561227    2.686824   -0.427109
     22          1           0       -0.970333    2.869062    0.502827
     23          1           0       -3.387297    0.152211   -1.046408
     24          1           0       -2.602466   -2.279935   -0.500543
 ---------------------------------------------------------------------

 SCF Done:  E(UB3LYP) =  -389.560293249     A.U. after   33 cycles
 SCF Done:  E(UB3LYP) =  -389.560293249     a.u. after    1 cycles

 The electronic state is 2-A.
 Alpha  occ. eigenvalues --  -10.05599 -10.05501 -10.05375 -10.04864 -10.04721
 Alpha  occ. eigenvalues --  -10.04619 -10.04005 -10.03993 -10.03549 -10.02377
 Alpha  occ. eigenvalues --   -0.77190  -0.67873  -0.64560  -0.61271  -0.57142
 Alpha  occ. eigenvalues --   -0.50778  -0.48690  -0.44827  -0.42690  -0.41417
 Alpha  occ. eigenvalues --   -0.37152  -0.34001  -0.32707  -0.30968  -0.29978
 Alpha  occ. eigenvalues --   -0.29655  -0.27038  -0.25696  -0.24562  -0.23535
 Alpha  occ. eigenvalues --   -0.23175  -0.21772  -0.20817  -0.20182  -0.18090
 Alpha  occ. eigenvalues --   -0.14020  -0.09389   0.05456
 Alpha virt. eigenvalues --    0.07643   0.08324   0.08819   0.09443   0.10038
 Alpha virt. eigenvalues --    0.10513   0.11524   0.11769   0.12320   0.12831
 Alpha virt. eigenvalues --    0.13764   0.14323   0.14756   0.15303   0.16252

  Beta  occ. eigenvalues --  -10.05615 -10.05450 -10.05375 -10.04799 -10.04706
  Beta  occ. eigenvalues --  -10.04588 -10.03971 -10.03802 -10.03484 -10.02221
  Beta  occ. eigenvalues --   -0.77069  -0.67737  -0.64407  -0.60973  -0.57076
  Beta  occ. eigenvalues --   -0.50447  -0.48579  -0.44723  -0.42466  -0.41300
  Beta  occ. eigenvalues --   -0.37029  -0.33900  -0.32617  -0.30900  -0.29883
  Beta  occ. eigenvalues --   -0.29589  -0.26954  -0.25576  -0.24470  -0.23431
  Beta  occ. eigenvalues --   -0.23060  -0.21582  -0.20455  -0.20065  -0.17771
  Beta  occ. eigenvalues --   -0.13732  -0.08436
  Beta virt. eigenvalues --    0.08039   0.08670   0.09001   0.09261   0.10106
  Beta virt. eigenvalues --    0.10415   0.10958   0.11764   0.11938   0.12802
  Beta virt. eigenvalues --    0.13080   0.13974   0.14500   0.14911   0.15481

 Mulliken charges and spin densities:
               1          2
     1  C    0.428266  -1.027153
     2  C    0.447431  -0.743552
     3  C   -0.030163  -0.080871
     4  C    0.186885  -0.415803
     5  C    0.435787  -0.377587
     6  C   -0.158554   0.220951
     7  C    0.444542  -0.142676
     8  C   -0.585487  -0.095233
     9  C   -0.281822   0.054526
    10  C   -0.485090   0.193377
    11  H    0.003307   0.171083
    12  H   -0.346082   0.479478
    13  H    0.081592   0.032757
    14  H    0.040687   0.078024
    15  H   -0.821976   0.988196
    16  H   -0.542218   0.722439
    17  H   -0.130209   0.252288
    18  H   -0.067946   0.253068
    19  H    0.013206   0.186114
    20  H    0.179285   0.048426
    21  H    0.063788   0.019215
    22  H    0.116621  -0.031112
    23  H    0.093746   0.018202
    24  H   -0.085596   0.195842
 Sum of Mulliken charges =  -1.00000   1.00000

 Dipole moment (field-independent basis, Debye):
    X=             -5.3527    Y=              1.4905    Z=              1.2555  Tot=              5.6964
 Quadrupole moment (field-independent basis, Debye-Ang):
   XX=           -124.0103   YY=            -98.2044   ZZ=            -81.4842
   XY=              5.2660   XZ=              3.1114   YZ=             -0.2473

 Summary of Natural Population Analysis:

                                       Natural Population
                Natural  -----------------------------------------------
    Atom  No    Charge         Core      Valence    Rydberg      Total
 -----------------------------------------------------------------------
      C    1   -0.28746      0.99966     2.28176    0.00604     3.28746
      C    2   -0.18563      0.99964     2.17744    0.00854     3.18563
      C    3   -0.18963      0.99961     2.17925    0.01076     3.18963
      C    4   -0.08837      0.99956     2.07793    0.01088     3.08837
      C    5   -0.12684      0.99956     2.11638    0.01090     3.12684
      C    6   -0.11680      0.99953     2.10777    0.00950     3.11680
      C    7   -0.01355      0.99953     2.00318    0.01084     3.01355
      C    8   -0.18025      0.99952     2.17327    0.00745     3.18025
      C    9   -0.11134      0.99949     2.10221    0.00964     3.11134
      C   10   -0.04657      0.99954     2.03679    0.01023     3.04657
      H   11    0.10183      0.00000     0.39706    0.00111     0.39817
      H   12    0.09666      0.00000     0.40233    0.00101     0.40334
      H   13    0.09182      0.00000     0.40715    0.00103     0.40818
      H   14    0.09156      0.00000     0.40716    0.00128     0.40844
      H   15    0.09668      0.00000     0.40006    0.00327     0.40332
      H   16    0.10293      0.00000     0.39410    0.00297     0.39707
      H   17    0.09194      0.00000     0.40661    0.00144     0.40806
      H   18    0.10090      0.00000     0.39711    0.00199     0.39910
      H   19    0.10506      0.00000     0.39401    0.00093     0.39494
      H   20    0.10641      0.00000     0.39225    0.00134     0.39359
      H   21    0.08573      0.00000     0.41325    0.00102     0.41427
      H   22    0.08846      0.00000     0.41054    0.00099     0.41154
      H   23    0.09346      0.00000     0.40570    0.00085     0.40654
      H   24    0.09298      0.00000     0.40626    0.00076     0.40702
 =======================================================================
   * Total *    0.00000      9.99565    26.88957    0.11478    37.00000

 Normal termination of Gaussian 16 at Tue Dec  8 10:44:27 2020.
