 Gaussian 16, Revision A.03,

 -----------------------------------------------------------
 # opt freq B3LYP/6-31G(d) empiricaldispersion=gd3bj scf=xqc
 -----------------------------------------------------------

 ------------------------------
 CID_81905557_JID_9858_neutraal
 ------------------------------
 Symbolic Z-matrix:
 Charge =  0 Multiplicity = 1

 SCF Done:  E(RB3LYP) =  -823.779000141     A.U. after   14 cycles
 SCF Done:  E(RB3LYP) =  -823.786393803     A.U. after   12 cycles
 SCF Done:  E(RB3LYP) =  -823.786942402     A.U. after   11 cycles
 SCF Done:  E(RB3LYP) =  -823.787103456     A.U. after   11 cycles
 SCF Done:  E(RB3LYP) =  -823.787173474     A.U. after   10 cycles
 SCF Done:  E(RB3LYP) =  -823.787228423     A.U. after   10 cycles
 SCF Done:  E(RB3LYP) =  -823.787268645     A.U. after   10 cycles
 SCF Done:  E(RB3LYP) =  -823.787327989     A.U. after   11 cycles
 SCF Done:  E(RB3LYP) =  -823.787450029     A.U. after   12 cycles
 SCF Done:  E(RB3LYP) =  -823.787298130     A.U. after   12 cycles
 SCF Done:  E(RB3LYP) =  -823.795480267     A.U. after   10 cycles
 SCF Done:  E(RB3LYP) =  -823.795495589     A.U. after    9 cycles
 SCF Done:  E(RB3LYP) =  -823.795500823     A.U. after    9 cycles
 SCF Done:  E(RB3LYP) =  -823.795501706     A.U. after    9 cycles
 SCF Done:  E(RB3LYP) =  -823.795502007     A.U. after    7 cycles
 Optimization completed.
    -- Stationary point found.
 Normal termination of Gaussian 16 at Sun Dec 13 13:16:52 2020.

 --------------------------------------------------------------------
 #N Geom=AllCheck Guess=TCheck SCRF=Check GenChk RB3LYP/6-31G(d) Freq
 --------------------------------------------------------------------

 Structure from the checkpoint file:  "JID_9858.chk"
 ------------------------------
 CID_81905557_JID_9858_neutraal
 ------------------------------
 Charge =  0 Multiplicity = 1

 SCF Done:  E(RB3LYP) =  -823.795502007     A.U. after    1 cycles

  Exact polarizability: 247.447   1.607 168.953 -20.493   4.762 121.001
 Approx polarizability: 334.235   5.276 285.472 -41.692  13.755 183.308

                      1                      2                      3
                      A                      A                      A
 Frequencies --     37.4769                58.5290                69.1605
 Red. masses --      4.2456                 3.4351                 3.9283
 Frc consts  --      0.0035                 0.0069                 0.0111
 IR Inten    --      0.9800                 2.0713                 0.0349

                      4                      5                      6
                      A                      A                      A
 Frequencies --     83.4646               105.4635               114.3160
 Red. masses --      3.5793                 3.6103                 2.8873
 Frc consts  --      0.0147                 0.0237                 0.0222
 IR Inten    --      6.7025                 3.9073                 3.3940

                      7                      8                      9
                      A                      A                      A
 Frequencies --    152.2143               162.7531               184.8111
 Red. masses --      3.6243                 3.2791                 2.8920
 Frc consts  --      0.0495                 0.0512                 0.0582
 IR Inten    --      1.8124                 0.5485                 0.5350

                     10                     11                     12
                      A                      A                      A
 Frequencies --    197.3800               226.6768               245.7155
 Red. masses --      3.1178                 2.1474                 1.5313
 Frc consts  --      0.0716                 0.0650                 0.0545
 IR Inten    --      2.1645                 2.0923                 3.2774

                     13                     14                     15
                      A                      A                      A
 Frequencies --    266.5140               277.6202               306.1440
 Red. masses --      1.6119                 1.4798                 2.0473
 Frc consts  --      0.0675                 0.0672                 0.1131
 IR Inten    --      0.4168                 0.0209                 0.7496

                     16                     17                     18
                      A                      A                      A
 Frequencies --    314.3863               353.5688               375.0214
 Red. masses --      4.0080                 3.8642                 4.6116
 Frc consts  --      0.2334                 0.2846                 0.3821
 IR Inten    --      2.4032                 2.3338                 0.9366

                     19                     20                     21
                      A                      A                      A
 Frequencies --    386.3276               423.0870               448.7110
 Red. masses --      1.8354                 3.3020                 3.2318
 Frc consts  --      0.1614                 0.3483                 0.3834
 IR Inten    --      0.3083                 0.7138                 1.1742

                     22                     23                     24
                      A                      A                      A
 Frequencies --    491.6080               523.6637               544.6797
 Red. masses --      3.4344                 3.7231                 4.5329
 Frc consts  --      0.4890                 0.6015                 0.7923
 IR Inten    --      1.4093                 5.4771                 0.4167

                     25                     26                     27
                      A                      A                      A
 Frequencies --    597.6237               629.8962               642.0479
 Red. masses --      3.9147                 2.7068                 3.2731
 Frc consts  --      0.8238                 0.6328                 0.7950
 IR Inten    --     11.5634                 0.2676                 8.0515

                     28                     29                     30
                      A                      A                      A
 Frequencies --    668.2305               677.8509               700.8546
 Red. masses --      3.8532                 4.6806                 6.1412
 Frc consts  --      1.0137                 1.2671                 1.7773
 IR Inten    --      2.2516                 1.6024                 2.3916

                     31                     32                     33
                      A                      A                      A
 Frequencies --    754.5855               776.1705               786.1164
 Red. masses --      4.1499                 2.1042                 3.7887
 Frc consts  --      1.3922                 0.7469                 1.3795
 IR Inten    --      1.5494                52.9939                 2.6661

                     34                     35                     36
                      A                      A                      A
 Frequencies --    795.7900               800.0410               811.1270
 Red. masses --      1.6787                 2.9602                 1.7972
 Frc consts  --      0.6264                 1.1163                 0.6967
 IR Inten    --     31.6297                20.6747                22.2968

                     37                     38                     39
                      A                      A                      A
 Frequencies --    816.5160               874.7669               875.6210
 Red. masses --      1.6074                 1.8525                 1.7065
 Frc consts  --      0.6314                 0.8352                 0.7709
 IR Inten    --      4.6126                 8.6907                15.9343

                     40                     41                     42
                      A                      A                      A
 Frequencies --    902.4507               908.1744               919.8417
 Red. masses --      1.3058                 1.8710                 2.4620
 Frc consts  --      0.6266                 0.9092                 1.2273
 IR Inten    --      0.1076                 1.7780                 3.1673

                     43                     44                     45
                      A                      A                      A
 Frequencies --    926.2662               946.1616               967.5127
 Red. masses --      2.3251                 2.2216                 3.2637
 Frc consts  --      1.1753                 1.1718                 1.8000
 IR Inten    --      8.0691                 0.3649                 4.4226

                     46                     47                     48
                      A                      A                      A
 Frequencies --    983.2296              1020.3895              1031.1892
 Red. masses --      2.6145                 2.7954                 1.5637
 Frc consts  --      1.4892                 1.7149                 0.9797
 IR Inten    --      6.8034                 4.4724                 1.3075

                     49                     50                     51
                      A                      A                      A
 Frequencies --   1075.2451              1078.9707              1100.4472
 Red. masses --      2.9086                 1.8709                 1.7788
 Frc consts  --      1.9813                 1.2833                 1.2692
 IR Inten    --     26.2133                10.0655                 8.5544

                     52                     53                     54
                      A                      A                      A
 Frequencies --   1120.7015              1125.4354              1139.8721
 Red. masses --      2.0412                 4.5409                 2.3407
 Frc consts  --      1.5105                 3.3887                 1.7919
 IR Inten    --      4.8584                22.0129                13.3357

                     55                     56                     57
                      A                      A                      A
 Frequencies --   1179.7075              1186.9028              1193.9904
 Red. masses --      1.5996                 1.2707                 1.6952
 Frc consts  --      1.3116                 1.0547                 1.4239
 IR Inten    --     11.1648                 0.7583                 6.0948

                     58                     59                     60
                      A                      A                      A
 Frequencies --   1202.2989              1205.4027              1230.7725
 Red. masses --      1.2098                 1.9038                 1.2784
 Frc consts  --      1.0304                 1.6298                 1.1410
 IR Inten    --      7.3449               172.7557                 5.6655

                     61                     62                     63
                      A                      A                      A
 Frequencies --   1233.9527              1237.4452              1280.6320
 Red. masses --      1.8540                 1.3691                 2.0953
 Frc consts  --      1.6632                 1.2352                 2.0246
 IR Inten    --    123.7956                14.2521                 1.2901

                     64                     65                     66
                      A                      A                      A
 Frequencies --   1292.4527              1307.7319              1318.1366
 Red. masses --      1.2517                 1.5320                 1.5407
 Frc consts  --      1.2319                 1.5436                 1.5772
 IR Inten    --      2.5929                12.6115                62.1849

                     67                     68                     69
                      A                      A                      A
 Frequencies --   1329.5802              1338.1274              1341.9948
 Red. masses --      2.2506                 1.5224                 1.3420
 Frc consts  --      2.3441                 1.6061                 1.4240
 IR Inten    --     51.7209                 2.9520                 1.7532

                     70                     71                     72
                      A                      A                      A
 Frequencies --   1367.2077              1371.2590              1388.5474
 Red. masses --      3.9993                 1.3444                 1.3791
 Frc consts  --      4.4045                 1.4894                 1.5666
 IR Inten    --     39.3896                 5.3158                13.3474

                     73                     74                     75
                      A                      A                      A
 Frequencies --   1399.7678              1412.3914              1428.9546
 Red. masses --      1.6315                 1.4155                 2.5077
 Frc consts  --      1.8835                 1.6637                 3.0169
 IR Inten    --     33.1091                10.4864                 8.8390

                     76                     77                     78
                      A                      A                      A
 Frequencies --   1450.5295              1457.9376              1475.1875
 Red. masses --      2.7480                 1.2509                 1.1462
 Frc consts  --      3.4066                 1.5666                 1.4696
 IR Inten    --     52.0954                 7.3309                10.5946

                     79                     80                     81
                      A                      A                      A
 Frequencies --   1488.4068              1500.8190              1505.3478
 Red. masses --      2.3868                 1.4750                 1.1829
 Frc consts  --      3.1153                 1.9575                 1.5793
 IR Inten    --    107.3519                11.2198                16.7636

                     82                     83                     84
                      A                      A                      A
 Frequencies --   1516.4195              1520.9656              1523.0810
 Red. masses --      1.1129                 1.0483                 1.1197
 Frc consts  --      1.5078                 1.4289                 1.5303
 IR Inten    --     10.3094                 4.7110                13.8895

                     85                     86                     87
                      A                      A                      A
 Frequencies --   1528.3946              1532.7399              1543.4617
 Red. masses --      1.0625                 1.4714                 1.1607
 Frc consts  --      1.4624                 2.0367                 1.6291
 IR Inten    --     13.6546               100.6286                 2.6786

                     88                     89                     90
                      A                      A                      A
 Frequencies --   1545.0196              1552.3079              1558.6802
 Red. masses --      1.4909                 1.0851                 1.0826
 Frc consts  --      2.0969                 1.5406                 1.5496
 IR Inten    --      6.2613                 6.4743                 3.6584

                     91                     92                     93
                      A                      A                      A
 Frequencies --   1560.2321              1641.2225              1688.0548
 Red. masses --      5.2046                 6.8891                 7.3717
 Frc consts  --      7.4648                10.9332                12.3764
 IR Inten    --     61.4378                39.8314                44.5052

                     94                     95                     96
                      A                      A                      A
 Frequencies --   3016.6016              3048.1542              3049.4770
 Red. masses --      1.0354                 1.0614                 1.0650
 Frc consts  --      5.5511                 5.8104                 5.8350
 IR Inten    --     70.7240                13.1934                12.9093

                     97                     98                     99
                      A                      A                      A
 Frequencies --   3051.7273              3052.4778              3058.2669
 Red. masses --      1.0448                 1.0669                 1.0697
 Frc consts  --      5.7331                 5.8569                 5.8945
 IR Inten    --     76.3242                25.3439                24.1949

                    100                    101                    102
                      A                      A                      A
 Frequencies --   3070.8678              3071.5371              3076.0045
 Red. masses --      1.0834                 1.1062                 1.0613
 Frc consts  --      6.0197                 6.1487                 5.9163
 IR Inten    --     56.8695                54.5227                16.0797

                    103                    104                    105
                      A                      A                      A
 Frequencies --   3083.6240              3114.1954              3115.4999
 Red. masses --      1.0997                 1.1004                 1.1040
 Frc consts  --      6.1607                 6.2875                 6.3136
 IR Inten    --     89.0467                11.2817                45.9395

                    106                    107                    108
                      A                      A                      A
 Frequencies --   3121.7722              3126.0186              3135.0719
 Red. masses --      1.0986                 1.1010                 1.0984
 Frc consts  --      6.3079                 6.3392                 6.3607
 IR Inten    --      2.7489                22.0152                13.2559

                    109                    110                    111
                      A                      A                      A
 Frequencies --   3142.9586              3151.5905              3202.3617
 Red. masses --      1.1003                 1.0987                 1.0892
 Frc consts  --      6.4036                 6.4299                 6.5813
 IR Inten    --     27.1744                33.9196                10.0687

                    112                    113                    114
                      A                      A                      A
 Frequencies --   3230.5072              3234.1944              3514.7302
 Red. masses --      1.0916                 1.0911                 1.0757
 Frc consts  --      6.7121                 6.7245                 7.8293
 IR Inten    --      3.1241                11.7698                 0.3886

 - Thermochemistry -
 -------------------
 Temperature   298.150 Kelvin.  Pressure   1.00000 Atm.
 Atom     1 has atomic number  6 and mass  12.00000

 Molecular mass:   259.16846 amu.
 Principal axes and moments of inertia in atomic units:
                           1         2         3
     Eigenvalues --  2324.096598259.653798981.88996
           X            0.99998  -0.00474  -0.00406
           Y            0.00473   0.99998  -0.00327
           Z            0.00407   0.00325   0.99999
 This molecule is an asymmetric top.
 Rotational symmetry number  1.
 Warning -- assumption of classical behavior for rotation
           may cause significant error
 Rotational temperatures (Kelvin)      0.03727     0.01049     0.00964
 Rotational constants (GHZ):           0.77653     0.21850     0.20093
 Zero-point vibrational energy     916974.2 (Joules/Mol)
                                  219.16210 (Kcal/Mol)
 Warning -- explicit consideration of  25 degrees of freedom as
           vibrations may cause significant error
 Vibrational temperatures:     53.92    84.21    99.51   120.09   151.74
          (Kelvin)            164.48   219.00   234.17   265.90   283.99
                              326.14   353.53   383.45   399.43   440.47
                              452.33   508.71   539.57   555.84   608.73
                              645.59   707.31   753.44   783.67   859.85
                              906.28   923.76   961.43   975.28  1008.37
                             1085.68  1116.74  1131.05  1144.96  1151.08
                             1167.03  1174.78  1258.59  1259.82  1298.43
                             1306.66  1323.45  1332.69  1361.32  1392.03
                             1414.65  1468.11  1483.65  1547.04  1552.40
                             1583.30  1612.44  1619.25  1640.02  1697.34
                             1707.69  1717.89  1729.84  1734.31  1770.81
                             1775.38  1780.41  1842.54  1859.55  1881.53
                             1896.50  1912.97  1925.27  1930.83  1967.11
                             1972.94  1997.81  2013.95  2032.12  2055.95
                             2086.99  2097.65  2122.47  2141.49  2159.34
                             2165.86  2181.79  2188.33  2191.37  2199.02
                             2205.27  2220.70  2222.94  2233.42  2242.59
                             2244.83  2361.35  2428.73  4340.22  4385.61
                             4387.52  4390.75  4391.83  4400.16  4418.29
                             4419.26  4425.68  4436.65  4480.63  4482.51
                             4491.53  4497.64  4510.67  4522.02  4534.44
                             4607.48  4647.98  4653.28  5056.91

 Zero-point correction=                           0.349257 (Hartree/Particle)
 Thermal correction to Energy=                    0.366474
 Thermal correction to Enthalpy=                  0.367418
 Thermal correction to Gibbs Free Energy=         0.304412
 Sum of electronic and zero-point Energies=           -823.446245
 Sum of electronic and thermal Energies=              -823.429028
 Sum of electronic and thermal Enthalpies=            -823.428084
 Sum of electronic and thermal Free Energies=         -823.491090

                     E (Thermal)             CV                S
                      KCal/Mol        Cal/Mol-Kelvin    Cal/Mol-Kelvin
 Total                  229.966             67.791            132.607
 Electronic               0.000              0.000              0.000
 Translational            0.889              2.981             42.557
 Rotational               0.889              2.981             33.511
 Vibrational            228.188             61.829             56.540
 Vibration     1          0.594              1.982              5.388
 Vibration     2          0.596              1.974              4.506
 Vibration     3          0.598              1.969              4.177
 Vibration     4          0.600              1.961              3.808
 Vibration     5          0.605              1.945              3.351
 Vibration     6          0.607              1.938              3.194
 Vibration     7          0.619              1.900              2.644
 Vibration     8          0.623              1.888              2.518
 Vibration     9          0.631              1.861              2.279
 Vibration    10          0.637              1.844              2.157
 Vibration    11          0.650              1.800              1.905
 Vibration    12          0.660              1.770              1.761
 Vibration    13          0.672              1.735              1.619
 Vibration    14          0.679              1.715              1.548
 Vibration    15          0.697              1.662              1.383
 Vibration    16          0.702              1.646              1.339
 Vibration    17          0.730              1.568              1.150
 Vibration    18          0.746              1.523              1.059
 Vibration    19          0.755              1.499              1.014
 Vibration    20          0.785              1.420              0.882
 Vibration    21          0.808              1.364              0.800
 Vibration    22          0.847              1.269              0.679
 Vibration    23          0.879              1.198              0.602
 Vibration    24          0.900              1.151              0.555
 Vibration    25          0.956              1.037              0.454

                           ! Non-Optimized Parameters !
 Normal termination of Gaussian 16 at Sun Dec 13 13:40:43 2020.

 ----------------------------------------------------------------------
 # B3LYP/6-311++G(d,p) empiricaldispersion=gd3bj scf=xqc pop=npa geom=c
 heck
 ----------------------------------------------------------------------

 --------------------------------------
 CID_81905557_JID_9858_Energie_neutraal
 --------------------------------------
 Structure from the checkpoint file:  "JID_9858.chk"
 Charge =  0 Multiplicity = 1

 SCF Done:  E(RB3LYP) =  -824.014663501     A.U. after   15 cycles
 Normal termination of Gaussian 16 at Sun Dec 13 13:51:23 2020.

 ----------------------------------------------------------------------
 # B3LYP/6-311++G(d,p) empiricaldispersion=gd3bj scf=xqc pop=npa geom=c
 heck
 ----------------------------------------------------------------------

 ------------------------------------
 CID_81905557_JID_9858_Energie_kation
 ------------------------------------
 Structure from the checkpoint file:  "JID_9858.chk"
 Charge =  1 Multiplicity = 2

 SCF Done:  E(UB3LYP) =  -823.747958936     A.U. after   31 cycles
 Normal termination of Gaussian 16 at Sun Dec 13 14:22:22 2020.
 Gaussian 16:  ES64L-G16RevA.03 25-Dec-2016

 ----------------------------------------------------------------------
 # B3LYP/6-311++G(d,p) empiricaldispersion=gd3bj scf=xqc pop=npa geom=c
 heck
 ----------------------------------------------------------------------

 -----------------------------------
 CID_81905557_JID_9858_Energie_anion
 -----------------------------------
 Structure from the checkpoint file:  "JID_9858.chk"
 Charge = -1 Multiplicity = 2

                         Standard orientation:
 ---------------------------------------------------------------------
 Center     Atomic      Atomic             Coordinates (Angstroms)
 Number     Number       Type             X           Y           Z
 ---------------------------------------------------------------------
      1          6           0        1.321598    2.716233    0.649411
      2          6           0        1.087768    2.209293   -0.776120
      3          7           0        0.446756    0.901353   -0.815978
      4          6           0       -0.879753    0.676021   -0.460723
      5          6           0       -1.080028   -0.716197   -0.624390
      6          6           0       -2.325758   -1.284276   -0.357059
      7          6           0       -3.355094   -0.442540    0.068334
      8          6           0       -3.148991    0.945831    0.218954
      9          6           0       -1.904913    1.520620   -0.046729
     10          8           0       -4.554101   -1.060611    0.319260
     11          6           0       -5.639228   -0.262664    0.749373
     12          7           0        0.090163   -1.309887   -1.071777
     13          6           0        0.971708   -0.332214   -1.169759
     14          6           0        2.386293   -0.581293   -1.596245
     15          6           0        3.381026   -0.987411   -0.472222
     16          6           0        2.777160   -1.959264    0.563180
     17          6           0        2.273353   -1.015612    1.666555
     18          7           0        3.246994    0.094058    1.733525
     19          6           0        3.875966    0.204181    0.398321
     20          1           0        0.371602    2.829539    1.180440
     21          1           0        1.810027    3.696831    0.616638
     22          1           0        1.950545    2.024968    1.220719
     23          1           0        0.452325    2.907965   -1.334628
     24          1           0        2.032170    2.135221   -1.319258
     25          1           0       -2.504888   -2.346843   -0.475394
     26          1           0       -3.958539    1.586167    0.546439
     27          1           0       -1.761164    2.590002    0.070683
     28          1           0       -5.422843    0.240109    1.702175
     29          1           0       -5.910260    0.494568    0.000643
     30          1           0       -6.479028   -0.946447    0.887628
     31          1           0        2.329229   -1.408233   -2.309850
     32          1           0        2.791375    0.281100   -2.138686
     33          1           0        4.234938   -1.446212   -0.982160
     34          1           0        3.564185   -2.612121    0.960827
     35          1           0        1.983622   -2.581816    0.142165
     36          1           0        1.286292   -0.618592    1.407392
     37          1           0        2.182136   -1.496021    2.645532
     38          1           0        3.963772   -0.143508    2.413277
     39          1           0        4.967562    0.193601    0.494120
     40          1           0        3.615730    1.161695   -0.068449
 ---------------------------------------------------------------------

 SCF Done:  E(UB3LYP) =  -824.004914311     A.U. after   33 cycles
 SCF Done:  E(UB3LYP) =  -824.004914311     a.u. after    1 cycles

 The electronic state is 2-A.
 Alpha  occ. eigenvalues --  -19.06184 -14.27258 -14.19782 -14.19560 -10.14481
 Alpha  occ. eigenvalues --  -10.13914 -10.13736 -10.13074 -10.10930 -10.10091
 Alpha  occ. eigenvalues --  -10.09054 -10.08905 -10.08871 -10.08780 -10.08250
 Alpha  occ. eigenvalues --  -10.08145 -10.07326 -10.07243 -10.06233  -0.97752
 Alpha  occ. eigenvalues --   -0.92421  -0.81622  -0.80063  -0.75515  -0.70261
 Alpha  occ. eigenvalues --   -0.68042  -0.66166  -0.64894  -0.63064  -0.61054
 Alpha  occ. eigenvalues --   -0.59190  -0.56050  -0.52207  -0.50806  -0.49670
 Alpha  occ. eigenvalues --   -0.48454  -0.45744  -0.44278  -0.42665  -0.41635
 Alpha  occ. eigenvalues --   -0.40008  -0.38856  -0.38229  -0.37674  -0.36709
 Alpha  occ. eigenvalues --   -0.35734  -0.35097  -0.33888  -0.33554  -0.32669
 Alpha  occ. eigenvalues --   -0.31697  -0.30922  -0.30128  -0.29830  -0.29293
 Alpha  occ. eigenvalues --   -0.28335  -0.27909  -0.27301  -0.26847  -0.25479
 Alpha  occ. eigenvalues --   -0.24555  -0.24151  -0.23498  -0.22866  -0.21435
 Alpha  occ. eigenvalues --   -0.19828  -0.17890  -0.13595  -0.13179  -0.11812
 Alpha  occ. eigenvalues --    0.03795
 Alpha virt. eigenvalues --    0.04942   0.05979   0.06415   0.07033   0.07701
 Alpha virt. eigenvalues --    0.08274   0.08816   0.08879   0.09604   0.09687
 Alpha virt. eigenvalues --    0.10100   0.10581   0.10923   0.11154   0.11632

  Beta  occ. eigenvalues --  -19.06179 -14.27248 -14.19767 -14.19556 -10.14454
  Beta  occ. eigenvalues --  -10.13916 -10.13707 -10.13061 -10.10936 -10.10090
  Beta  occ. eigenvalues --  -10.09023 -10.08899 -10.08833 -10.08772 -10.08232
  Beta  occ. eigenvalues --  -10.08124 -10.07299 -10.07230 -10.06218  -0.97740
  Beta  occ. eigenvalues --   -0.92396  -0.81584  -0.80044  -0.75475  -0.70217
  Beta  occ. eigenvalues --   -0.68013  -0.66128  -0.64850  -0.63024  -0.61006
  Beta  occ. eigenvalues --   -0.59144  -0.56010  -0.52143  -0.50779  -0.49624
  Beta  occ. eigenvalues --   -0.48415  -0.45699  -0.44245  -0.42628  -0.41565
  Beta  occ. eigenvalues --   -0.39975  -0.38811  -0.38204  -0.37646  -0.36680
  Beta  occ. eigenvalues --   -0.35695  -0.35062  -0.33853  -0.33525  -0.32632
  Beta  occ. eigenvalues --   -0.31670  -0.30879  -0.30098  -0.29800  -0.29267
  Beta  occ. eigenvalues --   -0.28297  -0.27880  -0.27253  -0.26821  -0.25449
  Beta  occ. eigenvalues --   -0.24528  -0.24108  -0.23454  -0.22823  -0.21344
  Beta  occ. eigenvalues --   -0.19771  -0.17873  -0.13521  -0.13109  -0.11719
  Beta virt. eigenvalues --    0.05580   0.06168   0.06275   0.07058   0.07549
  Beta virt. eigenvalues --    0.08079   0.08673   0.09121   0.09254   0.09703
  Beta virt. eigenvalues --    0.10030   0.10316   0.10877   0.11060   0.11334

 Mulliken charges and spin densities:
               1          2
     1  C   -0.195075  -0.332921
     2  C    0.034903  -0.151992
     3  N    0.128862   0.081939
     4  C    0.506122   0.006621
     5  C    0.025858   0.168912
     6  C   -0.485739   0.059815
     7  C   -0.710672   0.028570
     8  C    0.289913  -0.206481
     9  C    0.112157  -0.409185
    10  O   -0.192956   0.028245
    11  C    0.369949  -0.691756
    12  N    0.015515   0.079456
    13  C    0.171890  -0.349194
    14  C   -0.251079  -0.567808
    15  C    0.782872  -0.358887
    16  C   -0.901051   0.327650
    17  C    0.117635  -0.386097
    18  N   -0.082333  -0.077144
    19  C    0.364860  -0.949056
    20  H    0.053457   0.078958
    21  H   -0.147153   0.270434
    22  H    0.306831  -0.070946
    23  H    0.154130   0.017987
    24  H   -0.164443   0.301959
    25  H    0.157951   0.017191
    26  H   -0.105894   0.305671
    27  H   -0.138844   0.273415
    28  H   -0.035996   0.177601
    29  H   -0.137327   0.282988
    30  H   -0.137733   0.310646
    31  H    0.191958   0.000177
    32  H   -0.162150   0.314142
    33  H   -0.414689   0.672512
    34  H   -0.235828   0.406760
    35  H    0.119958   0.047119
    36  H    0.319043  -0.202827
    37  H   -0.085986   0.266581
    38  H    0.091195   0.186961
    39  H   -0.902486   1.079199
    40  H    0.172374  -0.037216
 Sum of Mulliken charges =  -1.00000   1.00000

 Dipole moment (field-independent basis, Debye):
    X=             -4.0803    Y=              1.6066    Z=             -0.9987  Tot=              4.4975
 Quadrupole moment (field-independent basis, Debye-Ang):
   XX=           -235.6702   YY=           -152.1523   ZZ=           -147.7715
   XY=              6.4915   XZ=             -1.8806   YZ=             -2.1837

 Summary of Natural Population Analysis:

                                       Natural Population
                Natural  -----------------------------------------------
    Atom  No    Charge         Core      Valence    Rydberg      Total
 -----------------------------------------------------------------------
      C    1   -0.29973      0.99965     2.29507    0.00501     3.29973
      C    2   -0.08284      0.99963     2.07394    0.00927     3.08284
      N    3   -0.21632      0.99958     2.70703    0.00971     3.71632
      C    4    0.05785      0.99945     1.93287    0.00983     2.94215
      C    5    0.06582      0.99947     1.92265    0.01207     2.93418
      C    6   -0.11715      0.99949     2.10914    0.00853     3.11715
      C    7    0.15024      0.99940     1.83666    0.01370     2.84976
      C    8   -0.14486      0.99954     2.13660    0.00871     3.14486
      C    9   -0.10608      0.99954     2.09751    0.00903     3.10608
      O   10   -0.27727      0.99986     3.26801    0.00940     4.27727
      C   11   -0.10112      0.99961     2.09220    0.00931     3.10112
      N   12   -0.26801      0.99968     2.75979    0.00855     3.76801
      C   13    0.22697      0.99959     1.75608    0.01736     2.77303
      C   14   -0.21190      0.99957     2.20200    0.01034     3.21190
      C   15   -0.11371      0.99959     2.10083    0.01329     3.11371
      C   16   -0.20452      0.99962     2.19621    0.00870     3.20452
      C   17   -0.08995      0.99963     2.08008    0.01024     3.08995
      N   18   -0.34610      0.99976     2.83371    0.01262     3.84610
      C   19   -0.09014      0.99961     2.07852    0.01201     3.09014
      H   20    0.09909      0.00000     0.39991    0.00100     0.40091
      H   21    0.09797      0.00000     0.40122    0.00081     0.40203
      H   22    0.12007      0.00000     0.37821    0.00172     0.37993
      H   23    0.09428      0.00000     0.40467    0.00105     0.40572
      H   24    0.10218      0.00000     0.39653    0.00129     0.39782
      H   25    0.10786      0.00000     0.39066    0.00148     0.39214
      H   26    0.10422      0.00000     0.39446    0.00132     0.39578
      H   27    0.10282      0.00000     0.39612    0.00106     0.39718
      H   28    0.08309      0.00000     0.41560    0.00131     0.41691
      H   29    0.08416      0.00000     0.41432    0.00152     0.41584
      H   30    0.09193      0.00000     0.40710    0.00097     0.40807
      H   31    0.11535      0.00000     0.38343    0.00123     0.38465
      H   32    0.10466      0.00000     0.39411    0.00123     0.39534
      H   33    0.10616      0.00000     0.39151    0.00233     0.39384
      H   34    0.09841      0.00000     0.40024    0.00135     0.40159
      H   35    0.11220      0.00000     0.38652    0.00128     0.38780
      H   36    0.09060      0.00000     0.40754    0.00185     0.40940
      H   37    0.09417      0.00000     0.40495    0.00088     0.40583
      H   38    0.17645      0.00000     0.32084    0.00271     0.32355
      H   39    0.09884      0.00000     0.39790    0.00326     0.40116
      H   40    0.08431      0.00000     0.41369    0.00200     0.41569
 =======================================================================
   * Total *   -0.00000     18.99225    50.77842    0.22933    70.00000

 Normal termination of Gaussian 16 at Sun Dec 13 14:55:58 2020.
