 Gaussian 16, Revision A.03,

 -----------------------------------------------------------
 # opt freq B3LYP/6-31G(d) empiricaldispersion=gd3bj scf=xqc
 -----------------------------------------------------------

 ------------------------------
 CID_14473413_JID_4557_neutraal
 ------------------------------
 Symbolic Z-matrix:
 Charge =  0 Multiplicity = 1

 SCF Done:  E(RB3LYP) =  -654.485562501     A.U. after   15 cycles
 SCF Done:  E(RB3LYP) =  -654.487565076     A.U. after   12 cycles
 SCF Done:  E(RB3LYP) =  -654.487414217     A.U. after   12 cycles
 SCF Done:  E(RB3LYP) =  -654.488052605     A.U. after   12 cycles
 SCF Done:  E(RB3LYP) =  -654.488148487     A.U. after   11 cycles
 SCF Done:  E(RB3LYP) =  -654.488176706     A.U. after   12 cycles
 SCF Done:  E(RB3LYP) =  -654.488180715     A.U. after    9 cycles
 SCF Done:  E(RB3LYP) =  -654.488182511     A.U. after    8 cycles
 SCF Done:  E(RB3LYP) =  -654.488182942     A.U. after    8 cycles
 SCF Done:  E(RB3LYP) =  -654.488182986     A.U. after    8 cycles
 SCF Done:  E(RB3LYP) =  -654.488183113     A.U. after    8 cycles
 SCF Done:  E(RB3LYP) =  -654.488183252     A.U. after    8 cycles
 SCF Done:  E(RB3LYP) =  -654.488183329     A.U. after    7 cycles
 SCF Done:  E(RB3LYP) =  -654.488183363     A.U. after    6 cycles
 Optimization completed.
    -- Stationary point found.
 Normal termination of Gaussian 16 at Thu Dec 10 10:05:27 2020.

 --------------------------------------------------------------------
 #N Geom=AllCheck Guess=TCheck SCRF=Check GenChk RB3LYP/6-31G(d) Freq
 --------------------------------------------------------------------

 Structure from the checkpoint file:  "JID_4557.chk"
 ------------------------------
 CID_14473413_JID_4557_neutraal
 ------------------------------
 Charge =  0 Multiplicity = 1

 SCF Done:  E(RB3LYP) =  -654.488183363     A.U. after    1 cycles

  Exact polarizability: 124.240  17.609 119.156 -17.947   2.014 119.559
 Approx polarizability: 160.083  28.071 178.129 -38.034   7.671 197.934

                      1                      2                      3
                      A                      A                      A
 Frequencies --     13.8600                25.3703                31.3943
 Red. masses --      4.0566                 5.4377                 3.9993
 Frc consts  --      0.0005                 0.0021                 0.0023
 IR Inten    --      0.5381                 2.8153                 0.2094

                      4                      5                      6
                      A                      A                      A
 Frequencies --     57.6159                88.1608               100.4903
 Red. masses --      4.1140                 2.4166                 3.8100
 Frc consts  --      0.0080                 0.0111                 0.0227
 IR Inten    --      0.1600                 3.9599                 3.5704

                      7                      8                      9
                      A                      A                      A
 Frequencies --    160.1166               177.3297               187.5181
 Red. masses --      3.3737                 3.0934                 2.4304
 Frc consts  --      0.0510                 0.0573                 0.0504
 IR Inten    --      1.2908                 0.2717                 1.4155

                     10                     11                     12
                      A                      A                      A
 Frequencies --    218.3951               237.6260               246.4068
 Red. masses --      3.0218                 2.9297                 1.5074
 Frc consts  --      0.0849                 0.0975                 0.0539
 IR Inten    --      1.0726                 5.4537                 5.8127

                     13                     14                     15
                      A                      A                      A
 Frequencies --    304.7378               340.1978               388.1839
 Red. masses --      2.0472                 2.7850                 3.1335
 Frc consts  --      0.1120                 0.1899                 0.2782
 IR Inten    --      1.0171                 1.3014                 0.8140

                     16                     17                     18
                      A                      A                      A
 Frequencies --    449.9598               497.4892               542.9927
 Red. masses --      2.7752                 6.2606                 2.5666
 Frc consts  --      0.3311                 0.9129                 0.4459
 IR Inten    --      0.3926                 4.2960                 0.4427

                     19                     20                     21
                      A                      A                      A
 Frequencies --    595.6866               613.8103               647.7034
 Red. masses --      3.3741                 3.3500                 4.7049
 Frc consts  --      0.7054                 0.7436                 1.1629
 IR Inten    --      6.5370                12.1074                 8.1047

                     22                     23                     24
                      A                      A                      A
 Frequencies --    731.3115               765.8841               776.7219
 Red. masses --      1.4711                 1.2921                 2.1505
 Frc consts  --      0.4636                 0.4465                 0.7644
 IR Inten    --      4.3884                38.7852                 3.9389

                     25                     26                     27
                      A                      A                      A
 Frequencies --    836.2324               849.2898               856.4934
 Red. masses --      1.4732                 1.6993                 2.1870
 Frc consts  --      0.6070                 0.7222                 0.9453
 IR Inten    --     28.3662                13.0639                 0.8094

                     28                     29                     30
                      A                      A                      A
 Frequencies --    902.0395               905.5700               913.0719
 Red. masses --      1.3679                 4.9858                 3.9058
 Frc consts  --      0.6558                 2.4089                 1.9185
 IR Inten    --      1.8449                20.2021                 3.2754

                     31                     32                     33
                      A                      A                      A
 Frequencies --    926.0153               958.9475              1002.2300
 Red. masses --      2.1966                 2.6614                 2.0348
 Frc consts  --      1.1098                 1.4419                 1.2042
 IR Inten    --      5.2476                 9.6473                17.8284

                     34                     35                     36
                      A                      A                      A
 Frequencies --   1029.0501              1041.2152              1063.2320
 Red. masses --      1.7189                 1.4544                 1.9624
 Frc consts  --      1.0725                 0.9290                 1.3070
 IR Inten    --      2.6946                23.7224                32.1120

                     37                     38                     39
                      A                      A                      A
 Frequencies --   1089.7209              1114.9074              1119.9007
 Red. masses --      2.2126                 2.2085                 1.9340
 Frc consts  --      1.5480                 1.6174                 1.4291
 IR Inten    --     14.5525                 6.2939                 6.4979

                     40                     41                     42
                      A                      A                      A
 Frequencies --   1141.8194              1174.1018              1186.8299
 Red. masses --      3.0773                 3.5448                 1.5054
 Frc consts  --      2.3638                 2.8791                 1.2493
 IR Inten    --     32.9055               106.5296                13.6877

                     43                     44                     45
                      A                      A                      A
 Frequencies --   1193.1036              1197.5845              1221.1291
 Red. masses --      1.2589                 1.8421                 1.6078
 Frc consts  --      1.0558                 1.5566                 1.4126
 IR Inten    --      7.0357                29.5806                13.5102

                     46                     47                     48
                      A                      A                      A
 Frequencies --   1251.3202              1257.5205              1270.2088
 Red. masses --      1.6898                 1.9175                 1.2291
 Frc consts  --      1.5589                 1.7865                 1.1684
 IR Inten    --      6.6634                 4.4137                12.6155

                     49                     50                     51
                      A                      A                      A
 Frequencies --   1313.3586              1316.9182              1340.4182
 Red. masses --      1.8378                 1.5521                 1.2660
 Frc consts  --      1.8677                 1.5860                 1.3401
 IR Inten    --     16.7253                61.7544                14.0819

                     52                     53                     54
                      A                      A                      A
 Frequencies --   1364.7610              1381.3359              1407.4295
 Red. masses --      1.2159                 1.4545                 1.3893
 Frc consts  --      1.3343                 1.6351                 1.6215
 IR Inten    --      2.1617                24.3033                15.0666

                     55                     56                     57
                      A                      A                      A
 Frequencies --   1422.6750              1437.5734              1444.5776
 Red. masses --      1.5054                 2.8265                 1.3841
 Frc consts  --      1.7951                 3.4416                 1.7018
 IR Inten    --      3.9360                 6.2275                18.2762

                     58                     59                     60
                      A                      A                      A
 Frequencies --   1503.5601              1505.0260              1506.6210
 Red. masses --      1.2788                 1.2870                 1.1514
 Frc consts  --      1.7034                 1.7176                 1.5399
 IR Inten    --     20.0633                23.8857                 6.2131

                     61                     62                     63
                      A                      A                      A
 Frequencies --   1514.7497              1516.7864              1519.2496
 Red. masses --      1.0493                 1.1174                 1.8259
 Frc consts  --      1.4185                 1.5147                 2.4831
 IR Inten    --      3.9462                 4.6226                50.2560

                     64                     65                     66
                      A                      A                      A
 Frequencies --   1527.7279              1533.7349              1560.9581
 Red. masses --      1.1536                 1.0645                 1.0894
 Frc consts  --      1.5864                 1.4753                 1.5640
 IR Inten    --     25.4888                 9.6273                 2.8145

                     67                     68                     69
                      A                      A                      A
 Frequencies --   1625.4576              1760.9906              2971.8512
 Red. masses --      5.9503                11.2651                 1.0526
 Frc consts  --      9.2628                20.5826                 5.4774
 IR Inten    --     71.8264               159.3939                31.8886

                     70                     71                     72
                      A                      A                      A
 Frequencies --   2989.3437              2998.6960              3030.2297
 Red. masses --      1.0431                 1.1017                 1.1043
 Frc consts  --      5.4921                 5.8369                 5.9744
 IR Inten    --     99.4187                61.5109                65.7114

                     73                     74                     75
                      A                      A                      A
 Frequencies --   3037.0905              3041.2300              3047.9389
 Red. masses --      1.0635                 1.0648                 1.0672
 Frc consts  --      5.7799                 5.8028                 5.8411
 IR Inten    --     12.3600                63.8005                25.6887

                     76                     77                     78
                      A                      A                      A
 Frequencies --   3072.9817              3080.6099              3088.3700
 Red. masses --      1.0599                 1.0984                 1.0950
 Frc consts  --      5.8973                 6.1414                 6.1533
 IR Inten    --     14.4178                29.8873                17.6882

                     79                     80                     81
                      A                      A                      A
 Frequencies --   3105.5599              3126.1236              3136.2852
 Red. masses --      1.1012                 1.1046                 1.0963
 Frc consts  --      6.2577                 6.3600                 6.3534
 IR Inten    --     44.7377                21.8770                30.0331

                     82                     83                     84
                      A                      A                      A
 Frequencies --   3271.6940              3292.1115              3300.9458
 Red. masses --      1.0907                 1.0967                 1.1059
 Frc consts  --      6.8787                 7.0031                 7.0998
 IR Inten    --      2.1058                 0.0145                 1.2388

 - Thermochemistry -
 -------------------
 Temperature   298.150 Kelvin.  Pressure   1.00000 Atm.
 Atom     1 has atomic number  6 and mass  12.00000

 Molecular mass:   196.10994 amu.
 Principal axes and moments of inertia in atomic units:
                           1         2         3
     Eigenvalues --  1865.254235039.887485218.49225
           X            0.99998   0.00112  -0.00631
           Y           -0.00050   0.99520   0.09791
           Z            0.00639  -0.09790   0.99518
 This molecule is an asymmetric top.
 Rotational symmetry number  1.
 Warning -- assumption of classical behavior for rotation
           may cause significant error
 Rotational temperatures (Kelvin)      0.04644     0.01719     0.01660
 Rotational constants (GHZ):           0.96756     0.35809     0.34584
 Zero-point vibrational energy     674666.7 (Joules/Mol)
                                  161.24922 (Kcal/Mol)
 Warning -- explicit consideration of  20 degrees of freedom as
           vibrations may cause significant error
 Vibrational temperatures:     19.94    36.50    45.17    82.90   126.84
          (Kelvin)            144.58   230.37   255.14   269.80   314.22
                              341.89   354.52   438.45   489.47   558.51
                              647.39   715.78   781.25   857.06   883.14
                              931.90  1052.19  1101.94  1117.53  1203.15
                             1221.94  1232.30  1297.83  1302.91  1313.71
                             1332.33  1379.71  1441.99  1480.57  1498.08
                             1529.75  1567.87  1604.10  1611.29  1642.82
                             1689.27  1707.58  1716.61  1723.06  1756.93
                             1800.37  1809.29  1827.55  1889.63  1894.75
                             1928.56  1963.59  1987.43  2024.98  2046.91
                             2068.35  2078.42  2163.29  2165.40  2167.69
                             2179.39  2182.32  2185.86  2198.06  2206.70
                             2245.87  2338.67  2533.67  4275.83  4301.00
                             4314.45  4359.82  4369.70  4375.65  4385.30
                             4421.34  4432.31  4443.48  4468.21  4497.79
                             4512.41  4707.24  4736.61  4749.32

 Zero-point correction=                           0.256967 (Hartree/Particle)
 Thermal correction to Energy=                    0.271548
 Thermal correction to Enthalpy=                  0.272492
 Thermal correction to Gibbs Free Energy=         0.211876
 Sum of electronic and zero-point Energies=           -654.231216
 Sum of electronic and thermal Energies=              -654.216635
 Sum of electronic and thermal Enthalpies=            -654.215691
 Sum of electronic and thermal Free Energies=         -654.276307

                     E (Thermal)             CV                S
                      KCal/Mol        Cal/Mol-Kelvin    Cal/Mol-Kelvin
 Total                  170.399             52.262            127.578
 Electronic               0.000              0.000              0.000
 Translational            0.889              2.981             41.726
 Rotational               0.889              2.981             32.262
 Vibrational            168.622             46.300             53.591
 Vibration     1          0.593              1.986              7.363
 Vibration     2          0.593              1.985              6.162
 Vibration     3          0.594              1.983              5.739
 Vibration     4          0.596              1.974              4.537
 Vibration     5          0.601              1.958              3.700
 Vibration     6          0.604              1.949              3.445
 Vibration     7          0.622              1.891              2.548
 Vibration     8          0.628              1.870              2.356
 Vibration     9          0.632              1.857              2.252
 Vibration    10          0.646              1.813              1.972
 Vibration    11          0.656              1.783              1.821
 Vibration    12          0.661              1.769              1.756
 Vibration    13          0.696              1.665              1.391
 Vibration    14          0.720              1.595              1.211
 Vibration    15          0.756              1.495              1.007
 Vibration    16          0.809              1.361              0.796
 Vibration    17          0.853              1.256              0.664
 Vibration    18          0.898              1.155              0.559
 Vibration    19          0.953              1.041              0.457
 Vibration    20          0.973              1.003              0.427

 Optimization completed.
    -- Stationary point found.
 Normal termination of Gaussian 16 at Thu Dec 10 10:13:15 2020.

 ----------------------------------------------------------------------
 # B3LYP/6-311++G(d,p) empiricaldispersion=gd3bj scf=xqc pop=npa geom=c
 heck
 ----------------------------------------------------------------------

 --------------------------------------
 CID_14473413_JID_4557_Energie_neutraal
 --------------------------------------
 Structure from the checkpoint file:  "JID_4557.chk"
 Charge =  0 Multiplicity = 1

 SCF Done:  E(RB3LYP) =  -654.676265304     A.U. after   15 cycles
 Normal termination of Gaussian 16 at Thu Dec 10 10:16:27 2020.

 ----------------------------------------------------------------------
 # B3LYP/6-311++G(d,p) empiricaldispersion=gd3bj scf=xqc pop=npa geom=c
 heck
 ----------------------------------------------------------------------

 ------------------------------------
 CID_14473413_JID_4557_Energie_kation
 ------------------------------------
 Structure from the checkpoint file:  "JID_4557.chk"
 Charge =  1 Multiplicity = 2

 SCF Done:  E(UB3LYP) =  -654.363425886     A.U. after   33 cycles
 SCF Done:  E(UB3LYP) =  -654.363425886     a.u. after    1 cycles
 Normal termination of Gaussian 16 at Thu Dec 10 10:26:01 2020.
 Gaussian 16:  ES64L-G16RevA.03 25-Dec-2016

 ----------------------------------------------------------------------
 # B3LYP/6-311++G(d,p) empiricaldispersion=gd3bj scf=xqc pop=npa geom=c
 heck
 ----------------------------------------------------------------------

 -----------------------------------
 CID_14473413_JID_4557_Energie_anion
 -----------------------------------
 Structure from the checkpoint file:  "JID_4557.chk"
 Charge = -1 Multiplicity = 2

                         Standard orientation:
 ---------------------------------------------------------------------
 Center     Atomic      Atomic             Coordinates (Angstroms)
 Number     Number       Type             X           Y           Z
 ---------------------------------------------------------------------
      1          6           0       -3.563416    1.977605    0.694134
      2          8           0       -2.833020    1.246403   -0.263893
      3          6           0       -3.360874   -0.048457   -0.482884
      4          6           0       -2.436801   -0.789999   -1.441602
      5          6           0       -0.994318   -0.913438   -0.933405
      6          6           0       -0.856448   -1.765962    0.332951
      7          6           0        0.604943   -1.937720    0.795584
      8          6           0        1.175758   -0.605597    1.253816
      9          8           0        0.859207   -0.109074    2.328312
     10          6           0        2.086113    0.117361    0.362550
     11          6           0        2.683920    1.346225    0.487101
     12          6           0        3.443689    1.555469   -0.698988
     13          6           0        3.257519    0.439915   -1.468121
     14          8           0        2.440553   -0.442841   -0.844861
     15          1           0       -3.077743    2.951197    0.798864
     16          1           0       -3.567105    1.473013    1.673743
     17          1           0       -4.609312    2.130888    0.380803
     18          1           0       -3.447465   -0.588236    0.475163
     19          1           0       -4.377875    0.019451   -0.906488
     20          1           0       -2.861102   -1.786493   -1.627636
     21          1           0       -2.438372   -0.258274   -2.401013
     22          1           0       -0.370036   -1.345754   -1.726297
     23          1           0       -0.607704    0.094149   -0.745158
     24          1           0       -1.417424   -1.314765    1.159288
     25          1           0       -1.288034   -2.760518    0.157537
     26          1           0        0.635984   -2.610244    1.659323
     27          1           0        1.208505   -2.371893   -0.007105
     28          1           0        2.573201    2.005190    1.335495
     29          1           0        4.047016    2.415737   -0.951725
     30          1           0        3.623027    0.138227   -2.438072
 ---------------------------------------------------------------------

 SCF Done:  E(UB3LYP) =  -654.679533616     A.U. after   33 cycles
 SCF Done:  E(UB3LYP) =  -654.679533616     a.u. after    1 cycles

 The electronic state is 2-A.
 Alpha  occ. eigenvalues --  -19.03574 -19.02488 -18.91687 -10.11727 -10.11152
 Alpha  occ. eigenvalues --  -10.07784 -10.06433 -10.06166 -10.05811 -10.03811
 Alpha  occ. eigenvalues --  -10.03780 -10.03731 -10.02558 -10.01724  -0.96622
 Alpha  occ. eigenvalues --   -0.93873  -0.85722  -0.68939  -0.65873  -0.64416
 Alpha  occ. eigenvalues --   -0.61161  -0.58914  -0.54873  -0.50638  -0.46769
 Alpha  occ. eigenvalues --   -0.45434  -0.43935  -0.40655  -0.39217  -0.38398
 Alpha  occ. eigenvalues --   -0.36477  -0.35472  -0.33171  -0.32832  -0.31440
 Alpha  occ. eigenvalues --   -0.30474  -0.29755  -0.27853  -0.27527  -0.26299
 Alpha  occ. eigenvalues --   -0.25784  -0.24832  -0.23947  -0.22846  -0.22689
 Alpha  occ. eigenvalues --   -0.22098  -0.20454  -0.19700  -0.18868  -0.16182
 Alpha  occ. eigenvalues --   -0.14685  -0.09328  -0.08363   0.04974
 Alpha virt. eigenvalues --    0.06565   0.08121   0.08762   0.09247   0.09989
 Alpha virt. eigenvalues --    0.10549   0.11178   0.11533   0.12270   0.12505
 Alpha virt. eigenvalues --    0.13057   0.13601   0.14487   0.14647   0.15006

  Beta  occ. eigenvalues --  -19.03311 -19.02486 -18.91164 -10.11721 -10.11141
  Beta  occ. eigenvalues --  -10.07573 -10.06137 -10.06087 -10.05802 -10.03824
  Beta  occ. eigenvalues --  -10.03801 -10.03736 -10.02590 -10.01511  -0.96200
  Beta  occ. eigenvalues --   -0.93869  -0.84765  -0.68900  -0.65631  -0.64251
  Beta  occ. eigenvalues --   -0.60763  -0.58842  -0.54788  -0.50389  -0.46429
  Beta  occ. eigenvalues --   -0.45223  -0.43667  -0.40457  -0.39190  -0.38371
  Beta  occ. eigenvalues --   -0.36376  -0.35166  -0.32975  -0.32682  -0.30635
  Beta  occ. eigenvalues --   -0.30205  -0.29553  -0.27755  -0.27354  -0.26161
  Beta  occ. eigenvalues --   -0.25517  -0.24716  -0.23655  -0.22630  -0.22284
  Beta  occ. eigenvalues --   -0.21524  -0.20330  -0.19587  -0.17371  -0.16170
  Beta  occ. eigenvalues --   -0.13802  -0.07904  -0.07721
  Beta virt. eigenvalues --    0.06793   0.08153   0.08711   0.09328   0.09958
  Beta virt. eigenvalues --    0.10483   0.10895   0.11453   0.11531   0.12280
  Beta virt. eigenvalues --    0.12411   0.13009   0.13563   0.14481   0.14634

 Mulliken charges and spin densities:
               1          2
     1  C   -0.146130  -0.114422
     2  O   -0.114620   0.014305
     3  C   -0.101930  -0.291152
     4  C   -0.207090  -0.287720
     5  C   -0.436202   0.377313
     6  C    0.163410  -0.435397
     7  C   -0.029033  -0.115710
     8  C   -0.243908   0.258256
     9  O   -0.426422   0.184818
    10  C   -0.153904  -0.003113
    11  C    0.037552   0.198204
    12  C   -0.354982  -0.097387
    13  C   -0.074953   0.214792
    14  O   -0.010081   0.042076
    15  H    0.117304   0.014227
    16  H    0.119147   0.014678
    17  H    0.000070   0.108225
    18  H    0.013909   0.126968
    19  H   -0.131992   0.251737
    20  H   -0.034166   0.146164
    21  H    0.060512   0.105045
    22  H    0.121509   0.040387
    23  H    0.148496   0.005213
    24  H    0.222261  -0.096891
    25  H   -0.101925   0.220921
    26  H    0.038359   0.133186
    27  H    0.136599  -0.009978
    28  H    0.161386  -0.010493
    29  H    0.115938   0.003309
    30  H    0.110884   0.002442
 Sum of Mulliken charges =  -1.00000   1.00000

 Dipole moment (field-independent basis, Debye):
    X=             -2.2830    Y=              0.8276    Z=             -2.8917  Tot=              3.7761
 Quadrupole moment (field-independent basis, Debye-Ang):
   XX=           -124.6886   YY=           -101.6226   ZZ=           -110.6084
   XY=             -2.3432   XZ=             -8.6726   YZ=              2.7052

 Summary of Natural Population Analysis:

                                       Natural Population
                Natural  -----------------------------------------------
    Atom  No    Charge         Core      Valence    Rydberg      Total
 -----------------------------------------------------------------------
      C    1   -0.09666      0.99963     2.08791    0.00913     3.09666
      O    2   -0.29654      0.99988     3.28711    0.00955     4.29654
      C    3   -0.00877      0.99959     1.99637    0.01281     3.00877
      C    4   -0.19618      0.99962     2.18667    0.00989     3.19618
      C    5   -0.19759      0.99962     2.18742    0.01055     3.19759
      C    6   -0.18254      0.99963     2.17411    0.00880     3.18254
      C    7   -0.22952      0.99961     2.21920    0.01071     3.22952
      C    8    0.28813      0.99960     1.69096    0.02132     2.71187
      O    9   -0.25493      0.99988     3.24906    0.00599     4.25493
      C   10    0.11161      0.99941     1.87529    0.01368     2.88839
      C   11   -0.09459      0.99952     2.08650    0.00857     3.09459
      C   12   -0.18497      0.99958     2.17706    0.00832     3.18497
      C   13    0.09351      0.99954     1.89215    0.01481     2.90649
      O   14   -0.21457      0.99986     3.20680    0.00790     4.21457
      H   15    0.08987      0.00000     0.40936    0.00077     0.41013
      H   16    0.07960      0.00000     0.41941    0.00098     0.42040
      H   17    0.07253      0.00000     0.42608    0.00138     0.42747
      H   18    0.07850      0.00000     0.42002    0.00149     0.42150
      H   19    0.07482      0.00000     0.42356    0.00162     0.42518
      H   20    0.09396      0.00000     0.40506    0.00098     0.40604
      H   21    0.09634      0.00000     0.40255    0.00111     0.40366
      H   22    0.09540      0.00000     0.40345    0.00115     0.40460
      H   23    0.11024      0.00000     0.38822    0.00154     0.38976
      H   24    0.09706      0.00000     0.40134    0.00160     0.40294
      H   25    0.08682      0.00000     0.41172    0.00146     0.41318
      H   26    0.10299      0.00000     0.39553    0.00147     0.39701
      H   27    0.09858      0.00000     0.40000    0.00142     0.40142
      H   28    0.10617      0.00000     0.39298    0.00085     0.39383
      H   29    0.09815      0.00000     0.40097    0.00088     0.40185
      H   30    0.08256      0.00000     0.41646    0.00098     0.41744
 =======================================================================
   * Total *   -0.00000     13.99497    38.83334    0.17170    53.00000

 Normal termination of Gaussian 16 at Thu Dec 10 10:40:12 2020.
