 Gaussian 16, Revision A.03,

 -----------------------------------------------------------
 # opt freq B3LYP/6-31G(d) empiricaldispersion=gd3bj scf=xqc
 -----------------------------------------------------------

 ------------------------------
 CID_65253246_JID_5091_neutraal
 ------------------------------
 Symbolic Z-matrix:
 Charge =  0 Multiplicity = 1

 SCF Done:  E(RB3LYP) =  -703.627709460     A.U. after   15 cycles
 SCF Done:  E(RB3LYP) =  -703.631945235     A.U. after   13 cycles
 SCF Done:  E(RB3LYP) =  -703.631767338     A.U. after   14 cycles
 SCF Done:  E(RB3LYP) =  -703.633031991     A.U. after   13 cycles
 SCF Done:  E(RB3LYP) =  -703.633623443     A.U. after   12 cycles
 SCF Done:  E(RB3LYP) =  -703.633914669     A.U. after   13 cycles
 SCF Done:  E(RB3LYP) =  -703.634119037     A.U. after   12 cycles
 SCF Done:  E(RB3LYP) =  -703.634293502     A.U. after   12 cycles
 SCF Done:  E(RB3LYP) =  -703.634392133     A.U. after   11 cycles
 SCF Done:  E(RB3LYP) =  -703.634436936     A.U. after   12 cycles
 SCF Done:  E(RB3LYP) =  -703.634752131     A.U. after    9 cycles
 SCF Done:  E(RB3LYP) =  -703.634772756     A.U. after   12 cycles
 SCF Done:  E(RB3LYP) =  -703.634810632     A.U. after   11 cycles
 SCF Done:  E(RB3LYP) =  -703.634820215     A.U. after   10 cycles
 SCF Done:  E(RB3LYP) =  -703.634822218     A.U. after   10 cycles
 SCF Done:  E(RB3LYP) =  -703.634822365     A.U. after    8 cycles
 Optimization completed.
    -- Stationary point found.
 Normal termination of Gaussian 16 at Thu Dec 10 15:01:00 2020.

 --------------------------------------------------------------------
 #N Geom=AllCheck Guess=TCheck SCRF=Check GenChk RB3LYP/6-31G(d) Freq
 --------------------------------------------------------------------

 Structure from the checkpoint file:  "JID_5091.chk"
 ------------------------------
 CID_65253246_JID_5091_neutraal
 ------------------------------
 Charge =  0 Multiplicity = 1

 SCF Done:  E(RB3LYP) =  -703.634822365     A.U. after    1 cycles

  Exact polarizability: 119.195  -5.586 135.778  17.111   5.685  98.961
 Approx polarizability: 162.630 -17.488 232.504  37.043  13.437 160.692

                      1                      2                      3
                      A                      A                      A
 Frequencies --     24.1689                45.6989                78.0688
 Red. masses --      6.8723                 5.8661                 7.3021
 Frc consts  --      0.0024                 0.0072                 0.0262
 IR Inten    --      3.7029                 1.8885                 0.4349

                      4                      5                      6
                      A                      A                      A
 Frequencies --     98.3395               120.6932               167.7591
 Red. masses --      4.5027                 8.0329                 4.0263
 Frc consts  --      0.0257                 0.0689                 0.0668
 IR Inten    --      1.2010                 4.1873                 1.2129

                      7                      8                      9
                      A                      A                      A
 Frequencies --    182.6641               200.4868               214.5131
 Red. masses --      3.2725                 4.1609                 3.6177
 Frc consts  --      0.0643                 0.0985                 0.0981
 IR Inten    --      1.7676                 1.6325                 1.9169

                     10                     11                     12
                      A                      A                      A
 Frequencies --    244.4529               260.7657               274.3899
 Red. masses --      1.5117                 2.0193                 1.4765
 Frc consts  --      0.0532                 0.0809                 0.0655
 IR Inten    --      1.3670                 4.6039                 1.6317

                     13                     14                     15
                      A                      A                      A
 Frequencies --    302.1847               342.8518               379.7427
 Red. masses --      2.3803                 2.6886                 2.3298
 Frc consts  --      0.1281                 0.1862                 0.1979
 IR Inten    --      2.7246                 4.5816                 0.4907

                     16                     17                     18
                      A                      A                      A
 Frequencies --    389.0503               433.8337               478.9758
 Red. masses --      2.2388                 6.9041                 3.3737
 Frc consts  --      0.1997                 0.7656                 0.4560
 IR Inten    --      0.2357                 3.1083                 5.8403

                     19                     20                     21
                      A                      A                      A
 Frequencies --    530.9203               574.3836               581.0828
 Red. masses --      3.8487                 1.8703                 3.7574
 Frc consts  --      0.6392                 0.3635                 0.7475
 IR Inten    --      6.3542                32.4117                10.2139

                     22                     23                     24
                      A                      A                      A
 Frequencies --    620.2910               659.6895               668.7963
 Red. masses --      3.7612                 2.7422                 4.0330
 Frc consts  --      0.8527                 0.7031                 1.0628
 IR Inten    --      3.4397                38.8006                13.3977

                     25                     26                     27
                      A                      A                      A
 Frequencies --    681.4603               686.3824               730.8617
 Red. masses --      5.5551                 4.2501                 3.4628
 Frc consts  --      1.5199                 1.1797                 1.0898
 IR Inten    --      0.9083                38.7522                26.6634

                     28                     29                     30
                      A                      A                      A
 Frequencies --    768.2280               818.7191               870.9057
 Red. masses --      4.0093                 1.4135                 1.9098
 Frc consts  --      1.3941                 0.5582                 0.8535
 IR Inten    --     61.1655                14.3312                 0.5983

                     31                     32                     33
                      A                      A                      A
 Frequencies --    890.8343               905.5382               950.4549
 Red. masses --      1.3400                 2.3037                 2.6937
 Frc consts  --      0.6266                 1.1130                 1.4337
 IR Inten    --      0.6936                 5.3488                12.7208

                     34                     35                     36
                      A                      A                      A
 Frequencies --    956.5193               969.2918              1017.6477
 Red. masses --      3.5935                 1.5592                 1.7121
 Frc consts  --      1.9371                 0.8631                 1.0446
 IR Inten    --      4.5857                 0.0182                 1.3914

                     37                     38                     39
                      A                      A                      A
 Frequencies --   1051.9136              1058.1017              1075.3936
 Red. masses --      2.0880                 1.3747                 1.7234
 Frc consts  --      1.3613                 0.9068                 1.1743
 IR Inten    --     31.1582                 3.1168                 8.8893

                     40                     41                     42
                      A                      A                      A
 Frequencies --   1114.8731              1156.3463              1182.5268
 Red. masses --      2.6342                 2.1409                 2.3828
 Frc consts  --      1.9291                 1.6866                 1.9632
 IR Inten    --    112.6391                51.6671                53.2389

                     43                     44                     45
                      A                      A                      A
 Frequencies --   1227.6509              1239.9387              1243.0520
 Red. masses --      2.0891                 2.0246                 1.8110
 Frc consts  --      1.8550                 1.8340                 1.6487
 IR Inten    --     27.1784               130.9574                 3.5264

                     46                     47                     48
                      A                      A                      A
 Frequencies --   1283.5067              1322.0628              1335.2066
 Red. masses --      2.8476                 1.7609                 1.9435
 Frc consts  --      2.7639                 1.8134                 2.0414
 IR Inten    --      8.3141                21.7676                 8.1392

                     49                     50                     51
                      A                      A                      A
 Frequencies --   1349.5567              1395.0604              1406.1921
 Red. masses --      2.8629                 1.8034                 2.0276
 Frc consts  --      3.0721                 2.0679                 2.3622
 IR Inten    --     14.4286                20.4290                60.8562

                     52                     53                     54
                      A                      A                      A
 Frequencies --   1425.1430              1429.3509              1453.8364
 Red. masses --      1.5260                 1.1990                 1.2138
 Frc consts  --      1.8261                 1.4433                 1.5115
 IR Inten    --      8.6941                 2.6402                 3.1811

                     55                     56                     57
                      A                      A                      A
 Frequencies --   1464.6759              1498.7699              1507.4378
 Red. masses --      2.7411                 1.2948                 2.6299
 Frc consts  --      3.4647                 1.7137                 3.5210
 IR Inten    --     18.7525                 5.4399                26.1429

                     58                     59                     60
                      A                      A                      A
 Frequencies --   1514.6076              1521.5087              1527.4936
 Red. masses --      1.0890                 1.0485                 1.0498
 Frc consts  --      1.4719                 1.4301                 1.4431
 IR Inten    --     11.9117                 1.9865                 8.5581

                     61                     62                     63
                      A                      A                      A
 Frequencies --   1531.1640              1546.4834              1569.4751
 Red. masses --      1.1082                 1.0601                 5.5250
 Frc consts  --      1.5308                 1.4937                 8.0184
 IR Inten    --     13.4391                 6.4783                45.4064

                     64                     65                     66
                      A                      A                      A
 Frequencies --   1820.1890              2357.7514              3058.2160
 Red. masses --      9.5868                12.6855                 1.0417
 Frc consts  --     18.7135                41.5482                 5.7405
 IR Inten    --    275.0665                 6.7220                 4.5125

                     67                     68                     69
                      A                      A                      A
 Frequencies --   3062.5777              3072.4131              3089.7920
 Red. masses --      1.0547                 1.0388                 1.0694
 Frc consts  --      5.8284                 5.7777                 6.0155
 IR Inten    --     27.4586                17.4473                30.8052

                     70                     71                     72
                      A                      A                      A
 Frequencies --   3114.4071              3132.6012              3138.1310
 Red. masses --      1.1015                 1.1031                 1.1033
 Frc consts  --      6.2949                 6.3778                 6.4016
 IR Inten    --      7.6417                10.2013                16.1944

                     73                     74                     75
                      A                      A                      A
 Frequencies --   3142.1368              3179.8265              3184.1132
 Red. masses --      1.1036                 1.0993                 1.0966
 Frc consts  --      6.4197                 6.5488                 6.5508
 IR Inten    --     28.6805                 6.1511                 5.4130

                     76                     77                     78
                      A                      A                      A
 Frequencies --   3265.8814              3299.5776              3695.0258
 Red. masses --      1.0946                 1.1003                 1.0641
 Frc consts  --      6.8788                 7.0579                 8.5596
 IR Inten    --      6.1124                 0.3657                86.4302

 - Thermochemistry -
 -------------------
 Temperature   298.150 Kelvin.  Pressure   1.00000 Atm.
 Atom     1 has atomic number  6 and mass  12.00000

 Molecular mass:   207.10078 amu.
 Principal axes and moments of inertia in atomic units:
                           1         2         3
     Eigenvalues --  2122.311053371.144144374.26318
           X            0.99979  -0.01983   0.00444
           Y            0.01976   0.99970   0.01473
           Z           -0.00473  -0.01464   0.99988
 This molecule is an asymmetric top.
 Rotational symmetry number  1.
 Warning -- assumption of classical behavior for rotation
           may cause significant error
 Rotational temperatures (Kelvin)      0.04081     0.02569     0.01980
 Rotational constants (GHZ):           0.85037     0.53535     0.41258
 Zero-point vibrational energy     599117.4 (Joules/Mol)
                                  143.19251 (Kcal/Mol)
 Warning -- explicit consideration of  22 degrees of freedom as
           vibrations may cause significant error
 Vibrational temperatures:     34.77    65.75   112.32   141.49   173.65
          (Kelvin)            241.37   262.81   288.46   308.64   351.71
                              375.18   394.79   434.78   493.29   546.37
                              559.76   624.19   689.14   763.88   826.41
                              836.05   892.46   949.15   962.25   980.47
                              987.55  1051.55  1105.31  1177.95  1253.04
                             1281.71  1302.87  1367.49  1376.22  1394.59
                             1464.17  1513.47  1522.37  1547.25  1604.05
                             1663.72  1701.39  1766.32  1784.00  1788.47
                             1846.68  1902.15  1921.06  1941.71  2007.18
                             2023.20  2050.46  2056.52  2091.75  2107.34
                             2156.40  2168.87  2179.18  2189.11  2197.72
                             2203.00  2225.04  2258.12  2618.85  3392.28
                             4400.09  4406.37  4420.52  4445.52  4480.94
                             4507.11  4515.07  4520.83  4575.06  4581.23
                             4698.87  4747.36  5316.32

 Zero-point correction=                           0.228192 (Hartree/Particle)
 Thermal correction to Energy=                    0.242738
 Thermal correction to Enthalpy=                  0.243682
 Thermal correction to Gibbs Free Energy=         0.186087
 Sum of electronic and zero-point Energies=           -703.406631
 Sum of electronic and thermal Energies=              -703.392084
 Sum of electronic and thermal Enthalpies=            -703.391140
 Sum of electronic and thermal Free Energies=         -703.448736

                     E (Thermal)             CV                S
                      KCal/Mol        Cal/Mol-Kelvin    Cal/Mol-Kelvin
 Total                  152.320             54.406            121.220
 Electronic               0.000              0.000              0.000
 Translational            0.889              2.981             41.888
 Rotational               0.889              2.981             31.815
 Vibrational            150.543             48.444             47.517
 Vibration     1          0.593              1.985              6.258
 Vibration     2          0.595              1.979              4.995
 Vibration     3          0.599              1.964              3.939
 Vibration     4          0.604              1.950              3.487
 Vibration     5          0.609              1.932              3.089
 Vibration     6          0.624              1.882              2.460
 Vibration     7          0.630              1.863              2.301
 Vibration     8          0.638              1.839              2.129
 Vibration     9          0.644              1.819              2.005
 Vibration    10          0.660              1.772              1.770
 Vibration    11          0.669              1.745              1.657
 Vibration    12          0.677              1.721              1.568
 Vibration    13          0.694              1.670              1.405
 Vibration    14          0.722              1.590              1.199
 Vibration    15          0.750              1.513              1.040
 Vibration    16          0.757              1.494              1.004
 Vibration    17          0.795              1.396              0.846
 Vibration    18          0.835              1.297              0.713
 Vibration    19          0.886              1.182              0.585
 Vibration    20          0.931              1.087              0.496
 Vibration    21          0.938              1.072              0.483
 Vibration    22          0.980              0.989              0.416

 Optimization completed.
    -- Stationary point found.
 Normal termination of Gaussian 16 at Thu Dec 10 15:11:07 2020.

 ----------------------------------------------------------------------
 # B3LYP/6-311++G(d,p) empiricaldispersion=gd3bj scf=xqc pop=npa geom=c
 heck
 ----------------------------------------------------------------------

 --------------------------------------
 CID_65253246_JID_5091_Energie_neutraal
 --------------------------------------
 Structure from the checkpoint file:  "JID_5091.chk"
 Charge =  0 Multiplicity = 1

 SCF Done:  E(RB3LYP) =  -703.837721460     A.U. after   15 cycles
 Normal termination of Gaussian 16 at Thu Dec 10 15:16:07 2020.

 ----------------------------------------------------------------------
 # B3LYP/6-311++G(d,p) empiricaldispersion=gd3bj scf=xqc pop=npa geom=c
 heck
 ----------------------------------------------------------------------

 ------------------------------------
 CID_65253246_JID_5091_Energie_kation
 ------------------------------------
 Structure from the checkpoint file:  "JID_5091.chk"
 Charge =  1 Multiplicity = 2

 SCF Done:  E(UB3LYP) =  -703.492029875     A.U. after   32 cycles
 Normal termination of Gaussian 16 at Thu Dec 10 15:28:52 2020.
 Gaussian 16:  ES64L-G16RevA.03 25-Dec-2016

 ----------------------------------------------------------------------
 # B3LYP/6-311++G(d,p) empiricaldispersion=gd3bj scf=xqc pop=npa geom=c
 heck
 ----------------------------------------------------------------------

 -----------------------------------
 CID_65253246_JID_5091_Energie_anion
 -----------------------------------
 Structure from the checkpoint file:  "JID_5091.chk"
 Charge = -1 Multiplicity = 2

                         Standard orientation:
 ---------------------------------------------------------------------
 Center     Atomic      Atomic             Coordinates (Angstroms)
 Number     Number       Type             X           Y           Z
 ---------------------------------------------------------------------
      1          6           0        3.700851   -0.002459   -0.345193
      2          6           0        2.158397    0.018018   -0.249735
      3          6           0        1.569235   -0.761828   -1.448666
      4          6           0        1.745872   -0.587422    1.122197
      5          6           0        0.318741   -0.331458    1.612654
      6          7           0       -0.700959   -0.891194    0.728018
      7          6           0       -1.659957   -0.239644   -0.004208
      8          6           0       -2.274865   -1.205787   -0.794080
      9          6           0       -1.622711   -2.403496   -0.462916
     10          7           0       -0.665817   -2.203893    0.451887
     11          6           0       -1.974839    1.188049    0.139520
     12          8           0       -1.597425    1.920626    1.032551
     13          8           0       -2.785980    1.610206   -0.859051
     14          6           0        1.701898    1.417117   -0.337275
     15          7           0        1.329408    2.513642   -0.420660
     16          1           0        4.053879   -1.036296   -0.265056
     17          1           0        4.037376    0.404312   -1.303260
     18          1           0        4.156124    0.583632    0.458760
     19          1           0        1.831206   -1.819999   -1.356317
     20          1           0        0.483557   -0.680361   -1.505895
     21          1           0        1.988354   -0.377264   -2.383686
     22          1           0        1.926165   -1.665966    1.073431
     23          1           0        2.411795   -0.180054    1.892350
     24          1           0        0.194446   -0.795434    2.595948
     25          1           0        0.106327    0.732313    1.706675
     26          1           0       -3.088079   -1.043315   -1.484449
     27          1           0       -1.800977   -3.400891   -0.841074
     28          1           0       -2.947089    2.556238   -0.683936
 ---------------------------------------------------------------------

 SCF Done:  E(UB3LYP) =  -703.839001847     A.U. after   30 cycles

 The electronic state is 2-A.
 Alpha  occ. eigenvalues --  -19.02972 -18.95638 -14.24665 -14.19833 -14.18858
 Alpha  occ. eigenvalues --  -10.14381 -10.12123 -10.09445 -10.08717 -10.07439
 Alpha  occ. eigenvalues --  -10.07214 -10.06802 -10.06254 -10.06085 -10.03257
 Alpha  occ. eigenvalues --   -0.96732  -0.91839  -0.87270  -0.79761  -0.73801
 Alpha  occ. eigenvalues --   -0.70698  -0.66487  -0.61928  -0.59600  -0.54497
 Alpha  occ. eigenvalues --   -0.53018  -0.51422  -0.47378  -0.43077  -0.39688
 Alpha  occ. eigenvalues --   -0.38103  -0.37112  -0.35747  -0.34461  -0.32751
 Alpha  occ. eigenvalues --   -0.32181  -0.31725  -0.30961  -0.29715  -0.29645
 Alpha  occ. eigenvalues --   -0.29078  -0.28758  -0.27092  -0.26371  -0.25210
 Alpha  occ. eigenvalues --   -0.25156  -0.24125  -0.23866  -0.21247  -0.21157
 Alpha  occ. eigenvalues --   -0.18895  -0.16401  -0.14158  -0.12971  -0.12698
 Alpha  occ. eigenvalues --    0.04738
 Alpha virt. eigenvalues --    0.06697   0.08679   0.08816   0.09485   0.10013
 Alpha virt. eigenvalues --    0.10202   0.11291   0.11889   0.12754   0.13168
 Alpha virt. eigenvalues --    0.13590   0.13866   0.14095   0.14742   0.15245

  Beta  occ. eigenvalues --  -19.02899 -18.95339 -14.24374 -14.19825 -14.18568
  Beta  occ. eigenvalues --  -10.14065 -10.12122 -10.09446 -10.08729 -10.07407
  Beta  occ. eigenvalues --  -10.07185 -10.06703 -10.06250 -10.06161 -10.03140
  Beta  occ. eigenvalues --   -0.96398  -0.91391  -0.86817  -0.79751  -0.73740
  Beta  occ. eigenvalues --   -0.70441  -0.66059  -0.61803  -0.59565  -0.54365
  Beta  occ. eigenvalues --   -0.52509  -0.51313  -0.47216  -0.42932  -0.39431
  Beta  occ. eigenvalues --   -0.37957  -0.36870  -0.35617  -0.34124  -0.32443
  Beta  occ. eigenvalues --   -0.31990  -0.31223  -0.30391  -0.29623  -0.29464
  Beta  occ. eigenvalues --   -0.28910  -0.28291  -0.27027  -0.26211  -0.25121
  Beta  occ. eigenvalues --   -0.25110  -0.24008  -0.23720  -0.21229  -0.21077
  Beta  occ. eigenvalues --   -0.17694  -0.16023  -0.13855  -0.12071  -0.11227
  Beta virt. eigenvalues --    0.07164   0.08740   0.09048   0.09495   0.10107
  Beta virt. eigenvalues --    0.10337   0.10786   0.11512   0.11822   0.12739
  Beta virt. eigenvalues --    0.13229   0.13658   0.13966   0.14139   0.14818

 Mulliken charges and spin densities:
               1          2
     1  C    0.762693  -1.262258
     2  C   -0.319415   1.551333
     3  C   -0.485835  -0.182557
     4  C    0.418028  -0.959089
     5  C   -0.544375   0.157219
     6  N    0.492751   0.096047
     7  C   -0.254680   0.016758
     8  C    0.200038   0.127680
     9  C   -0.353332  -0.026776
    10  N   -0.455140   0.143601
    11  C   -0.230990   0.131654
    12  O   -0.347637   0.102045
    13  O   -0.173429   0.013859
    14  C   -0.204902  -0.456191
    15  N   -0.236848   0.005419
    16  H   -0.282708   0.442188
    17  H   -0.073213   0.217399
    18  H   -0.086165   0.240875
    19  H    0.109704   0.053572
    20  H    0.200395   0.014955
    21  H    0.116857   0.030643
    22  H    0.215996  -0.029146
    23  H   -0.200699   0.354091
    24  H   -0.080438   0.265372
    25  H    0.298317  -0.069750
    26  H    0.167123  -0.006200
    27  H    0.088562   0.028501
    28  H    0.259341  -0.001243
 Sum of Mulliken charges =  -1.00000   1.00000

 Dipole moment (field-independent basis, Debye):
    X=             -1.1405    Y=             -1.3485    Z=             -2.0072  Tot=              2.6736
 Quadrupole moment (field-independent basis, Debye-Ang):
   XX=           -129.3716   YY=           -122.4066   ZZ=           -109.1997
   XY=             -1.7793   XZ=              0.2883   YZ=              1.3855

 Summary of Natural Population Analysis:

                                       Natural Population
                Natural  -----------------------------------------------
    Atom  No    Charge         Core      Valence    Rydberg      Total
 -----------------------------------------------------------------------
      C    1   -0.27287      0.99964     2.26589    0.00734     3.27287
      C    2   -0.09306      0.99950     2.08320    0.01036     3.09306
      C    3   -0.27751      0.99963     2.27000    0.00787     3.27751
      C    4   -0.18294      0.99959     2.17257    0.01077     3.18294
      C    5   -0.09352      0.99959     2.08180    0.01213     3.09352
      N    6   -0.06580      0.99963     2.55258    0.01359     3.56580
      C    7    0.03348      0.99947     1.95262    0.01443     2.96652
      C    8   -0.12890      0.99953     2.12211    0.00726     3.12890
      C    9   -0.04777      0.99964     2.03345    0.01469     3.04777
      N   10   -0.12093      0.99973     2.60893    0.01227     3.62093
      C   11    0.42027      0.99966     1.55506    0.02502     2.57973
      O   12   -0.29483      0.99987     3.28844    0.00652     4.29483
      O   13   -0.34704      0.99988     3.34162    0.00554     4.34704
      C   14    0.16001      0.99962     1.81812    0.02225     2.83999
      N   15   -0.17795      0.99979     2.66659    0.01157     3.67795
      H   16    0.10235      0.00000     0.39658    0.00108     0.39765
      H   17    0.10122      0.00000     0.39761    0.00117     0.39878
      H   18    0.10302      0.00000     0.39567    0.00131     0.39698
      H   19    0.10313      0.00000     0.39603    0.00084     0.39687
      H   20    0.11695      0.00000     0.38161    0.00144     0.38305
      H   21    0.09646      0.00000     0.40271    0.00083     0.40354
      H   22    0.10785      0.00000     0.39047    0.00168     0.39215
      H   23    0.10188      0.00000     0.39677    0.00135     0.39812
      H   24    0.10127      0.00000     0.39759    0.00113     0.39873
      H   25    0.12446      0.00000     0.37408    0.00147     0.37554
      H   26    0.10625      0.00000     0.39299    0.00077     0.39375
      H   27    0.09095      0.00000     0.40819    0.00086     0.40905
      H   28    0.23358      0.00000     0.26396    0.00246     0.26642
 =======================================================================
   * Total *   -0.00000     14.99478    39.80724    0.19798    55.00000

 Normal termination of Gaussian 16 at Thu Dec 10 15:40:11 2020.
