 Gaussian 16, Revision A.03,

 -----------------------------------------------------------
 # opt freq B3LYP/6-31G(d) empiricaldispersion=gd3bj scf=xqc
 -----------------------------------------------------------

 -------------------------------
 CID_113829160_JID_7730_neutraal
 -------------------------------
 Symbolic Z-matrix:
 Charge =  0 Multiplicity = 1

 SCF Done:  E(RB3LYP) =  -834.083211740     A.U. after   15 cycles
 SCF Done:  E(RB3LYP) =  -834.086724135     A.U. after   15 cycles
 SCF Done:  E(RB3LYP) =  -834.085480392     A.U. after   15 cycles
 SCF Done:  E(RB3LYP) =  -834.089851378     A.U. after   14 cycles
 SCF Done:  E(RB3LYP) =  -834.091558503     A.U. after   14 cycles
 SCF Done:  E(RB3LYP) =  -834.092220590     A.U. after   14 cycles
 SCF Done:  E(RB3LYP) =  -834.092712700     A.U. after   13 cycles
 SCF Done:  E(RB3LYP) =  -834.093300828     A.U. after   14 cycles
 SCF Done:  E(RB3LYP) =  -834.093838273     A.U. after   14 cycles
 SCF Done:  E(RB3LYP) =  -834.094682160     A.U. after   16 cycles
 SCF Done:  E(RB3LYP) =  -834.102387550     A.U. after   13 cycles
 SCF Done:  E(RB3LYP) =  -834.102407963     A.U. after   10 cycles
 SCF Done:  E(RB3LYP) =  -834.102413142     A.U. after   10 cycles
 SCF Done:  E(RB3LYP) =  -834.102414437     A.U. after    8 cycles
 SCF Done:  E(RB3LYP) =  -834.102414926     A.U. after    9 cycles
 SCF Done:  E(RB3LYP) =  -834.102415018     A.U. after    8 cycles
 Optimization completed.
    -- Stationary point found.
 Normal termination of Gaussian 16 at Fri Dec 11 13:23:44 2020.

 --------------------------------------------------------------------
 #N Geom=AllCheck Guess=TCheck SCRF=Check GenChk RB3LYP/6-31G(d) Freq
 --------------------------------------------------------------------

 Structure from the checkpoint file:  "JID_7730.chk"
 -------------------------------
 CID_113829160_JID_7730_neutraal
 -------------------------------
 Charge =  0 Multiplicity = 1

 SCF Done:  E(RB3LYP) =  -834.102415018     A.U. after    1 cycles

  Exact polarizability: 189.041   2.128 148.138   9.955  -3.247  91.595
 Approx polarizability: 277.858  -3.818 245.986  31.490  -6.262 148.752

                      1                      2                      3
                      A                      A                      A
 Frequencies --     33.2630                39.8372                56.1154
 Red. masses --      5.3235                 5.0871                 7.0274
 Frc consts  --      0.0035                 0.0048                 0.0130
 IR Inten    --      0.4055                 0.2263                 0.4155

                      4                      5                      6
                      A                      A                      A
 Frequencies --     91.7054               114.9819               133.9776
 Red. masses --      5.2344                 5.3483                 5.0505
 Frc consts  --      0.0259                 0.0417                 0.0534
 IR Inten    --      0.0445                 0.6053                 0.8339

                      7                      8                      9
                      A                      A                      A
 Frequencies --    187.6766               217.0523               223.3520
 Red. masses --      4.3109                 4.1417                 3.6895
 Frc consts  --      0.0895                 0.1150                 0.1084
 IR Inten    --      2.1615                 1.1980                 6.2733

                     10                     11                     12
                      A                      A                      A
 Frequencies --    258.9810               267.1867               319.1420
 Red. masses --      4.4682                 4.6932                 3.0027
 Frc consts  --      0.1766                 0.1974                 0.1802
 IR Inten    --      2.5676                12.0670                 8.6734

                     13                     14                     15
                      A                      A                      A
 Frequencies --    363.4062               389.9398               407.6776
 Red. masses --      3.8117                 3.4702                 2.5043
 Frc consts  --      0.2966                 0.3109                 0.2452
 IR Inten    --      9.8580                 1.9882                 3.3559

                     16                     17                     18
                      A                      A                      A
 Frequencies --    443.4474               491.7227               501.3849
 Red. masses --      4.8653                 3.7201                 4.4732
 Frc consts  --      0.5637                 0.5300                 0.6625
 IR Inten    --      5.1660                 7.9446                 6.7668

                     19                     20                     21
                      A                      A                      A
 Frequencies --    540.3145               566.2776               580.2032
 Red. masses --      2.0531                 3.3997                 4.3631
 Frc consts  --      0.3531                 0.6423                 0.8654
 IR Inten    --      7.2988                 9.7364                 5.6981

                     22                     23                     24
                      A                      A                      A
 Frequencies --    614.0285               691.8980               705.5259
 Red. masses --      5.5095                 1.3054                 4.6965
 Frc consts  --      1.2239                 0.3682                 1.3774
 IR Inten    --      3.0864                44.8840                 7.7940

                     25                     26                     27
                      A                      A                      A
 Frequencies --    715.6602               738.6821               778.4222
 Red. masses --      2.3001                 5.5365                 6.4135
 Frc consts  --      0.6941                 1.7799                 2.2897
 IR Inten    --      2.9283                 3.5760                10.1100

                     28                     29                     30
                      A                      A                      A
 Frequencies --    800.0099               830.8665               834.6469
 Red. masses --      3.0659                 1.4448                 3.8143
 Frc consts  --      1.1561                 0.5876                 1.5655
 IR Inten    --     61.9973                26.0649                65.3146

                     31                     32                     33
                      A                      A                      A
 Frequencies --    853.4240               879.8791               901.6141
 Red. masses --      2.7739                 2.9134                 2.3636
 Frc consts  --      1.1903                 1.3289                 1.1320
 IR Inten    --     14.2856                 6.7444                16.6689

                     34                     35                     36
                      A                      A                      A
 Frequencies --    918.7592               925.7051               955.5913
 Red. masses --      2.8915                 2.0902                 1.3726
 Frc consts  --      1.4381                 1.0553                 0.7385
 IR Inten    --     37.7877                 8.5126                 1.3294

                     37                     38                     39
                      A                      A                      A
 Frequencies --    978.5074               992.0066              1043.3608
 Red. masses --      1.7960                 1.4257                 2.4762
 Frc consts  --      1.0132                 0.8266                 1.5882
 IR Inten    --      3.5045                 0.7230                 8.6678

                     40                     41                     42
                      A                      A                      A
 Frequencies --   1074.1795              1081.9876              1086.5930
 Red. masses --      2.5311                 2.3685                 2.1639
 Frc consts  --      1.7207                 1.6337                 1.5053
 IR Inten    --     14.2390                 5.6505                 5.2291

                     43                     44                     45
                      A                      A                      A
 Frequencies --   1131.5676              1155.3740              1157.0525
 Red. masses --      5.4057                 2.9972                 3.8484
 Frc consts  --      4.0782                 2.3573                 3.0355
 IR Inten    --     22.2991                34.6635                60.0301

                     46                     47                     48
                      A                      A                      A
 Frequencies --   1164.9309              1189.3868              1234.9516
 Red. masses --      2.8285                 2.3495                 1.5708
 Frc consts  --      2.2615                 1.9583                 1.4114
 IR Inten    --     30.7968                 8.3289                31.1585

                     49                     50                     51
                      A                      A                      A
 Frequencies --   1251.1349              1268.9162              1284.6577
 Red. masses --      1.1737                 1.1892                 2.1823
 Frc consts  --      1.0825                 1.1282                 2.1219
 IR Inten    --      2.8936                21.0053                36.8241

                     52                     53                     54
                      A                      A                      A
 Frequencies --   1303.1860              1326.4660              1332.7316
 Red. masses --      1.2543                 1.6259                 1.5386
 Frc consts  --      1.2551                 1.6856                 1.6101
 IR Inten    --      9.4981                50.6390                31.1560

                     55                     56                     57
                      A                      A                      A
 Frequencies --   1345.8547              1377.7841              1386.1166
 Red. masses --      1.3006                 1.4512                 1.5010
 Frc consts  --      1.3880                 1.6230                 1.6992
 IR Inten    --      3.6829                22.9548                24.1742

                     58                     59                     60
                      A                      A                      A
 Frequencies --   1393.9304              1407.0627              1411.1745
 Red. masses --      3.4682                 1.6388                 1.5168
 Frc consts  --      3.9704                 1.9117                 1.7797
 IR Inten    --    145.8590                36.0170                28.3566

                     61                     62                     63
                      A                      A                      A
 Frequencies --   1419.5173              1439.5055              1455.3082
 Red. masses --      1.6194                 1.3666                 2.0479
 Frc consts  --      1.9226                 1.6685                 2.5554
 IR Inten    --      1.4084                17.8061                 5.3800

                     64                     65                     66
                      A                      A                      A
 Frequencies --   1499.6954              1509.1434              1515.6540
 Red. masses --      1.2365                 1.1398                 1.1870
 Frc consts  --      1.6385                 1.5295                 1.6066
 IR Inten    --      5.7943                 2.8615                 8.7616

                     67                     68                     69
                      A                      A                      A
 Frequencies --   1519.5100              1523.6460              1542.0713
 Red. masses --      1.5405                 1.1059                 1.1038
 Frc consts  --      2.0957                 1.5127                 1.5465
 IR Inten    --      8.4647                 5.6791                67.6269

                     70                     71                     72
                      A                      A                      A
 Frequencies --   1574.6544              1604.8379              1614.4119
 Red. masses --      4.9291                 3.4153                 6.8789
 Frc consts  --      7.2010                 5.1825                10.5632
 IR Inten    --    176.9648               148.9963               139.8033

                     73                     74                     75
                      A                      A                      A
 Frequencies --   1667.6438              2970.0198              2981.5932
 Red. masses --      6.9386                 1.0719                 1.0715
 Frc consts  --     11.3692                 5.5709                 5.6121
 IR Inten    --    546.0381                38.3460               105.4143

                     76                     77                     78
                      A                      A                      A
 Frequencies --   3059.1483              3066.0010              3072.4070
 Red. masses --      1.0861                 1.0601                 1.0635
 Frc consts  --      5.9883                 5.8716                 5.9147
 IR Inten    --     31.8246                27.2307                 6.9125

                     79                     80                     81
                      A                      A                      A
 Frequencies --   3103.7976              3109.6321              3114.6379
 Red. masses --      1.0926                 1.1002                 1.0988
 Frc consts  --      6.2018                 6.2684                 6.2801
 IR Inten    --     30.6822                46.2421                20.5953

                     82                     83                     84
                      A                      A                      A
 Frequencies --   3121.0280              3178.8110              3198.6388
 Red. masses --      1.1019                 1.0874                 1.0947
 Frc consts  --      6.3237                 6.4741                 6.5991
 IR Inten    --     16.0010                18.3853                20.9335

                     85                     86                     87
                      A                      A                      A
 Frequencies --   3211.4970              3491.9582              3501.1739
 Red. masses --      1.0913                 1.0745                 1.0760
 Frc consts  --      6.6313                 7.7199                 7.7715
 IR Inten    --      0.8572                 0.1432               225.6567

 - Thermochemistry -
 -------------------
 Temperature   298.150 Kelvin.  Pressure   1.00000 Atm.
 Atom     1 has atomic number  6 and mass  12.00000

 Molecular mass:   238.10659 amu.
 Principal axes and moments of inertia in atomic units:
                           1         2         3
     Eigenvalues --  1933.181036893.985098167.22504
           X            1.00000  -0.00000   0.00064
           Y            0.00001   0.99991  -0.01345
           Z           -0.00064   0.01345   0.99991
 This molecule is an asymmetric top.
 Rotational symmetry number  1.
 Warning -- assumption of classical behavior for rotation
           may cause significant error
 Rotational temperatures (Kelvin)      0.04480     0.01256     0.01061
 Rotational constants (GHZ):           0.93356     0.26178     0.22097
 Zero-point vibrational energy     668815.5 (Joules/Mol)
                                  159.85073 (Kcal/Mol)
 Warning -- explicit consideration of  22 degrees of freedom as
           vibrations may cause significant error
 Vibrational temperatures:     47.86    57.32    80.74   131.94   165.43
          (Kelvin)            192.76   270.02   312.29   321.35   372.62
                              384.42   459.17   522.86   561.04   586.56
                              638.02   707.48   721.38   777.39   814.75
                              834.78   883.45   995.49  1015.09  1029.68
                             1062.80  1119.98  1151.04  1195.43  1200.87
                             1227.89  1265.95  1297.22  1321.89  1331.88
                             1374.88  1407.85  1427.28  1501.16  1545.50
                             1556.74  1563.36  1628.07  1662.33  1664.74
                             1676.08  1711.26  1776.82  1800.10  1825.69
                             1848.34  1874.99  1908.49  1917.50  1936.38
                             1982.32  1994.31  2005.55  2024.45  2030.37
                             2042.37  2071.13  2093.86  2157.73  2171.32
                             2180.69  2186.24  2192.19  2218.70  2265.58
                             2309.00  2322.78  2399.37  4273.20  4289.85
                             4401.43  4411.29  4420.51  4465.67  4474.07
                             4481.27  4490.46  4573.60  4602.13  4620.63
                             5024.15  5037.41

 Zero-point correction=                           0.254738 (Hartree/Particle)
 Thermal correction to Energy=                    0.269142
 Thermal correction to Enthalpy=                  0.270086
 Thermal correction to Gibbs Free Energy=         0.211907
 Sum of electronic and zero-point Energies=           -833.847677
 Sum of electronic and thermal Energies=              -833.833273
 Sum of electronic and thermal Enthalpies=            -833.832329
 Sum of electronic and thermal Free Energies=         -833.890508

                     E (Thermal)             CV                S
                      KCal/Mol        Cal/Mol-Kelvin    Cal/Mol-Kelvin
 Total                  168.889             55.583            122.450
 Electronic               0.000              0.000              0.000
 Translational            0.889              2.981             42.304
 Rotational               0.889              2.981             33.054
 Vibrational            167.112             49.622             47.092
 Vibration     1          0.594              1.983              5.625
 Vibration     2          0.594              1.981              5.267
 Vibration     3          0.596              1.975              4.589
 Vibration     4          0.602              1.955              3.623
 Vibration     5          0.608              1.937              3.183
 Vibration     6          0.613              1.919              2.888
 Vibration     7          0.632              1.857              2.251
 Vibration     8          0.646              1.815              1.984
 Vibration     9          0.649              1.806              1.932
 Vibration    10          0.668              1.748              1.669
 Vibration    11          0.672              1.733              1.614
 Vibration    12          0.705              1.637              1.314
 Vibration    13          0.737              1.548              1.107
 Vibration    14          0.758              1.492              1.000
 Vibration    15          0.772              1.454              0.935
 Vibration    16          0.803              1.375              0.816
 Vibration    17          0.847              1.268              0.679
 Vibration    18          0.857              1.247              0.655
 Vibration    19          0.895              1.161              0.565
 Vibration    20          0.922              1.104              0.511
 Vibration    21          0.937              1.074              0.485
 Vibration    22          0.973              1.002              0.426

 Optimization completed.
    -- Stationary point found.
 Normal termination of Gaussian 16 at Fri Dec 11 13:34:04 2020.

 ----------------------------------------------------------------------
 # B3LYP/6-311++G(d,p) empiricaldispersion=gd3bj scf=xqc pop=npa geom=c
 heck
 ----------------------------------------------------------------------

 ---------------------------------------
 CID_113829160_JID_7730_Energie_neutraal
 ---------------------------------------
 Structure from the checkpoint file:  "JID_7730.chk"
 Charge =  0 Multiplicity = 1

 SCF Done:  E(RB3LYP) =  -834.342243487     A.U. after   16 cycles
 Normal termination of Gaussian 16 at Fri Dec 11 13:39:16 2020.

 ----------------------------------------------------------------------
 # B3LYP/6-311++G(d,p) empiricaldispersion=gd3bj scf=xqc pop=npa geom=c
 heck
 ----------------------------------------------------------------------

 -------------------------------------
 CID_113829160_JID_7730_Energie_kation
 -------------------------------------
 Structure from the checkpoint file:  "JID_7730.chk"
 Charge =  1 Multiplicity = 2

 SCF Done:  E(UB3LYP) =  -834.043377189     A.U. after   28 cycles
 Normal termination of Gaussian 16 at Fri Dec 11 13:52:09 2020.
 Gaussian 16:  ES64L-G16RevA.03 25-Dec-2016

 ----------------------------------------------------------------------
 # B3LYP/6-311++G(d,p) empiricaldispersion=gd3bj scf=xqc pop=npa geom=c
 heck
 ----------------------------------------------------------------------

 ------------------------------------
 CID_113829160_JID_7730_Energie_anion
 ------------------------------------
 Structure from the checkpoint file:  "JID_7730.chk"
 Charge = -1 Multiplicity = 2

                         Standard orientation:
 ---------------------------------------------------------------------
 Center     Atomic      Atomic             Coordinates (Angstroms)
 Number     Number       Type             X           Y           Z
 ---------------------------------------------------------------------
      1          6           0       -3.214410    1.063777   -1.021079
      2          6           0       -4.294386    0.026469   -0.717830
      3          8           0       -3.742780   -1.082468   -0.017628
      4          6           0       -3.168450   -0.682240    1.217331
      5          6           0       -2.044494    0.340918    1.006537
      6          7           0       -2.488841    1.488173    0.188812
      7          6           0       -0.821406   -0.323096    0.346979
      8          7           0        0.079276    0.719200   -0.109747
      9          6           0        1.431977    0.731740   -0.095133
     10          6           0        2.291576   -0.394910   -0.032101
     11          6           0        3.674430   -0.219644    0.127221
     12          7           0        4.281774    0.958279    0.166554
     13          6           0        3.478241    2.036586    0.037344
     14          6           0        2.106931    1.980617   -0.090777
     15          7           0        1.840875   -1.754084   -0.268803
     16          8           0        0.910872   -1.921994   -1.066131
     17          8           0        2.451839   -2.671051    0.286281
     18          1           0       -2.488670    0.635997   -1.721767
     19          1           0       -3.646848    1.951099   -1.496128
     20          1           0       -5.100381    0.484988   -0.117213
     21          1           0       -4.733492   -0.375396   -1.635755
     22          1           0       -2.793685   -1.594194    1.693172
     23          1           0       -3.943116   -0.243781    1.870149
     24          1           0       -1.739673    0.746803    1.979095
     25          1           0       -3.095024    2.079599    0.754866
     26          1           0       -0.323759   -0.956097    1.089531
     27          1           0       -1.130652   -0.976359   -0.473432
     28          1           0       -0.391017    1.619356   -0.172484
     29          1           0        4.294811   -1.108788    0.193920
     30          1           0        3.976987    3.003431    0.057574
     31          1           0        1.523432    2.895159   -0.150370
 ---------------------------------------------------------------------

 SCF Done:  E(UB3LYP) =  -834.367307717     A.U. after   29 cycles

 The electronic state is 2-A.
 Alpha  occ. eigenvalues --  -19.04729 -18.95144 -18.95129 -14.32749 -14.22754
 Alpha  occ. eigenvalues --  -14.21040 -14.17068 -10.13971 -10.13567 -10.11759
 Alpha  occ. eigenvalues --  -10.11717 -10.10697 -10.09127 -10.07252 -10.06965
 Alpha  occ. eigenvalues --  -10.06766 -10.04950  -1.03102  -0.96413  -0.85907
 Alpha  occ. eigenvalues --   -0.84417  -0.82098  -0.80186  -0.70501  -0.67463
 Alpha  occ. eigenvalues --   -0.64966  -0.61685  -0.58846  -0.56043  -0.54025
 Alpha  occ. eigenvalues --   -0.50713  -0.48756  -0.45315  -0.43122  -0.42585
 Alpha  occ. eigenvalues --   -0.40055  -0.39986  -0.38917  -0.37733  -0.36947
 Alpha  occ. eigenvalues --   -0.35870  -0.35076  -0.33891  -0.33222  -0.31786
 Alpha  occ. eigenvalues --   -0.31252  -0.30812  -0.30220  -0.28820  -0.28254
 Alpha  occ. eigenvalues --   -0.26719  -0.25991  -0.24547  -0.24062  -0.20940
 Alpha  occ. eigenvalues --   -0.19948  -0.14901  -0.14350  -0.14264  -0.13972
 Alpha  occ. eigenvalues --   -0.12113  -0.10888  -0.09433   0.03099
 Alpha virt. eigenvalues --    0.04542   0.06809   0.07504   0.08462   0.09202
 Alpha virt. eigenvalues --    0.09907   0.10585   0.10833   0.11057   0.11640
 Alpha virt. eigenvalues --    0.12259   0.12441   0.12900   0.13565   0.15160

  Beta  occ. eigenvalues --  -19.04728 -18.94701 -18.94686 -14.32059 -14.22744
  Beta  occ. eigenvalues --  -14.20986 -14.17157 -10.13961 -10.13560 -10.11755
  Beta  occ. eigenvalues --  -10.11711 -10.10599 -10.09122 -10.07271 -10.06758
  Beta  occ. eigenvalues --  -10.06609 -10.04970  -1.02045  -0.96409  -0.85123
  Beta  occ. eigenvalues --   -0.84294  -0.82010  -0.80096  -0.70464  -0.67247
  Beta  occ. eigenvalues --   -0.64635  -0.61636  -0.58791  -0.55838  -0.53457
  Beta  occ. eigenvalues --   -0.50541  -0.48676  -0.44954  -0.43096  -0.42362
  Beta  occ. eigenvalues --   -0.39967  -0.39950  -0.38812  -0.37638  -0.36459
  Beta  occ. eigenvalues --   -0.35438  -0.33798  -0.33146  -0.32728  -0.31682
  Beta  occ. eigenvalues --   -0.30936  -0.30590  -0.29840  -0.28758  -0.28156
  Beta  occ. eigenvalues --   -0.26249  -0.25922  -0.24394  -0.23993  -0.20765
  Beta  occ. eigenvalues --   -0.19761  -0.14837  -0.14157  -0.13576  -0.11863
  Beta  occ. eigenvalues --   -0.11016  -0.10481  -0.09002
  Beta virt. eigenvalues --    0.04959   0.06858   0.07563   0.08484   0.09145
  Beta virt. eigenvalues --    0.09473   0.09906   0.10511   0.11031   0.11184
  Beta virt. eigenvalues --    0.11637   0.12256   0.12696   0.13485   0.14531

 Mulliken charges and spin densities:
               1          2
     1  C   -0.122924  -0.072318
     2  C   -0.150360  -0.217152
     3  O   -0.099365   0.005506
     4  C   -0.327064  -0.272341
     5  C   -0.281605   0.400214
     6  N   -0.191075  -0.043053
     7  C   -0.309000  -0.394523
     8  N    0.019799   0.023601
     9  C   -0.100972   0.122497
    10  C    0.109837  -0.041039
    11  C   -0.478554   0.121931
    12  N   -0.119843  -0.048627
    13  C   -0.626738   0.134451
    14  C    0.427255  -0.050149
    15  N   -0.302037   0.208678
    16  O   -0.122006   0.172858
    17  O   -0.148090   0.171051
    18  H    0.221718  -0.024652
    19  H   -0.020011   0.166088
    20  H   -0.002155   0.135949
    21  H    0.134111   0.034202
    22  H    0.192256  -0.004646
    23  H   -0.065528   0.189622
    24  H    0.151008   0.061380
    25  H    0.092257   0.181685
    26  H    0.140458   0.039740
    27  H    0.257756  -0.002245
    28  H    0.306576  -0.010862
    29  H    0.209422  -0.001120
    30  H    0.123883  -0.010430
    31  H    0.080992   0.023702
 Sum of Mulliken charges =  -1.00000   1.00000

 Dipole moment (field-independent basis, Debye):
    X=             -8.8410    Y=              5.6311    Z=              1.1473  Tot=             10.5446
 Quadrupole moment (field-independent basis, Debye-Ang):
   XX=           -163.0344   YY=           -134.8848   ZZ=           -110.3222
   XY=              5.1704   XZ=              0.2358   YZ=             -4.0005

 Summary of Natural Population Analysis:

                                       Natural Population
                Natural  -----------------------------------------------
    Atom  No    Charge         Core      Valence    Rydberg      Total
 -----------------------------------------------------------------------
      C    1   -0.10892      0.99963     2.09776    0.01154     3.10892
      C    2   -0.01992      0.99959     2.00719    0.01314     3.01992
      O    3   -0.29687      0.99989     3.28804    0.00894     4.29687
      C    4   -0.01819      0.99955     2.00464    0.01400     3.01819
      C    5   -0.02865      0.99959     2.01616    0.01290     3.02865
      N    6   -0.34868      0.99975     2.83489    0.01404     3.84868
      C    7   -0.09396      0.99959     2.08276    0.01161     3.09396
      N    8   -0.29685      0.99965     2.78722    0.00998     3.79685
      C    9    0.12848      0.99948     1.86153    0.01052     2.87152
      C   10   -0.01183      0.99939     1.99864    0.01380     3.01183
      C   11    0.06861      0.99957     1.91785    0.01396     2.93139
      N   12   -0.27647      0.99972     2.76436    0.01238     3.77647
      C   13    0.05981      0.99959     1.92590    0.01470     2.94019
      C   14   -0.15781      0.99954     2.15054    0.00773     3.15781
      N   15    0.31072      0.99971     2.16383    0.02575     3.18928
      O   16   -0.20079      0.99990     3.19220    0.00870     4.20079
      O   17   -0.19932      0.99990     3.19192    0.00749     4.19932
      H   18    0.10060      0.00000     0.39832    0.00109     0.39940
      H   19    0.09596      0.00000     0.40304    0.00100     0.40404
      H   20    0.07392      0.00000     0.42427    0.00181     0.42608
      H   21    0.09171      0.00000     0.40738    0.00092     0.40829
      H   22    0.09688      0.00000     0.40210    0.00102     0.40312
      H   23    0.07675      0.00000     0.42180    0.00144     0.42325
      H   24    0.09750      0.00000     0.40145    0.00105     0.40250
      H   25    0.17540      0.00000     0.32252    0.00207     0.32460
      H   26    0.10288      0.00000     0.39532    0.00179     0.39712
      H   27    0.11123      0.00000     0.38713    0.00164     0.38877
      H   28    0.19538      0.00000     0.30236    0.00226     0.30462
      H   29    0.09894      0.00000     0.39969    0.00137     0.40106
      H   30    0.07913      0.00000     0.41958    0.00129     0.42087
      H   31    0.09435      0.00000     0.40405    0.00159     0.40565
 =======================================================================
   * Total *   -0.00000     16.99404    45.77444    0.23152    63.00000

 Normal termination of Gaussian 16 at Fri Dec 11 14:05:17 2020.
