 Gaussian 16, Revision A.03,

 -----------------------------------------------------------
 # opt freq B3LYP/6-31G(d) empiricaldispersion=gd3bj scf=xqc
 -----------------------------------------------------------

 ------------------------------
 CID_80466996_JID_8433_neutraal
 ------------------------------
 Symbolic Z-matrix:
 Charge =  0 Multiplicity = 1

 SCF Done:  E(RB3LYP) =  -862.511833601     A.U. after   15 cycles
 SCF Done:  E(RB3LYP) =  -862.520168955     A.U. after   12 cycles
 SCF Done:  E(RB3LYP) =  -862.520604597     A.U. after   12 cycles
 SCF Done:  E(RB3LYP) =  -862.519605245     A.U. after   12 cycles
 SCF Done:  E(RB3LYP) =  -862.521392313     A.U. after   12 cycles
 SCF Done:  E(RB3LYP) =  -862.521920965     A.U. after   12 cycles
 SCF Done:  E(RB3LYP) =  -862.522195688     A.U. after   11 cycles
 SCF Done:  E(RB3LYP) =  -862.522525969     A.U. after   12 cycles
 SCF Done:  E(RB3LYP) =  -862.522665380     A.U. after   13 cycles
 SCF Done:  E(RB3LYP) =  -862.522718355     A.U. after   12 cycles
 SCF Done:  E(RB3LYP) =  -862.522809193     A.U. after   10 cycles
 SCF Done:  E(RB3LYP) =  -862.522810729     A.U. after    8 cycles
 SCF Done:  E(RB3LYP) =  -862.522811060     A.U. after    7 cycles
 SCF Done:  E(RB3LYP) =  -862.522811257     A.U. after    7 cycles
 SCF Done:  E(RB3LYP) =  -862.522811405     A.U. after    8 cycles
 SCF Done:  E(RB3LYP) =  -862.522811482     A.U. after    7 cycles
 Optimization completed.
    -- Stationary point found.
 Normal termination of Gaussian 16 at Fri Dec 11 20:49:10 2020.

 --------------------------------------------------------------------
 #N Geom=AllCheck Guess=TCheck SCRF=Check GenChk RB3LYP/6-31G(d) Freq
 --------------------------------------------------------------------

 Structure from the checkpoint file:  "JID_8433.chk"
 ------------------------------
 CID_80466996_JID_8433_neutraal
 ------------------------------
 Charge =  0 Multiplicity = 1

 SCF Done:  E(RB3LYP) =  -862.522811482     A.U. after    1 cycles

  Exact polarizability: 180.922   1.231 139.151   6.128  -3.474 115.296
 Approx polarizability: 211.650  -3.114 224.434  11.242 -12.124 182.942

                      1                      2                      3
                      A                      A                      A
 Frequencies --     26.7495                28.8632                32.3817
 Red. masses --      4.2117                 7.0746                 7.4131
 Frc consts  --      0.0018                 0.0035                 0.0046
 IR Inten    --      0.1008                 1.0899                 0.3172

                      4                      5                      6
                      A                      A                      A
 Frequencies --     45.6346                76.4371                82.8677
 Red. masses --      4.4127                 5.8258                 3.9363
 Frc consts  --      0.0054                 0.0201                 0.0159
 IR Inten    --      0.7139                 0.8506                 0.9226

                      7                      8                      9
                      A                      A                      A
 Frequencies --    107.6563               174.1329               195.2585
 Red. masses --      3.6742                 3.8692                 3.8186
 Frc consts  --      0.0251                 0.0691                 0.0858
 IR Inten    --      0.9820                 2.7560                 1.8273

                     10                     11                     12
                      A                      A                      A
 Frequencies --    219.0924               235.3309               286.4982
 Red. masses --      3.6324                 3.2618                 2.5728
 Frc consts  --      0.1027                 0.1064                 0.1244
 IR Inten    --      5.6925                 1.6401                 5.9122

                     13                     14                     15
                      A                      A                      A
 Frequencies --    323.3225               331.5931               341.2391
 Red. masses --      4.3589                 2.4853                 4.3018
 Frc consts  --      0.2685                 0.1610                 0.2951
 IR Inten    --      1.2478                 0.1338                 2.4648

                     16                     17                     18
                      A                      A                      A
 Frequencies --    369.6566               396.0510               412.4819
 Red. masses --      6.6498                 2.0666                 2.4085
 Frc consts  --      0.5354                 0.1910                 0.2414
 IR Inten    --      2.4707                 1.6241                 2.2600

                     19                     20                     21
                      A                      A                      A
 Frequencies --    459.7316               473.4786               524.0293
 Red. masses --      4.2262                 2.2577                 2.2389
 Frc consts  --      0.5263                 0.2982                 0.3622
 IR Inten    --      7.7167                 2.9985                 8.5082

                     22                     23                     24
                      A                      A                      A
 Frequencies --    528.8281               588.7376               623.6324
 Red. masses --      2.1478                 2.8618                 3.3763
 Frc consts  --      0.3539                 0.5844                 0.7737
 IR Inten    --     22.0339                37.3240                14.8726

                     25                     26                     27
                      A                      A                      A
 Frequencies --    634.7357               645.8360               685.5464
 Red. masses --      3.1766                 4.6738                 2.2518
 Frc consts  --      0.7541                 1.1486                 0.6235
 IR Inten    --      2.1867                30.9693                34.1291

                     28                     29                     30
                      A                      A                      A
 Frequencies --    687.6116               714.1663               768.4820
 Red. masses --      1.6585                 6.1140                 3.3875
 Frc consts  --      0.4620                 1.8373                 1.1787
 IR Inten    --     66.2041                 7.2496                12.3766

                     31                     32                     33
                      A                      A                      A
 Frequencies --    798.3520               827.2901               855.9748
 Red. masses --      2.4583                 1.4022                 2.8758
 Frc consts  --      0.9232                 0.5654                 1.2415
 IR Inten    --      4.3412                 9.9813                 5.7535

                     34                     35                     36
                      A                      A                      A
 Frequencies --    879.1059               889.3288               900.8692
 Red. masses --      2.3044                 3.0898                 1.7870
 Frc consts  --      1.0493                 1.4398                 0.8545
 IR Inten    --      1.3893                 3.5576                 5.9453

                     37                     38                     39
                      A                      A                      A
 Frequencies --    915.5791               917.4011               935.8100
 Red. masses --      2.1927                 1.6393                 2.8200
 Frc consts  --      1.0830                 0.8129                 1.4550
 IR Inten    --      1.4478                 0.1675                 2.7435

                     40                     41                     42
                      A                      A                      A
 Frequencies --    941.4667               993.9981              1008.8522
 Red. masses --      2.4193                 2.3816                 1.6690
 Frc consts  --      1.2634                 1.3864                 1.0009
 IR Inten    --      0.8634                 8.0160                 0.1985

                     43                     44                     45
                      A                      A                      A
 Frequencies --   1030.7573              1036.4055              1072.7796
 Red. masses --      2.6301                 1.7823                 1.5419
 Frc consts  --      1.6464                 1.1279                 1.0455
 IR Inten    --     42.6031                 3.8869                 4.2202

                     46                     47                     48
                      A                      A                      A
 Frequencies --   1073.0437              1088.4410              1094.7284
 Red. masses --      1.7214                 2.2305                 2.4727
 Frc consts  --      1.1678                 1.5569                 1.7460
 IR Inten    --      1.9432                42.4854                 4.4132

                     49                     50                     51
                      A                      A                      A
 Frequencies --   1102.4600              1115.1572              1120.4144
 Red. masses --      1.6651                 1.7244                 1.4051
 Frc consts  --      1.1924                 1.2634                 1.0393
 IR Inten    --      0.4749                35.9886                 1.6955

                     52                     53                     54
                      A                      A                      A
 Frequencies --   1140.3910              1144.6631              1145.5477
 Red. masses --      2.5105                 2.7821                 2.6675
 Frc consts  --      1.9236                 2.1477                 2.0624
 IR Inten    --    196.3953                88.2591                30.5556

                     55                     56                     57
                      A                      A                      A
 Frequencies --   1183.9315              1199.7734              1207.9718
 Red. masses --      2.3403                 1.2429                 1.5113
 Frc consts  --      1.9328                 1.0541                 1.2993
 IR Inten    --    180.1362                 0.5425                 9.0471

                     58                     59                     60
                      A                      A                      A
 Frequencies --   1225.7618              1237.5474              1247.0371
 Red. masses --      1.4029                 1.8086                 1.7623
 Frc consts  --      1.2419                 1.6320                 1.6147
 IR Inten    --      2.8159                 7.8492                13.4629

                     61                     62                     63
                      A                      A                      A
 Frequencies --   1278.4262              1290.7573              1305.6662
 Red. masses --      1.3705                 1.6526                 1.3967
 Frc consts  --      1.3197                 1.6222                 1.4029
 IR Inten    --      9.9432               164.1804                10.1411

                     64                     65                     66
                      A                      A                      A
 Frequencies --   1317.8218              1321.1353              1326.3305
 Red. masses --      1.3968                 1.4101                 1.3778
 Frc consts  --      1.4292                 1.4501                 1.4280
 IR Inten    --     18.1217                 2.0764                20.2407

                     67                     68                     69
                      A                      A                      A
 Frequencies --   1349.3722              1351.6502              1368.8751
 Red. masses --      1.2933                 1.3887                 1.7320
 Frc consts  --      1.3874                 1.4948                 1.9122
 IR Inten    --      9.3935                 1.1603                 3.4501

                     70                     71                     72
                      A                      A                      A
 Frequencies --   1370.8730              1385.6793              1404.5251
 Red. masses --      1.3420                 1.4491                 1.3280
 Frc consts  --      1.4859                 1.6394                 1.5435
 IR Inten    --      0.0116                 2.8400                16.1815

                     73                     74                     75
                      A                      A                      A
 Frequencies --   1414.7759              1420.7572              1436.7592
 Red. masses --      1.7582                 1.5363                 1.4766
 Frc consts  --      2.0734                 1.8271                 1.7960
 IR Inten    --      4.0223                41.7051                 8.5539

                     76                     77                     78
                      A                      A                      A
 Frequencies --   1448.8204              1465.6242              1490.2744
 Red. masses --      1.8982                 2.7667                 1.0890
 Frc consts  --      2.3476                 3.5015                 1.4250
 IR Inten    --     63.0365               157.4412                13.6024

                     79                     80                     81
                      A                      A                      A
 Frequencies --   1508.7434              1516.2789              1519.2567
 Red. masses --      1.0998                 1.1005                 1.2627
 Frc consts  --      1.4750                 1.4907                 1.7171
 IR Inten    --      2.6083                 8.4258                 1.5437

                     82                     83                     84
                      A                      A                      A
 Frequencies --   1521.2387              1546.5464              1551.9261
 Red. masses --      1.0989                 1.0946                 1.0851
 Frc consts  --      1.4983                 1.5425                 1.5398
 IR Inten    --      4.7271                 3.6564                 0.8455

                     85                     86                     87
                      A                      A                      A
 Frequencies --   1752.3410              1844.7682              2992.0740
 Red. masses --     10.2421                 9.6120                 1.0711
 Frc consts  --     18.5300                19.2728                 5.6497
 IR Inten    --    261.7609               239.8011                38.9485

                     88                     89                     90
                      A                      A                      A
 Frequencies --   3003.9805              3013.1654              3027.7007
 Red. masses --      1.0727                 1.0738                 1.0836
 Frc consts  --      5.7032                 5.7439                 5.8525
 IR Inten    --     16.3847                51.2560                50.1224

                     91                     92                     93
                      A                      A                      A
 Frequencies --   3067.9773              3068.7561              3069.7360
 Red. masses --      1.0617                 1.0615                 1.0641
 Frc consts  --      5.8877                 5.8896                 5.9079
 IR Inten    --     57.4938                 8.6654                 8.9206

                     94                     95                     96
                      A                      A                      A
 Frequencies --   3097.5619              3103.3067              3107.1148
 Red. masses --      1.0977                 1.1015                 1.1006
 Frc consts  --      6.2054                 6.2501                 6.2603
 IR Inten    --     35.8834                 0.7617                 7.5100

                     97                     98                     99
                      A                      A                      A
 Frequencies --   3113.3913              3125.3456              3138.5584
 Red. masses --      1.0948                 1.0882                 1.0566
 Frc consts  --      6.2526                 6.2628                 6.1324
 IR Inten    --     40.3862                24.0071                25.2777

                    100                    101                    102
                      A                      A                      A
 Frequencies --   3172.9834              3181.1117              3181.9439
 Red. masses --      1.0888                 1.0940                 1.0904
 Frc consts  --      6.4583                 6.5228                 6.5046
 IR Inten    --     16.4981                16.4848                 6.2194

                    103                    104                    105
                      A                      A                      A
 Frequencies --   3191.5526              3220.2063              3683.2051
 Red. masses --      1.0884                 1.1152                 1.0639
 Frc consts  --      6.5320                 6.8134                 8.5039
 IR Inten    --      9.9849                19.6099                51.4019

 - Thermochemistry -
 -------------------
 Temperature   298.150 Kelvin.  Pressure   1.00000 Atm.
 Atom     1 has atomic number  6 and mass  12.00000

 Molecular mass:   253.13141 amu.
 Principal axes and moments of inertia in atomic units:
                           1         2         3
     Eigenvalues --  1720.070579357.47661**********
           X            0.99999  -0.00168   0.00300
           Y            0.00167   0.99999   0.00344
           Z           -0.00300  -0.00344   0.99999
 This molecule is an asymmetric top.
 Rotational symmetry number  1.
 Warning -- assumption of classical behavior for rotation
           may cause significant error
 Rotational temperatures (Kelvin)      0.05035     0.00926     0.00844
 Rotational constants (GHZ):           1.04923     0.19287     0.17595
 Zero-point vibrational energy     833915.6 (Joules/Mol)
                                  199.31061 (Kcal/Mol)
 Warning -- explicit consideration of  23 degrees of freedom as
           vibrations may cause significant error
 Vibrational temperatures:     38.49    41.53    46.59    65.66   109.98
          (Kelvin)            119.23   154.89   250.54   280.93   315.23
                              338.59   412.21   465.19   477.09   490.97
                              531.85   569.83   593.47   661.45   681.23
                              753.96   760.87   847.06   897.27   913.24
                              929.21   986.35   989.32  1027.53  1105.67
                             1148.65  1190.29  1231.56  1264.84  1279.55
                             1296.15  1317.31  1319.94  1346.42  1354.56
                             1430.14  1451.51  1483.03  1491.16  1543.49
                             1543.87  1566.02  1575.07  1586.19  1604.46
                             1612.03  1640.77  1646.91  1648.19  1703.41
                             1726.21  1738.00  1763.60  1780.55  1794.21
                             1839.37  1857.11  1878.56  1896.05  1900.82
                             1908.29  1941.45  1944.72  1969.51  1972.38
                             1993.68  2020.80  2035.55  2044.15  2067.18
                             2084.53  2108.71  2144.17  2170.75  2181.59
                             2185.87  2188.72  2225.14  2232.88  2521.23
                             2654.21  4304.93  4322.06  4335.27  4356.19
                             4414.14  4415.26  4416.67  4456.70  4464.97
                             4470.45  4479.48  4496.68  4515.69  4565.22
                             4576.91  4578.11  4591.93  4633.16  5299.31

 Zero-point correction=                           0.317622 (Hartree/Particle)
 Thermal correction to Energy=                    0.334112
 Thermal correction to Enthalpy=                  0.335057
 Thermal correction to Gibbs Free Energy=         0.270947
 Sum of electronic and zero-point Energies=           -862.205190
 Sum of electronic and thermal Energies=              -862.188699
 Sum of electronic and thermal Enthalpies=            -862.187755
 Sum of electronic and thermal Free Energies=         -862.251864

                     E (Thermal)             CV                S
                      KCal/Mol        Cal/Mol-Kelvin    Cal/Mol-Kelvin
 Total                  209.659             63.376            134.929
 Electronic               0.000              0.000              0.000
 Translational            0.889              2.981             42.486
 Rotational               0.889              2.981             33.467
 Vibrational            207.881             57.414             58.976
 Vibration     1          0.593              1.984              6.057
 Vibration     2          0.593              1.984              5.906
 Vibration     3          0.594              1.983              5.678
 Vibration     4          0.595              1.979              4.998
 Vibration     5          0.599              1.965              3.980
 Vibration     6          0.600              1.961              3.822
 Vibration     7          0.606              1.943              3.311
 Vibration     8          0.627              1.874              2.390
 Vibration     9          0.636              1.846              2.177
 Vibration    10          0.647              1.812              1.967
 Vibration    11          0.655              1.787              1.838
 Vibration    12          0.684              1.699              1.495
 Vibration    13          0.708              1.629              1.293
 Vibration    14          0.714              1.612              1.252
 Vibration    15          0.721              1.593              1.206
 Vibration    16          0.742              1.535              1.081
 Vibration    17          0.763              1.479              0.977
 Vibration    18          0.776              1.443              0.918
 Vibration    19          0.818              1.339              0.767
 Vibration    20          0.830              1.309              0.728
 Vibration    21          0.879              1.197              0.601
 Vibration    22          0.884              1.186              0.590
 Vibration    23          0.946              1.056              0.469

 Optimization completed.
    -- Stationary point found.
 Normal termination of Gaussian 16 at Fri Dec 11 21:04:36 2020.

 ----------------------------------------------------------------------
 # B3LYP/6-311++G(d,p) empiricaldispersion=gd3bj scf=xqc pop=npa geom=c
 heck
 ----------------------------------------------------------------------

 --------------------------------------
 CID_80466996_JID_8433_Energie_neutraal
 --------------------------------------
 Structure from the checkpoint file:  "JID_8433.chk"
 Charge =  0 Multiplicity = 1

 SCF Done:  E(RB3LYP) =  -862.775596541     A.U. after   15 cycles
 Normal termination of Gaussian 16 at Fri Dec 11 21:10:32 2020.

 ----------------------------------------------------------------------
 # B3LYP/6-311++G(d,p) empiricaldispersion=gd3bj scf=xqc pop=npa geom=c
 heck
 ----------------------------------------------------------------------

 ------------------------------------
 CID_80466996_JID_8433_Energie_kation
 ------------------------------------
 Structure from the checkpoint file:  "JID_8433.chk"
 Charge =  1 Multiplicity = 2

 SCF Done:  E(UB3LYP) =  -862.465750623     A.U. after   28 cycles
 Normal termination of Gaussian 16 at Fri Dec 11 21:25:46 2020.
 Gaussian 16:  ES64L-G16RevA.03 25-Dec-2016

 ----------------------------------------------------------------------
 # B3LYP/6-311++G(d,p) empiricaldispersion=gd3bj scf=xqc pop=npa geom=c
 heck
 ----------------------------------------------------------------------

 -----------------------------------
 CID_80466996_JID_8433_Energie_anion
 -----------------------------------
 Structure from the checkpoint file:  "JID_8433.chk"
 Charge = -1 Multiplicity = 2

                         Standard orientation:
 ---------------------------------------------------------------------
 Center     Atomic      Atomic             Coordinates (Angstroms)
 Number     Number       Type             X           Y           Z
 ---------------------------------------------------------------------
      1          6           0        0.528647    1.338318   -0.576174
      2          6           0       -0.337563    2.236844    0.305457
      3          8           0       -1.714231    2.085644    0.002814
      4          6           0       -2.147954    0.736450    0.192810
      5          6           0       -1.340145   -0.219988   -0.685045
      6          7           0        0.088446   -0.044553   -0.438645
      7          6           0        0.871584   -1.170055   -0.272223
      8          8           0        0.376419   -2.292173   -0.303969
      9          6           0        2.369619   -1.006322   -0.020294
     10          6           0        3.179076   -0.383059   -1.199953
     11          6           0        4.324330    0.374778   -0.546709
     12          6           0        5.180893   -0.389659    0.431808
     13          6           0        4.061260    0.482097    0.943623
     14          6           0        2.744196   -0.206345    1.265408
     15          6           0       -3.633061    0.725845   -0.141263
     16          6           0       -4.322576   -0.549846    0.279471
     17          8           0       -3.843876   -1.425543    0.966124
     18          8           0       -5.589877   -0.605564   -0.196314
     19          1           0        0.420654    1.656563   -1.624664
     20          1           0        1.573576    1.451411   -0.297944
     21          1           0       -0.153203    1.995509    1.365512
     22          1           0       -0.095542    3.290095    0.135510
     23          1           0       -2.001595    0.450194    1.244986
     24          1           0       -1.561254   -0.009234   -1.743320
     25          1           0       -1.593014   -1.256433   -0.467154
     26          1           0        2.703893   -2.036201    0.111560
     27          1           0        3.525152   -1.170002   -1.879485
     28          1           0        2.571021    0.299727   -1.801027
     29          1           0        4.780130    1.195102   -1.094542
     30          1           0        6.197687   -0.040199    0.586091
     31          1           0        5.071976   -1.470805    0.490669
     32          1           0        4.323113    1.381296    1.494746
     33          1           0        1.981213    0.534674    1.523025
     34          1           0        2.818592   -0.882597    2.124533
     35          1           0       -4.120254    1.564643    0.370677
     36          1           0       -3.794564    0.889400   -1.212728
     37          1           0       -5.964007   -1.444525    0.133348
 ---------------------------------------------------------------------

 SCF Done:  E(UB3LYP) =  -862.766444496     A.U. after   32 cycles

 The electronic state is 2-A.
 Alpha  occ. eigenvalues --  -19.08975 -19.05075 -19.03783 -18.99846 -14.25866
 Alpha  occ. eigenvalues --  -10.23078 -10.18482 -10.14919 -10.13975 -10.12681
 Alpha  occ. eigenvalues --  -10.11570 -10.10951 -10.09970 -10.09149 -10.09127
 Alpha  occ. eigenvalues --  -10.09112 -10.09068 -10.08542  -1.03182  -0.97038
 Alpha  occ. eigenvalues --   -0.95066  -0.94319  -0.85131  -0.80063  -0.73230
 Alpha  occ. eigenvalues --   -0.69664  -0.67050  -0.63392  -0.63233  -0.58463
 Alpha  occ. eigenvalues --   -0.55882  -0.53696  -0.50416  -0.48938  -0.47337
 Alpha  occ. eigenvalues --   -0.46873  -0.43795  -0.43424  -0.41457  -0.41148
 Alpha  occ. eigenvalues --   -0.40026  -0.38933  -0.38397  -0.37885  -0.36866
 Alpha  occ. eigenvalues --   -0.36491  -0.35473  -0.35047  -0.33552  -0.32751
 Alpha  occ. eigenvalues --   -0.32225  -0.31712  -0.31033  -0.30076  -0.28965
 Alpha  occ. eigenvalues --   -0.27815  -0.27567  -0.26718  -0.25432  -0.25229
 Alpha  occ. eigenvalues --   -0.24838  -0.24078  -0.20828  -0.20266  -0.19751
 Alpha  occ. eigenvalues --   -0.19360  -0.16678  -0.15528   0.03662
 Alpha virt. eigenvalues --    0.04728   0.06395   0.06579   0.07185   0.07510
 Alpha virt. eigenvalues --    0.08190   0.08478   0.08960   0.09521   0.09870
 Alpha virt. eigenvalues --    0.10273   0.10505   0.11089   0.11602   0.12261

  Beta  occ. eigenvalues --  -19.08925 -19.05069 -19.03771 -18.99838 -14.25868
  Beta  occ. eigenvalues --  -10.23076 -10.18473 -10.14916 -10.13955 -10.12663
  Beta  occ. eigenvalues --  -10.11564 -10.10933 -10.09971 -10.09135 -10.09116
  Beta  occ. eigenvalues --  -10.09097 -10.09058 -10.08532  -1.03121  -0.97028
  Beta  occ. eigenvalues --   -0.95051  -0.94268  -0.85122  -0.80033  -0.73208
  Beta  occ. eigenvalues --   -0.69648  -0.67012  -0.63368  -0.63210  -0.58420
  Beta  occ. eigenvalues --   -0.55852  -0.53637  -0.50361  -0.48906  -0.47305
  Beta  occ. eigenvalues --   -0.46830  -0.43751  -0.43388  -0.41431  -0.41123
  Beta  occ. eigenvalues --   -0.40008  -0.38909  -0.38368  -0.37856  -0.36843
  Beta  occ. eigenvalues --   -0.36461  -0.35442  -0.35030  -0.33534  -0.32728
  Beta  occ. eigenvalues --   -0.32200  -0.31676  -0.30997  -0.30053  -0.28938
  Beta  occ. eigenvalues --   -0.27790  -0.27540  -0.26695  -0.25412  -0.25207
  Beta  occ. eigenvalues --   -0.24803  -0.24057  -0.20792  -0.20242  -0.19730
  Beta  occ. eigenvalues --   -0.19339  -0.16666  -0.15515
  Beta virt. eigenvalues --    0.05910   0.06186   0.06804   0.07018   0.07447
  Beta virt. eigenvalues --    0.07894   0.08528   0.08710   0.09293   0.09674
  Beta virt. eigenvalues --    0.10179   0.10535   0.10781   0.11122   0.11666

 Mulliken charges and spin densities:
               1          2
     1  C   -0.456617   0.213178
     2  C    0.786165  -1.034651
     3  O   -0.110643   0.030029
     4  C   -0.956542   0.619498
     5  C    0.041820  -0.380015
     6  N    0.093197   0.028145
     7  C   -0.445298   0.036077
     8  O   -0.298814  -0.001870
     9  C   -0.106446   0.003862
    10  C    0.155361  -0.501817
    11  C    0.298525  -0.253958
    12  C    0.030090  -0.609572
    13  C    0.197843  -0.132082
    14  C    0.100472  -0.432690
    15  C    0.899704  -1.044530
    16  C   -0.007687  -0.136438
    17  O   -0.254322  -0.002837
    18  O   -0.170923   0.032335
    19  H   -0.098697   0.274680
    20  H    0.264946  -0.082467
    21  H    0.028777   0.115016
    22  H   -0.407176   0.620655
    23  H    0.201924   0.017674
    24  H    0.046697   0.137957
    25  H    0.236771   0.015733
    26  H    0.299300  -0.031203
    27  H    0.067114   0.098435
    28  H    0.025626   0.139292
    29  H   -0.710904   0.955746
    30  H   -0.124876   0.296744
    31  H    0.050734   0.082394
    32  H   -0.682091   0.926178
    33  H    0.210820  -0.104247
    34  H    0.107975   0.061199
    35  H   -0.065925   0.279271
    36  H    0.154593   0.068780
    37  H   -0.401495   0.695498
 Sum of Mulliken charges =  -1.00000   1.00000

 Dipole moment (field-independent basis, Debye):
    X=              0.0942    Y=             -1.6438    Z=             -0.0488  Tot=              1.6472
 Quadrupole moment (field-independent basis, Debye-Ang):
   XX=           -232.9634   YY=           -163.5051   ZZ=           -135.6506
   XY=            -29.4660   XZ=              1.9079   YZ=              1.9734

 Summary of Natural Population Analysis:

                                       Natural Population
                Natural  -----------------------------------------------
    Atom  No    Charge         Core      Valence    Rydberg      Total
 -----------------------------------------------------------------------
      C    1   -0.10257      0.99960     2.09204    0.01093     3.10257
      C    2   -0.01198      0.99957     1.99938    0.01303     3.01198
      O    3   -0.30110      0.99988     3.29218    0.00904     4.30110
      C    4    0.06117      0.99954     1.92534    0.01396     2.93883
      C    5   -0.10195      0.99958     2.09295    0.00942     3.10195
      N    6   -0.25919      0.99963     2.74982    0.00973     3.75919
      C    7    0.35550      0.99960     1.62194    0.02296     2.64450
      O    8   -0.32150      0.99988     3.31679    0.00483     4.32150
      C    9   -0.15153      0.99956     2.14116    0.01081     3.15153
      C   10   -0.18691      0.99961     2.17921    0.00809     3.18691
      C   11   -0.11275      0.99959     2.10135    0.01181     3.11275
      C   12   -0.19996      0.99960     2.19089    0.00948     3.19996
      C   13   -0.11333      0.99959     2.10201    0.01173     3.11333
      C   14   -0.18701      0.99961     2.17951    0.00789     3.18701
      C   15   -0.24852      0.99955     2.23879    0.01017     3.24852
      C   16    0.40688      0.99972     1.56818    0.02522     2.59312
      O   17   -0.30286      0.99987     3.29694    0.00605     4.30286
      O   18   -0.34309      0.99988     3.33672    0.00649     4.34309
      H   19    0.09555      0.00000     0.40296    0.00149     0.40445
      H   20    0.11088      0.00000     0.38669    0.00243     0.38912
      H   21    0.07943      0.00000     0.41906    0.00152     0.42057
      H   22    0.09752      0.00000     0.40106    0.00143     0.40248
      H   23    0.09068      0.00000     0.40765    0.00167     0.40932
      H   24    0.09061      0.00000     0.40816    0.00123     0.40939
      H   25    0.12884      0.00000     0.36979    0.00137     0.37116
      H   26    0.11238      0.00000     0.38642    0.00120     0.38762
      H   27    0.10124      0.00000     0.39777    0.00099     0.39876
      H   28    0.10208      0.00000     0.39648    0.00144     0.39792
      H   29    0.11051      0.00000     0.38678    0.00272     0.38949
      H   30    0.10677      0.00000     0.39232    0.00091     0.39323
      H   31    0.09714      0.00000     0.40185    0.00102     0.40286
      H   32    0.11054      0.00000     0.38702    0.00244     0.38946
      H   33    0.10049      0.00000     0.39792    0.00159     0.39951
      H   34    0.10150      0.00000     0.39755    0.00096     0.39850
      H   35    0.12366      0.00000     0.37506    0.00128     0.37634
      H   36    0.11632      0.00000     0.38249    0.00119     0.38368
      H   37    0.24458      0.00000     0.24006    0.01536     0.25542
 =======================================================================
   * Total *   -0.00000     17.99387    49.76228    0.24385    68.00000

 Normal termination of Gaussian 16 at Fri Dec 11 21:42:35 2020.
