 Gaussian 16, Revision A.03,

 -----------------------------------------------------------
 # opt freq B3LYP/6-31G(d) empiricaldispersion=gd3bj scf=xqc
 -----------------------------------------------------------

 ------------------------------
 CID_15750549_JID_3651_neutraal
 ------------------------------
 Symbolic Z-matrix:
 Charge =  0 Multiplicity = 1

 SCF Done:  E(RB3LYP) =  -964.011429415     A.U. after   16 cycles
 SCF Done:  E(RB3LYP) =  -964.018638399     A.U. after   13 cycles
 SCF Done:  E(RB3LYP) =  -964.019859639     A.U. after   13 cycles
 SCF Done:  E(RB3LYP) =  -964.020532320     A.U. after   13 cycles
 SCF Done:  E(RB3LYP) =  -964.020351922     A.U. after   13 cycles
 SCF Done:  E(RB3LYP) =  -964.021217950     A.U. after   12 cycles
 SCF Done:  E(RB3LYP) =  -964.021371253     A.U. after   12 cycles
 SCF Done:  E(RB3LYP) =  -964.021424676     A.U. after   11 cycles
 SCF Done:  E(RB3LYP) =  -964.021454998     A.U. after   10 cycles
 SCF Done:  E(RB3LYP) =  -964.021478321     A.U. after   11 cycles
 SCF Done:  E(RB3LYP) =  -964.021483973     A.U. after    8 cycles
 SCF Done:  E(RB3LYP) =  -964.021484529     A.U. after    8 cycles
 SCF Done:  E(RB3LYP) =  -964.021485098     A.U. after    8 cycles
 SCF Done:  E(RB3LYP) =  -964.021485317     A.U. after    8 cycles
 SCF Done:  E(RB3LYP) =  -964.021485395     A.U. after    7 cycles
 Optimization completed.
    -- Stationary point found.
 Normal termination of Gaussian 16 at Wed Dec  9 23:54:37 2020.

 --------------------------------------------------------------------
 #N Geom=AllCheck Guess=TCheck SCRF=Check GenChk RB3LYP/6-31G(d) Freq
 --------------------------------------------------------------------

 Structure from the checkpoint file:  "JID_3651.chk"
 ------------------------------
 CID_15750549_JID_3651_neutraal
 ------------------------------
 Charge =  0 Multiplicity = 1

 SCF Done:  E(RB3LYP) =  -964.021485395     A.U. after    1 cycles

  Exact polarizability: 173.507  -3.101 135.324  -0.753   0.077  56.448
 Approx polarizability: 277.217 -23.059 234.889  -2.916   3.737  90.427

                      1                      2                      3
                      A                      A                      A
 Frequencies --     49.9581                91.2158               116.1284
 Red. masses --      6.7010                 3.0268                 1.8572
 Frc consts  --      0.0099                 0.0148                 0.0148
 IR Inten    --      3.8044                 0.7301                 4.6629

                      4                      5                      6
                      A                      A                      A
 Frequencies --    128.2222               130.7559               162.9769
 Red. masses --      2.3635                 3.4655                 3.6253
 Frc consts  --      0.0229                 0.0349                 0.0567
 IR Inten    --      2.8881                 2.8903                 5.8710

                      7                      8                      9
                      A                      A                      A
 Frequencies --    251.1798               268.8155               270.4123
 Red. masses --      4.0013                 6.3324                 4.2452
 Frc consts  --      0.1487                 0.2696                 0.1829
 IR Inten    --      3.7929                 0.7112                 3.6061

                     10                     11                     12
                      A                      A                      A
 Frequencies --    337.1136               366.9328               375.2129
 Red. masses --      1.5115                 4.4779                 2.6547
 Frc consts  --      0.1012                 0.3552                 0.2202
 IR Inten    --     23.5142                 0.9003                13.5609

                     13                     14                     15
                      A                      A                      A
 Frequencies --    475.0486               516.6835               524.8748
 Red. masses --      7.0410                 4.4522                 1.5420
 Frc consts  --      0.9362                 0.7003                 0.2503
 IR Inten    --      2.4883                30.4400                63.8041

                     16                     17                     18
                      A                      A                      A
 Frequencies --    544.1249               573.4816               620.4501
 Red. masses --      8.8305                 2.5076                 4.4528
 Frc consts  --      1.5404                 0.4859                 1.0099
 IR Inten    --      2.8921                 5.6770                31.3789

                     19                     20                     21
                      A                      A                      A
 Frequencies --    625.1586               652.0015               689.3444
 Red. masses --      3.8435                 2.0533                 3.3383
 Frc consts  --      0.8850                 0.5143                 0.9346
 IR Inten    --     25.6265                50.7430                44.5145

                     22                     23                     24
                      A                      A                      A
 Frequencies --    691.7780               762.0550               791.1938
 Red. masses --      4.7262                 6.0657                 5.0443
 Frc consts  --      1.3326                 2.0754                 1.8604
 IR Inten    --     70.5699                45.9780                 3.5014

                     25                     26                     27
                      A                      A                      A
 Frequencies --    809.9932               855.8281               923.4745
 Red. masses --      5.1728                 6.7262                 1.8504
 Frc consts  --      1.9996                 2.9026                 0.9298
 IR Inten    --     16.3113                 3.6527                 9.3903

                     28                     29                     30
                      A                      A                      A
 Frequencies --    946.5934              1018.4550              1065.8209
 Red. masses --      6.8926                 1.6236                 3.5329
 Frc consts  --      3.6388                 0.9922                 2.3646
 IR Inten    --     59.0831                24.8487                17.0392

                     31                     32                     33
                      A                      A                      A
 Frequencies --   1070.4500              1114.0268              1136.3069
 Red. masses --      1.5478                 2.2742                 1.1586
 Frc consts  --      1.0450                 1.6629                 0.8814
 IR Inten    --      4.4997                28.4196                 0.9653

                     34                     35                     36
                      A                      A                      A
 Frequencies --   1190.8953              1200.3861              1232.5820
 Red. masses --      4.5190                 4.4637                 1.3758
 Frc consts  --      3.7761                 3.7895                 1.2315
 IR Inten    --    188.7061               232.9088                17.0322

                     37                     38                     39
                      A                      A                      A
 Frequencies --   1314.4811              1361.8513              1440.9166
 Red. masses --      2.5213                 2.6843                 1.7102
 Frc consts  --      2.5668                 2.9332                 2.0920
 IR Inten    --     63.2731                16.4232                36.8351

                     40                     41                     42
                      A                      A                      A
 Frequencies --   1464.8774              1476.0362              1490.9184
 Red. masses --      2.2261                 1.0873                 1.0449
 Frc consts  --      2.8145                 1.3957                 1.3685
 IR Inten    --     22.6261                 6.0829                 7.6558

                     43                     44                     45
                      A                      A                      A
 Frequencies --   1496.2156              1533.8521              1581.7927
 Red. masses --      1.4503                 2.7112                 3.7292
 Frc consts  --      1.9130                 3.7581                 5.4975
 IR Inten    --     11.5897                18.8534                57.9043

                     46                     47                     48
                      A                      A                      A
 Frequencies --   1594.7931              1613.2544              1684.7348
 Red. masses --      9.3505                 4.2354                 1.3224
 Frc consts  --     14.0118                 6.4946                 2.2114
 IR Inten    --    784.6874               273.2455               159.6392

                     49                     50                     51
                      A                      A                      A
 Frequencies --   1827.8995              3063.7432              3104.3157
 Red. masses --     12.8900                 1.0372                 1.0576
 Frc consts  --     25.3751                 5.7362                 6.0051
 IR Inten    --    296.7229                18.7525                 6.3100

                     52                     53                     54
                      A                      A                      A
 Frequencies --   3138.8051              3140.4980              3158.9144
 Red. masses --      1.1012                 1.1013                 1.1079
 Frc consts  --      6.3922                 6.3997                 6.5136
 IR Inten    --      8.8065                12.1021                 0.2300

                     55                     56                     57
                      A                      A                      A
 Frequencies --   3535.9293              3636.7184              3659.0526
 Red. masses --      1.0477                 1.0983                 1.0813
 Frc consts  --      7.7180                 8.5584                 8.5295
 IR Inten    --     18.2904                24.6347               113.4980

 - Thermochemistry -
 -------------------
 Temperature   298.150 Kelvin.  Pressure   1.00000 Atm.
 Atom     1 has atomic number  6 and mass  12.00000

 Molecular mass:   196.04188 amu.
 Principal axes and moments of inertia in atomic units:
                           1         2         3
     Eigenvalues --  1469.550433321.822474756.44028
           X            0.99965   0.02631   0.00074
           Y           -0.02630   0.99962  -0.00813
           Z           -0.00096   0.00810   0.99997
 This molecule is an asymmetric top.
 Rotational symmetry number  1.
 Warning -- assumption of classical behavior for rotation
           may cause significant error
 Rotational temperatures (Kelvin)      0.05894     0.02607     0.01821
 Rotational constants (GHZ):           1.22809     0.54330     0.37943
 Zero-point vibrational energy     412110.7 (Joules/Mol)
                                   98.49682 (Kcal/Mol)
 Warning -- explicit consideration of  18 degrees of freedom as
           vibrations may cause significant error
 Vibrational temperatures:     71.88   131.24   167.08   184.48   188.13
          (Kelvin)            234.49   361.39   386.77   389.06   485.03
                              527.93   539.85   683.49   743.39   755.18
                              782.87   825.11   892.69   899.46   938.08
                              991.81   995.31  1096.43  1138.35  1165.40
                             1231.35  1328.67  1361.94  1465.33  1533.48
                             1540.14  1602.84  1634.89  1713.43  1727.09
                             1773.41  1891.25  1959.40  2073.16  2107.63
                             2123.69  2145.10  2152.72  2206.87  2275.85
                             2294.55  2321.11  2423.96  2629.94  4408.04
                             4466.42  4516.04  4518.48  4544.97  5087.41
                             5232.43  5264.56

 Zero-point correction=                           0.156965 (Hartree/Particle)
 Thermal correction to Energy=                    0.168872
 Thermal correction to Enthalpy=                  0.169816
 Thermal correction to Gibbs Free Energy=         0.118464
 Sum of electronic and zero-point Energies=           -963.864521
 Sum of electronic and thermal Energies=              -963.852613
 Sum of electronic and thermal Enthalpies=            -963.851669
 Sum of electronic and thermal Free Energies=         -963.903022

                     E (Thermal)             CV                S
                      KCal/Mol        Cal/Mol-Kelvin    Cal/Mol-Kelvin
 Total                  105.969             44.531            108.080
 Electronic               0.000              0.000              0.000
 Translational            0.889              2.981             41.725
 Rotational               0.889              2.981             31.518
 Vibrational            104.191             38.569             34.837
 Vibration     1          0.595              1.978              4.819
 Vibration     2          0.602              1.955              3.634
 Vibration     3          0.608              1.936              3.164
 Vibration     4          0.611              1.925              2.973
 Vibration     5          0.612              1.923              2.935
 Vibration     6          0.623              1.888              2.515
 Vibration     7          0.663              1.761              1.722
 Vibration     8          0.673              1.731              1.604
 Vibration     9          0.674              1.728              1.594
 Vibration    10          0.718              1.601              1.226
 Vibration    11          0.740              1.540              1.093
 Vibration    12          0.746              1.523              1.058
 Vibration    13          0.832              1.305              0.724
 Vibration    14          0.872              1.213              0.618
 Vibration    15          0.880              1.195              0.599
 Vibration    16          0.899              1.153              0.556
 Vibration    17          0.930              1.089              0.498
 Vibration    18          0.981              0.989              0.416

 Optimization completed.
    -- Stationary point found.
 Normal termination of Gaussian 16 at Wed Dec  9 23:59:48 2020.

 ----------------------------------------------------------------------
 # B3LYP/6-311++G(d,p) empiricaldispersion=gd3bj scf=xqc pop=npa geom=c
 heck
 ----------------------------------------------------------------------

 --------------------------------------
 CID_15750549_JID_3651_Energie_neutraal
 --------------------------------------
 Structure from the checkpoint file:  "JID_3651.chk"
 Charge =  0 Multiplicity = 1

 SCF Done:  E(RB3LYP) =  -964.211281364     A.U. after   16 cycles
 Normal termination of Gaussian 16 at Thu Dec 10 00:02:12 2020.

 ----------------------------------------------------------------------
 # B3LYP/6-311++G(d,p) empiricaldispersion=gd3bj scf=xqc pop=npa geom=c
 heck
 ----------------------------------------------------------------------

 ------------------------------------
 CID_15750549_JID_3651_Energie_kation
 ------------------------------------
 Structure from the checkpoint file:  "JID_3651.chk"
 Charge =  1 Multiplicity = 2

 SCF Done:  E(UB3LYP) =  -963.902666432     A.U. after   33 cycles
 SCF Done:  E(UB3LYP) =  -963.902666432     a.u. after    1 cycles
 Normal termination of Gaussian 16 at Thu Dec 10 00:09:18 2020.
 Gaussian 16:  ES64L-G16RevA.03 25-Dec-2016

 ----------------------------------------------------------------------
 # B3LYP/6-311++G(d,p) empiricaldispersion=gd3bj scf=xqc pop=npa geom=c
 heck
 ----------------------------------------------------------------------

 -----------------------------------
 CID_15750549_JID_3651_Energie_anion
 -----------------------------------
 Structure from the checkpoint file:  "JID_3651.chk"
 Charge = -1 Multiplicity = 2

                         Standard orientation:
 ---------------------------------------------------------------------
 Center     Atomic      Atomic             Coordinates (Angstroms)
 Number     Number       Type             X           Y           Z
 ---------------------------------------------------------------------
      1          6           0        1.232159    2.683636   -0.078274
      2          6           0        1.672328    1.261845   -0.028491
      3          6           0        0.939570    0.059631    0.016784
      4          6           0        1.943022   -0.971321    0.054715
      5          7           0        3.168653   -0.461237    0.031596
      6          7           0        2.960832    0.891796   -0.032866
      7          7           0        1.749590   -2.341041    0.055886
      8          6           0       -0.487269   -0.028437    0.003275
      9          7           0       -1.259366    1.015643    0.087720
     10          6           0       -2.619103    0.706974    0.062757
     11          8           0       -3.519069    1.516662    0.110000
     12          6           0       -2.900949   -0.816063   -0.020538
     13         16           0       -1.287256   -1.637891   -0.152866
     14          1           0        0.562626    2.849096   -0.926959
     15          1           0        2.092849    3.355869   -0.160295
     16          1           0        0.657200    2.940206    0.816031
     17          1           0        3.765709    1.499737   -0.068758
     18          1           0        0.996081   -2.667502    0.649737
     19          1           0        2.611931   -2.849205    0.219738
     20          1           0       -3.517832   -1.028148   -0.896375
     21          1           0       -3.436432   -1.140819    0.875010
 ---------------------------------------------------------------------

 SCF Done:  E(UB3LYP) =  -964.226980507     A.U. after   23 cycles

 The electronic state is 2-A.
 Alpha  occ. eigenvalues --  -88.70194 -18.92125 -14.24649 -14.19784 -14.19110
 Alpha  occ. eigenvalues --  -14.12652 -10.09581 -10.09170 -10.07034 -10.05961
 Alpha  occ. eigenvalues --  -10.05735 -10.05169 -10.03092  -7.78882  -5.75213
 Alpha  occ. eigenvalues --   -5.74891  -5.74352  -0.91249  -0.87210  -0.79681
 Alpha  occ. eigenvalues --   -0.76922  -0.68976  -0.65288  -0.63290  -0.59039
 Alpha  occ. eigenvalues --   -0.54852  -0.48446  -0.47242  -0.44019  -0.38917
 Alpha  occ. eigenvalues --   -0.36960  -0.35605  -0.34753  -0.32762  -0.31982
 Alpha  occ. eigenvalues --   -0.31719  -0.28718  -0.27967  -0.27354  -0.25875
 Alpha  occ. eigenvalues --   -0.23391  -0.22899  -0.21931  -0.20792  -0.19393
 Alpha  occ. eigenvalues --   -0.17278  -0.11365  -0.10493  -0.09759  -0.09107
 Alpha  occ. eigenvalues --   -0.08680   0.04518
 Alpha virt. eigenvalues --    0.08081   0.09060   0.10235   0.11041   0.12539
 Alpha virt. eigenvalues --    0.13179   0.13438   0.13693   0.14675   0.14924
 Alpha virt. eigenvalues --    0.16040   0.16577   0.16815   0.17311   0.18117

  Beta  occ. eigenvalues --  -88.70172 -18.91779 -14.24534 -14.19767 -14.19209
  Beta  occ. eigenvalues --  -14.12620 -10.09451 -10.08941 -10.06637 -10.05988
  Beta  occ. eigenvalues --  -10.05197 -10.05004 -10.03236  -7.78862  -5.75211
  Beta  occ. eigenvalues --   -5.74894  -5.74258  -0.91082  -0.86587  -0.79564
  Beta  occ. eigenvalues --   -0.76296  -0.68763  -0.65011  -0.63160  -0.58846
  Beta  occ. eigenvalues --   -0.54233  -0.48176  -0.47058  -0.43720  -0.38669
  Beta  occ. eigenvalues --   -0.36472  -0.35391  -0.34634  -0.32108  -0.31639
  Beta  occ. eigenvalues --   -0.31227  -0.28549  -0.27780  -0.27078  -0.25651
  Beta  occ. eigenvalues --   -0.22880  -0.21662  -0.21525  -0.20235  -0.17452
  Beta  occ. eigenvalues --   -0.17261  -0.11193  -0.09847  -0.09335  -0.08819
  Beta  occ. eigenvalues --   -0.07807
  Beta virt. eigenvalues --    0.08073   0.09058   0.10236   0.11040   0.11598
  Beta virt. eigenvalues --    0.12713   0.13199   0.13501   0.13968   0.14853
  Beta virt. eigenvalues --    0.15509   0.16243   0.16581   0.17062   0.17426

 Mulliken charges and spin densities:
               1          2
     1  C   -0.768432  -0.018973
     2  C   -0.095299   0.241282
     3  C    0.415525  -0.097783
     4  C   -0.006103   0.087505
     5  N   -0.299436  -0.048860
     6  N   -0.132300   0.042184
     7  N   -0.329114   0.011034
     8  C   -0.125302   0.426518
     9  N   -0.041865   0.016915
    10  C    0.270139   0.132779
    11  O   -0.443284   0.125438
    12  C   -0.582857  -0.024264
    13  S   -0.360945   0.043042
    14  H    0.187424   0.010777
    15  H    0.062436   0.000121
    16  H    0.181049   0.013539
    17  H    0.287936  -0.002985
    18  H    0.209982  -0.001487
    19  H    0.247478   0.000349
    20  H    0.167526   0.011853
    21  H    0.155444   0.031019
 Sum of Mulliken charges =  -1.00000   1.00000

 Dipole moment (field-independent basis, Debye):
    X=              5.4666    Y=             -1.8618    Z=              0.6182  Tot=              5.8080
 Quadrupole moment (field-independent basis, Debye-Ang):
   XX=           -123.5199   YY=            -96.3637   ZZ=            -89.5784
   XY=             18.5423   XZ=              1.8444   YZ=             -4.5013

 Summary of Natural Population Analysis:

                                       Natural Population
                Natural  -----------------------------------------------
    Atom  No    Charge         Core      Valence    Rydberg      Total
 -----------------------------------------------------------------------
      C    1   -0.30613      0.99964     2.30180    0.00469     3.30613
      C    2    0.19059      0.99955     1.79964    0.01022     2.80941
      C    3   -0.14752      0.99941     2.13884    0.00927     3.14752
      C    4    0.20505      0.99957     1.77999    0.01540     2.79495
      N    5   -0.23028      0.99969     2.71430    0.01629     3.73028
      N    6   -0.16168      0.99964     2.65025    0.01179     3.66168
      N    7   -0.40390      0.99971     2.89459    0.00960     3.90390
      C    8    0.21452      0.99953     1.77090    0.01505     2.78548
      N    9   -0.30161      0.99962     2.78831    0.01368     3.80161
      C   10    0.35872      0.99969     1.61750    0.02409     2.64128
      O   11   -0.28451      0.99987     3.27698    0.00767     4.28451
      C   12   -0.29765      0.99958     2.28998    0.00809     3.29765
      S   13    0.06902      4.99958     2.91132    0.02008     7.93098
      H   14    0.11928      0.00000     0.37973    0.00100     0.38072
      H   15    0.08706      0.00000     0.41186    0.00108     0.41294
      H   16    0.11877      0.00000     0.38024    0.00099     0.38123
      H   17    0.18625      0.00000     0.31175    0.00200     0.31375
      H   18    0.18944      0.00000     0.30828    0.00227     0.31056
      H   19    0.18112      0.00000     0.31708    0.00180     0.31888
      H   20    0.10688      0.00000     0.39162    0.00150     0.39312
      H   21    0.10661      0.00000     0.39183    0.00156     0.39339
 =======================================================================
   * Total *    0.00000     16.99508    33.82680    0.17812    51.00000

 Normal termination of Gaussian 16 at Thu Dec 10 00:14:13 2020.
