 Gaussian 16, Revision A.03,

 -----------------------------------------------------------
 # opt freq B3LYP/6-31G(d) empiricaldispersion=gd3bj scf=xqc
 -----------------------------------------------------------

 --------------------------------
 CID_104062927_JID_10475_neutraal
 --------------------------------
 Symbolic Z-matrix:
 Charge =  0 Multiplicity = 1

 SCF Done:  E(RB3LYP) =  -936.334056024     A.U. after   15 cycles
 SCF Done:  E(RB3LYP) =  -936.340165597     A.U. after   13 cycles
 SCF Done:  E(RB3LYP) =  -936.338880098     A.U. after   15 cycles
 SCF Done:  E(RB3LYP) =  -936.342164940     A.U. after   12 cycles
 SCF Done:  E(RB3LYP) =  -936.343550686     A.U. after   12 cycles
 SCF Done:  E(RB3LYP) =  -936.344307919     A.U. after   12 cycles
 SCF Done:  E(RB3LYP) =  -936.344480223     A.U. after   13 cycles
 SCF Done:  E(RB3LYP) =  -936.344916943     A.U. after   12 cycles
 SCF Done:  E(RB3LYP) =  -936.345017750     A.U. after   11 cycles
 SCF Done:  E(RB3LYP) =  -936.345081284     A.U. after   11 cycles
 SCF Done:  E(RB3LYP) =  -936.345893336     A.U. after   10 cycles
 SCF Done:  E(RB3LYP) =  -936.345897468     A.U. after   10 cycles
 SCF Done:  E(RB3LYP) =  -936.345897881     A.U. after    9 cycles
 SCF Done:  E(RB3LYP) =  -936.345897935     A.U. after    7 cycles
 SCF Done:  E(RB3LYP) =  -936.345897957     A.U. after    7 cycles
 Optimization completed.
    -- Stationary point found.
 Normal termination of Gaussian 16 at Mon Dec 14 19:12:01 2020.

 --------------------------------------------------------------------
 #N Geom=AllCheck Guess=TCheck SCRF=Check GenChk RB3LYP/6-31G(d) Freq
 --------------------------------------------------------------------

 Structure from the checkpoint file:  "JID_10475.chk"
 --------------------------------
 CID_104062927_JID_10475_neutraal
 --------------------------------
 Charge =  0 Multiplicity = 1

 SCF Done:  E(RB3LYP) =  -936.345897957     A.U. after    1 cycles

  Exact polarizability: 233.546 -31.972 148.075   3.058  -4.724 136.883
 Approx polarizability: 330.116 -51.398 216.976   5.909  -4.659 248.338

                      1                      2                      3
                      A                      A                      A
 Frequencies --     15.3114                18.1079                33.4254
 Red. masses --      4.1081                 5.4097                 4.2202
 Frc consts  --      0.0006                 0.0010                 0.0028
 IR Inten    --      0.0159                 0.0496                 0.2130

                      4                      5                      6
                      A                      A                      A
 Frequencies --     51.5043                58.3649                72.0955
 Red. masses --      3.0081                 9.8763                 5.6686
 Frc consts  --      0.0047                 0.0198                 0.0174
 IR Inten    --      0.8569                 1.7184                 1.0521

                      7                      8                      9
                      A                      A                      A
 Frequencies --    116.3042               140.1425               150.7159
 Red. masses --      3.9283                 1.9757                 6.6967
 Frc consts  --      0.0313                 0.0229                 0.0896
 IR Inten    --      0.8820                 0.9940                 0.6872

                     10                     11                     12
                      A                      A                      A
 Frequencies --    154.9062               196.8173               218.1985
 Red. masses --      4.7373                 2.4986                 4.3063
 Frc consts  --      0.0670                 0.0570                 0.1208
 IR Inten    --      0.3325                 0.3095                 5.6563

                     13                     14                     15
                      A                      A                      A
 Frequencies --    234.3897               286.2904               296.7951
 Red. masses --      2.4531                 2.4107                 3.9368
 Frc consts  --      0.0794                 0.1164                 0.2043
 IR Inten    --      2.6077                 2.1428                 0.1692

                     16                     17                     18
                      A                      A                      A
 Frequencies --    331.3799               369.0403               393.3259
 Red. masses --      4.7722                 5.2094                 6.3306
 Frc consts  --      0.3088                 0.4180                 0.5770
 IR Inten    --      2.1829                 3.1549                 4.4117

                     19                     20                     21
                      A                      A                      A
 Frequencies --    424.5183               434.0901               475.0344
 Red. masses --      3.0172                 3.1162                 4.2908
 Frc consts  --      0.3204                 0.3460                 0.5705
 IR Inten    --      4.3482                 5.3574                 0.9684

                     22                     23                     24
                      A                      A                      A
 Frequencies --    505.9307               517.8396               528.4526
 Red. masses --      4.7208                 5.6075                 3.6033
 Frc consts  --      0.7119                 0.8859                 0.5929
 IR Inten    --      1.9545                 4.3201                 3.1125

                     25                     26                     27
                      A                      A                      A
 Frequencies --    549.7006               607.6834               621.5510
 Red. masses --      4.6135                 6.9553                 1.7854
 Frc consts  --      0.8214                 1.5133                 0.4064
 IR Inten    --      1.1736                11.2704                49.4403

                     28                     29                     30
                      A                      A                      A
 Frequencies --    625.2420               640.1804               653.4587
 Red. masses --      3.1714                 4.9319                 4.7264
 Frc consts  --      0.7305                 1.1909                 1.1891
 IR Inten    --     39.5863                19.8733                22.1952

                     31                     32                     33
                      A                      A                      A
 Frequencies --    693.0961               730.3261               758.0855
 Red. masses --      2.4590                 4.8730                 2.3118
 Frc consts  --      0.6960                 1.5314                 0.7828
 IR Inten    --      1.2643                10.0998                12.8186

                     34                     35                     36
                      A                      A                      A
 Frequencies --    767.9066               794.2169               811.2335
 Red. masses --      2.8501                 2.7038                 3.1037
 Frc consts  --      0.9902                 1.0048                 1.2034
 IR Inten    --     84.7215                 8.8908                 8.9921

                     37                     38                     39
                      A                      A                      A
 Frequencies --    819.6287               823.4623               875.5317
 Red. masses --      1.7712                 1.5535                 4.5174
 Frc consts  --      0.7010                 0.6207                 2.0403
 IR Inten    --      3.2966                22.9064                 9.7864

                     40                     41                     42
                      A                      A                      A
 Frequencies --    895.9218               910.1937               926.4783
 Red. masses --      2.6766                 1.4993                 1.4066
 Frc consts  --      1.2658                 0.7318                 0.7114
 IR Inten    --      3.2219                 7.4258                 1.1699

                     43                     44                     45
                      A                      A                      A
 Frequencies --    933.5385               945.3126               969.4931
 Red. masses --      1.2657                 1.3848                 4.4736
 Frc consts  --      0.6499                 0.7291                 2.4774
 IR Inten    --      3.9264                 1.3024                53.1378

                     46                     47                     48
                      A                      A                      A
 Frequencies --    977.5006               985.7941               988.3029
 Red. masses --      1.3392                 1.2855                 2.6687
 Frc consts  --      0.7539                 0.7360                 1.5358
 IR Inten    --      1.9107                 0.7682                53.1047

                     49                     50                     51
                      A                      A                      A
 Frequencies --   1022.1495              1079.1424              1094.7975
 Red. masses --      6.2381                 2.3957                 2.0823
 Frc consts  --      3.8400                 1.6438                 1.4705
 IR Inten    --      0.3142                21.1207                 6.5568

                     52                     53                     54
                      A                      A                      A
 Frequencies --   1103.5999              1128.6611              1132.1480
 Red. masses --      2.5125                 1.9538                 1.5808
 Frc consts  --      1.8029                 1.4664                 1.1938
 IR Inten    --     84.4118                 1.7426                15.0387

                     55                     56                     57
                      A                      A                      A
 Frequencies --   1134.5911              1184.4850              1191.7128
 Red. masses --      1.5885                 1.7459                 1.5471
 Frc consts  --      1.2048                 1.4432                 1.2945
 IR Inten    --     33.6393                14.6924               204.1921

                     58                     59                     60
                      A                      A                      A
 Frequencies --   1206.7226              1227.3056              1268.3554
 Red. masses --      1.2841                 2.4948                 3.2751
 Frc consts  --      1.1017                 2.2141                 3.1042
 IR Inten    --     55.9190                88.2007               176.9910

                     61                     62                     63
                      A                      A                      A
 Frequencies --   1294.3091              1305.9257              1316.4584
 Red. masses --      1.1993                 2.6697                 1.7746
 Frc consts  --      1.1837                 2.6825                 1.8120
 IR Inten    --     22.6344               158.4999               150.4521

                     64                     65                     66
                      A                      A                      A
 Frequencies --   1324.3309              1327.3524              1328.8512
 Red. masses --      1.9099                 1.8097                 2.1331
 Frc consts  --      1.9736                 1.8786                 2.2193
 IR Inten    --     38.6524                 9.2421               127.9511

                     67                     68                     69
                      A                      A                      A
 Frequencies --   1377.0948              1397.6087              1403.8424
 Red. masses --      5.8177                 2.8334                 1.3701
 Frc consts  --      6.5002                 3.2609                 1.5909
 IR Inten    --      8.5542               196.0994                 0.6482

                     70                     71                     72
                      A                      A                      A
 Frequencies --   1429.7915              1445.3928              1483.3482
 Red. masses --      1.3690                 1.2870                 3.2891
 Frc consts  --      1.6489                 1.5842                 4.2639
 IR Inten    --     16.8384                23.5046               328.7713

                     73                     74                     75
                      A                      A                      A
 Frequencies --   1489.9141              1505.3440              1508.1986
 Red. masses --      3.3204                 2.1277                 1.1320
 Frc consts  --      4.3427                 2.8408                 1.5171
 IR Inten    --     26.4524                57.8280                 2.8570

                     76                     77                     78
                      A                      A                      A
 Frequencies --   1525.0286              1536.0249              1539.2162
 Red. masses --      1.0689                 1.8237                 1.0583
 Frc consts  --      1.4647                 2.5351                 1.4773
 IR Inten    --      4.9944                25.3849                 7.1163

                     79                     80                     81
                      A                      A                      A
 Frequencies --   1540.4485              1624.4538              1639.9232
 Red. masses --      1.3602                 5.7751                 6.4897
 Frc consts  --      1.9018                 8.9789                10.2831
 IR Inten    --     16.0564                32.1051                55.8200

                     82                     83                     84
                      A                      A                      A
 Frequencies --   1649.7043              1669.5820              1823.6873
 Red. masses --      6.3100                 6.3770                 9.8236
 Frc consts  --     10.1179                10.4733                19.2495
 IR Inten    --     47.4145                18.0756               314.6624

                     85                     86                     87
                      A                      A                      A
 Frequencies --   3046.9550              3050.9876              3054.8278
 Red. masses --      1.0611                 1.0387                 1.0629
 Frc consts  --      5.8040                 5.6964                 5.8443
 IR Inten    --     15.1919                25.2641                14.6045

                     88                     89                     90
                      A                      A                      A
 Frequencies --   3084.5274              3114.8545              3119.2792
 Red. masses --      1.0980                 1.1025                 1.1041
 Frc consts  --      6.1549                 6.3023                 6.3296
 IR Inten    --     16.5400                23.8834                49.8899

                     91                     92                     93
                      A                      A                      A
 Frequencies --   3133.3984              3188.4424              3202.2699
 Red. masses --      1.1022                 1.0887                 1.0886
 Frc consts  --      6.3760                 6.5213                 6.5769
 IR Inten    --     36.8272                15.1054                10.9169

                     94                     95                     96
                      A                      A                      A
 Frequencies --   3210.0607              3223.9633              3229.2873
 Red. masses --      1.0905                 1.0969                 1.0918
 Frc consts  --      6.6205                 6.7171                 6.7085
 IR Inten    --     17.3577                11.6934                 4.2575

                     97                     98                     99
                      A                      A                      A
 Frequencies --   3237.6126              3245.5227              3701.1591
 Red. masses --      1.0935                 1.0912                 1.0642
 Frc consts  --      6.7536                 6.7723                 8.5889
 IR Inten    --      2.7159                 1.2716                77.9819

 - Thermochemistry -
 -------------------
 Temperature   298.150 Kelvin.  Pressure   1.00000 Atm.
 Atom     1 has atomic number  6 and mass  12.00000

 Molecular mass:   273.10011 amu.
 Principal axes and moments of inertia in atomic units:
                           1         2         3
     Eigenvalues --  3407.112818864.39856**********
           X            0.99987   0.01575   0.00218
           Y           -0.01572   0.99980  -0.01213
           Z           -0.00237   0.01210   0.99992
 This molecule is an asymmetric top.
 Rotational symmetry number  1.
 Warning -- assumption of classical behavior for rotation
           may cause significant error
 Rotational temperatures (Kelvin)      0.02542     0.00977     0.00810
 Rotational constants (GHZ):           0.52970     0.20359     0.16868
 Zero-point vibrational energy     732290.9 (Joules/Mol)
                                  175.02171 (Kcal/Mol)
 Warning -- explicit consideration of  26 degrees of freedom as
           vibrations may cause significant error
 Vibrational temperatures:     22.03    26.05    48.09    74.10    83.97
          (Kelvin)            103.73   167.34   201.63   216.85   222.88
                              283.18   313.94   337.23   411.91   427.02
                              476.78   530.97   565.91   610.79   624.56
                              683.47   727.92   745.06   760.33   790.90
                              874.32   894.27   899.58   921.08   940.18
                              997.21  1050.78  1090.72  1104.85  1142.70
                             1167.18  1179.26  1184.78  1259.69  1289.03
                             1309.57  1333.00  1343.15  1360.09  1394.88
                             1406.41  1418.34  1421.95  1470.65  1552.65
                             1575.17  1587.83  1623.89  1628.91  1632.42
                             1704.21  1714.61  1736.20  1765.82  1824.88
                             1862.22  1878.94  1894.09  1905.42  1909.76
                             1911.92  1981.33  2010.85  2019.82  2057.15
                             2079.60  2134.21  2143.65  2165.85  2169.96
                             2194.18  2210.00  2214.59  2216.36  2337.23
                             2359.48  2373.56  2402.16  2623.88  4383.89
                             4389.69  4395.22  4437.95  4481.58  4487.95
                             4508.26  4587.46  4607.35  4618.56  4638.56
                             4646.22  4658.20  4669.58  5325.14

 Zero-point correction=                           0.278915 (Hartree/Particle)
 Thermal correction to Energy=                    0.296940
 Thermal correction to Enthalpy=                  0.297885
 Thermal correction to Gibbs Free Energy=         0.229371
 Sum of electronic and zero-point Energies=           -936.066983
 Sum of electronic and thermal Energies=              -936.048958
 Sum of electronic and thermal Enthalpies=            -936.048013
 Sum of electronic and thermal Free Energies=         -936.116527

                     E (Thermal)             CV                S
                      KCal/Mol        Cal/Mol-Kelvin    Cal/Mol-Kelvin
 Total                  186.333             67.814            144.200
 Electronic               0.000              0.000              0.000
 Translational            0.889              2.981             42.713
 Rotational               0.889              2.981             34.135
 Vibrational            184.555             61.853             67.352
 Vibration     1          0.593              1.986              7.165
 Vibration     2          0.593              1.986              6.832
 Vibration     3          0.594              1.983              5.615
 Vibration     4          0.596              1.977              4.759
 Vibration     5          0.596              1.974              4.512
 Vibration     6          0.598              1.967              4.095
 Vibration     7          0.608              1.936              3.161
 Vibration     8          0.615              1.913              2.802
 Vibration     9          0.618              1.902              2.663
 Vibration    10          0.620              1.897              2.611
 Vibration    11          0.636              1.844              2.163
 Vibration    12          0.646              1.813              1.974
 Vibration    13          0.654              1.788              1.845
 Vibration    14          0.684              1.699              1.496
 Vibration    15          0.690              1.680              1.435
 Vibration    16          0.714              1.613              1.253
 Vibration    17          0.741              1.536              1.084
 Vibration    18          0.761              1.484              0.988
 Vibration    19          0.787              1.417              0.877
 Vibration    20          0.795              1.396              0.845
 Vibration    21          0.832              1.305              0.724
 Vibration    22          0.861              1.237              0.643
 Vibration    23          0.873              1.210              0.615
 Vibration    24          0.883              1.187              0.591
 Vibration    25          0.905              1.140              0.545
 Vibration    26          0.966              1.016              0.437

                           ! Non-Optimized Parameters !
 Normal termination of Gaussian 16 at Mon Dec 14 19:30:41 2020.

 ----------------------------------------------------------------------
 # B3LYP/6-311++G(d,p) empiricaldispersion=gd3bj scf=xqc pop=npa geom=c
 heck
 ----------------------------------------------------------------------

 ----------------------------------------
 CID_104062927_JID_10475_Energie_neutraal
 ----------------------------------------
 Structure from the checkpoint file:  "JID_10475.chk"
 Charge =  0 Multiplicity = 1

 SCF Done:  E(RB3LYP) =  -936.608233424     A.U. after   16 cycles
 Normal termination of Gaussian 16 at Mon Dec 14 19:38:57 2020.

 ----------------------------------------------------------------------
 # B3LYP/6-311++G(d,p) empiricaldispersion=gd3bj scf=xqc pop=npa geom=c
 heck
 ----------------------------------------------------------------------

 --------------------------------------
 CID_104062927_JID_10475_Energie_kation
 --------------------------------------
 Structure from the checkpoint file:  "JID_10475.chk"
 Charge =  1 Multiplicity = 2

 SCF Done:  E(UB3LYP) =  -936.304611366     A.U. after   27 cycles
 Normal termination of Gaussian 16 at Mon Dec 14 19:58:54 2020.
 Gaussian 16:  ES64L-G16RevA.03 25-Dec-2016

 ----------------------------------------------------------------------
 # B3LYP/6-311++G(d,p) empiricaldispersion=gd3bj scf=xqc pop=npa geom=c
 heck
 ----------------------------------------------------------------------

 -------------------------------------
 CID_104062927_JID_10475_Energie_anion
 -------------------------------------
 Structure from the checkpoint file:  "JID_10475.chk"
 Charge = -1 Multiplicity = 2

                         Standard orientation:
 ---------------------------------------------------------------------
 Center     Atomic      Atomic             Coordinates (Angstroms)
 Number     Number       Type             X           Y           Z
 ---------------------------------------------------------------------
      1          6           0        2.778205    3.760649    0.220752
      2          6           0        1.306056    3.348821    0.169681
      3          6           0        1.096214    1.926126   -0.324696
      4          8           0        1.708243    1.033095    0.633636
      5          6           0        2.292626   -0.106575    0.176528
      6          6           0        1.645000   -1.047046   -0.650404
      7          7           0        2.205923   -2.166470   -1.071873
      8          6           0        3.457749   -2.436050   -0.677417
      9          6           0        4.182268   -1.597454    0.166122
     10          6           0        3.587060   -0.411951    0.594550
     11          8           0        0.370030   -0.794266   -1.115052
     12          6           0       -0.682441   -0.832719   -0.225779
     13          6           0       -0.583997   -1.353801    1.066043
     14          6           0       -1.710371   -1.353141    1.890587
     15          6           0       -2.923563   -0.844887    1.438732
     16          6           0       -3.011481   -0.329822    0.139230
     17          6           0       -1.891069   -0.321355   -0.696295
     18          6           0       -4.321648    0.205195   -0.310755
     19          8           0       -5.332916    0.226289    0.361868
     20          8           0       -4.292202    0.687461   -1.580248
     21          1           0        3.239649    3.697591   -0.772431
     22          1           0        3.338617    3.105080    0.894284
     23          1           0        2.889361    4.789764    0.577873
     24          1           0        0.851496    3.441568    1.163866
     25          1           0        0.744686    4.017194   -0.496628
     26          1           0        0.030543    1.692831   -0.405300
     27          1           0        1.561727    1.776066   -1.306073
     28          1           0        3.884897   -3.365484   -1.045871
     29          1           0        5.190605   -1.857487    0.471920
     30          1           0        4.102600    0.291170    1.240942
     31          1           0        0.357557   -1.756800    1.420802
     32          1           0       -1.631856   -1.757907    2.895066
     33          1           0       -3.806780   -0.837402    2.066761
     34          1           0       -1.946408    0.070667   -1.704272
     35          1           0       -5.197050    1.001860   -1.760737
 ---------------------------------------------------------------------

 SCF Done:  E(UB3LYP) =  -936.617339248     A.U. after   33 cycles
 SCF Done:  E(UB3LYP) =  -936.617339248     a.u. after    1 cycles

 The electronic state is 2-A.
 Alpha  occ. eigenvalues --  -19.03981 -19.03765 -19.03066 -18.95594 -14.19204
 Alpha  occ. eigenvalues --  -10.14670 -10.14044 -10.12513 -10.12045 -10.10189
 Alpha  occ. eigenvalues --  -10.09308 -10.08298 -10.07875 -10.07509 -10.07134
 Alpha  occ. eigenvalues --  -10.03991 -10.03383 -10.03238 -10.03127 -10.02620
 Alpha  occ. eigenvalues --   -0.97159  -0.96604  -0.94888  -0.87115  -0.83102
 Alpha  occ. eigenvalues --   -0.72160  -0.70999  -0.68656  -0.65130  -0.62656
 Alpha  occ. eigenvalues --   -0.61164  -0.59243  -0.53699  -0.52688  -0.51934
 Alpha  occ. eigenvalues --   -0.49958  -0.47849  -0.46393  -0.42974  -0.41314
 Alpha  occ. eigenvalues --   -0.40291  -0.38210  -0.37516  -0.36503  -0.35459
 Alpha  occ. eigenvalues --   -0.34787  -0.34452  -0.33677  -0.33430  -0.31328
 Alpha  occ. eigenvalues --   -0.30983  -0.30324  -0.29812  -0.29265  -0.28177
 Alpha  occ. eigenvalues --   -0.27667  -0.26933  -0.26384  -0.26347  -0.25610
 Alpha  occ. eigenvalues --   -0.24057  -0.23142  -0.21736  -0.21236  -0.20355
 Alpha  occ. eigenvalues --   -0.18858  -0.17291  -0.15621  -0.13873  -0.13098
 Alpha  occ. eigenvalues --   -0.12768  -0.10200   0.04420
 Alpha virt. eigenvalues --    0.06495   0.06766   0.07446   0.08648   0.09179
 Alpha virt. eigenvalues --    0.09297   0.09461   0.09973   0.10061   0.11092
 Alpha virt. eigenvalues --    0.12018   0.12465   0.12597   0.12707   0.13666

  Beta  occ. eigenvalues --  -19.03964 -19.03771 -19.03016 -18.95316 -14.19015
  Beta  occ. eigenvalues --  -10.14665 -10.13793 -10.12465 -10.12030 -10.10261
  Beta  occ. eigenvalues --  -10.09238 -10.08295 -10.07875 -10.07537 -10.06958
  Beta  occ. eigenvalues --  -10.03978 -10.03238 -10.03185 -10.02887 -10.02389
  Beta  occ. eigenvalues --   -0.97131  -0.96339  -0.94861  -0.86706  -0.82848
  Beta  occ. eigenvalues --   -0.71863  -0.70895  -0.68485  -0.64991  -0.62145
  Beta  occ. eigenvalues --   -0.60992  -0.59143  -0.53441  -0.52492  -0.51479
  Beta  occ. eigenvalues --   -0.49876  -0.47667  -0.46247  -0.42925  -0.41141
  Beta  occ. eigenvalues --   -0.40189  -0.38099  -0.37464  -0.36316  -0.35308
  Beta  occ. eigenvalues --   -0.34718  -0.34254  -0.33573  -0.33211  -0.30914
  Beta  occ. eigenvalues --   -0.30222  -0.30016  -0.29664  -0.29138  -0.28074
  Beta  occ. eigenvalues --   -0.27524  -0.26756  -0.26319  -0.26155  -0.25451
  Beta  occ. eigenvalues --   -0.23945  -0.22960  -0.21581  -0.20814  -0.20002
  Beta  occ. eigenvalues --   -0.17766  -0.16589  -0.15386  -0.13594  -0.12668
  Beta  occ. eigenvalues --   -0.11311  -0.09426
  Beta virt. eigenvalues --    0.06505   0.07367   0.08258   0.08608   0.09142
  Beta virt. eigenvalues --    0.09297   0.09435   0.09933   0.09957   0.10047
  Beta virt. eigenvalues --    0.11044   0.11995   0.12477   0.12654   0.12790

 Mulliken charges and spin densities:
               1          2
     1  C   -0.499848  -0.001312
     2  C   -0.342344  -0.000586
     3  C   -0.196865  -0.028733
     4  O   -0.053345   0.002964
     5  C    0.099699   0.017209
     6  C   -0.396782   0.007279
     7  N    0.005817   0.084444
     8  C   -0.279668   0.059924
     9  C   -0.249730  -0.028397
    10  C    0.058097   0.170367
    11  O    0.043099   0.001288
    12  C   -0.473632  -0.041360
    13  C    0.240997   0.186071
    14  C   -0.288755   0.020781
    15  C   -0.506886   0.056486
    16  C    0.628553   0.031839
    17  C   -0.502368   0.203826
    18  C   -0.035966   0.149600
    19  O   -0.413491   0.097623
    20  O   -0.234423   0.012248
    21  H    0.121745   0.000088
    22  H    0.154566   0.001223
    23  H    0.126816   0.000451
    24  H    0.152067   0.004289
    25  H    0.126880  -0.000248
    26  H    0.205074   0.016192
    27  H    0.146784   0.011497
    28  H    0.149599  -0.001814
    29  H    0.134001   0.004544
    30  H    0.157902  -0.009935
    31  H    0.168936  -0.010669
    32  H    0.135672  -0.000417
    33  H    0.164315  -0.002274
    34  H    0.186261  -0.013504
    35  H    0.267221  -0.000983
 Sum of Mulliken charges =  -1.00000   1.00000

 Dipole moment (field-independent basis, Debye):
    X=              7.1368    Y=              4.0452    Z=             -0.1863  Tot=              8.2056
 Quadrupole moment (field-independent basis, Debye-Ang):
   XX=           -180.5354   YY=           -132.3203   ZZ=           -129.4533
   XY=              0.6521   XZ=             10.1641   YZ=             -6.2960

 Summary of Natural Population Analysis:

                                       Natural Population
                Natural  -----------------------------------------------
    Atom  No    Charge         Core      Valence    Rydberg      Total
 -----------------------------------------------------------------------
      C    1   -0.28803      0.99967     2.28382    0.00455     3.28803
      C    2   -0.19817      0.99964     2.19225    0.00628     3.19817
      C    3   -0.00956      0.99956     1.99982    0.01019     3.00956
      O    4   -0.28827      0.99985     3.27747    0.01095     4.28827
      C    5    0.13232      0.99931     1.85520    0.01317     2.86768
      C    6    0.23888      0.99937     1.74279    0.01896     2.76112
      N    7   -0.21004      0.99965     2.70036    0.01003     3.71004
      C    8    0.02364      0.99960     1.96256    0.01420     2.97636
      C    9   -0.13618      0.99957     2.12832    0.00828     3.13618
      C   10   -0.07394      0.99954     2.06542    0.00898     3.07394
      O   11   -0.27696      0.99983     3.26601    0.01112     4.27696
      C   12    0.13748      0.99936     1.84996    0.01321     2.86252
      C   13   -0.08778      0.99951     2.08057    0.00770     3.08778
      C   14   -0.10416      0.99958     2.09542    0.00915     3.10416
      C   15   -0.08781      0.99954     2.07921    0.00906     3.08781
      C   16   -0.04926      0.99946     2.04020    0.00960     3.04926
      C   17   -0.06715      0.99949     2.05924    0.00842     3.06715
      C   18    0.42572      0.99966     1.55015    0.02447     2.57428
      O   19   -0.30647      0.99987     3.29897    0.00763     4.30647
      O   20   -0.35333      0.99988     3.34755    0.00590     4.35333
      H   21    0.09361      0.00000     0.40543    0.00096     0.40639
      H   22    0.10235      0.00000     0.39653    0.00113     0.39765
      H   23    0.09337      0.00000     0.40582    0.00081     0.40663
      H   24    0.09913      0.00000     0.39973    0.00114     0.40087
      H   25    0.09488      0.00000     0.40402    0.00110     0.40512
      H   26    0.09970      0.00000     0.39816    0.00214     0.40030
      H   27    0.08206      0.00000     0.41677    0.00117     0.41794
      H   28    0.08399      0.00000     0.41469    0.00132     0.41601
      H   29    0.09692      0.00000     0.40189    0.00119     0.40308
      H   30    0.09881      0.00000     0.39968    0.00151     0.40119
      H   31    0.10033      0.00000     0.39839    0.00128     0.39967
      H   32    0.09171      0.00000     0.40724    0.00105     0.40829
      H   33    0.10487      0.00000     0.39407    0.00107     0.39513
      H   34    0.10622      0.00000     0.39236    0.00142     0.39378
      H   35    0.23114      0.00000     0.26569    0.00317     0.26886
 =======================================================================
   * Total *    0.00000     19.99196    51.77574    0.23230    72.00000

 Normal termination of Gaussian 16 at Mon Dec 14 20:22:59 2020.
