 Gaussian 16, Revision A.03,

 -----------------------------------------------------------
 # opt freq B3LYP/6-31G(d) empiricaldispersion=gd3bj scf=xqc
 -----------------------------------------------------------

 -------------------------------
 CID_127363333_JID_7102_neutraal
 -------------------------------
 Symbolic Z-matrix:
 Charge =  0 Multiplicity = 1

 SCF Done:  E(RB3LYP) =  -1200.44588662     A.U. after   15 cycles
 SCF Done:  E(RB3LYP) =  -1200.45565583     A.U. after   13 cycles
 SCF Done:  E(RB3LYP) =  -1200.45834354     A.U. after   14 cycles
 SCF Done:  E(RB3LYP) =  -1200.45953709     A.U. after   14 cycles
 SCF Done:  E(RB3LYP) =  -1200.46037273     A.U. after   12 cycles
 SCF Done:  E(RB3LYP) =  -1200.46109745     A.U. after   12 cycles
 SCF Done:  E(RB3LYP) =  -1200.46014268     A.U. after   15 cycles
 SCF Done:  E(RB3LYP) =  -1200.46124156     A.U. after   12 cycles
 SCF Done:  E(RB3LYP) =  -1200.46219201     A.U. after   11 cycles
 SCF Done:  E(RB3LYP) =  -1200.46252138     A.U. after   12 cycles
 SCF Done:  E(RB3LYP) =  -1200.46279811     A.U. after   10 cycles
 SCF Done:  E(RB3LYP) =  -1200.46280173     A.U. after   10 cycles
 SCF Done:  E(RB3LYP) =  -1200.46280389     A.U. after    9 cycles
 SCF Done:  E(RB3LYP) =  -1200.46280548     A.U. after    8 cycles
 SCF Done:  E(RB3LYP) =  -1200.46280589     A.U. after    9 cycles
 Optimization completed.
    -- Stationary point found.
 Normal termination of Gaussian 16 at Sun Dec 13 16:13:43 2020.

 --------------------------------------------------------------------
 #N Geom=AllCheck Guess=TCheck SCRF=Check GenChk RB3LYP/6-31G(d) Freq
 --------------------------------------------------------------------

 Structure from the checkpoint file:  "JID_7102.chk"
 -------------------------------
 CID_127363333_JID_7102_neutraal
 -------------------------------
 Charge =  0 Multiplicity = 1

 SCF Done:  E(RB3LYP) =  -1200.46280589     A.U. after    1 cycles

  Exact polarizability: 165.967  -3.082 124.593   0.833   1.425 131.632
 Approx polarizability: 211.437  -9.336 183.401 -12.802   7.042 218.525

                      1                      2                      3
                      A                      A                      A
 Frequencies --     15.6106                33.4991                41.9278
 Red. masses --      5.0881                 3.9065                 5.7410
 Frc consts  --      0.0007                 0.0026                 0.0059
 IR Inten    --      1.7645                 0.8770                 2.6605

                      4                      5                      6
                      A                      A                      A
 Frequencies --     64.4194                68.7044                77.9327
 Red. masses --      4.9290                 2.6650                 5.4978
 Frc consts  --      0.0121                 0.0074                 0.0197
 IR Inten    --      0.8725                 0.6686                 1.6937

                      7                      8                      9
                      A                      A                      A
 Frequencies --    137.7020               150.0861               191.4640
 Red. masses --      5.7905                 3.4667                 3.5063
 Frc consts  --      0.0647                 0.0460                 0.0757
 IR Inten    --      0.4129                 1.0985                 0.6490

                     10                     11                     12
                      A                      A                      A
 Frequencies --    207.2207               230.7212               243.0407
 Red. masses --      4.0460                 2.8818                 1.0943
 Frc consts  --      0.1024                 0.0904                 0.0381
 IR Inten    --      0.9373                 1.3080                 1.0328

                     13                     14                     15
                      A                      A                      A
 Frequencies --    274.3319               298.0152               322.5713
 Red. masses --      3.7157                 2.9458                 3.8098
 Frc consts  --      0.1648                 0.1541                 0.2336
 IR Inten    --      1.5960                 1.1199                15.7906

                     16                     17                     18
                      A                      A                      A
 Frequencies --    348.2017               355.6213               385.6834
 Red. masses --      4.3020                 4.7267                 3.7751
 Frc consts  --      0.3073                 0.3522                 0.3309
 IR Inten    --     24.4454                 7.8983                35.7101

                     19                     20                     21
                      A                      A                      A
 Frequencies --    405.3771               444.6392               445.9422
 Red. masses --      4.3027                 2.8468                 2.7251
 Frc consts  --      0.4166                 0.3316                 0.3193
 IR Inten    --      8.9956                 7.4196                 4.0762

                     22                     23                     24
                      A                      A                      A
 Frequencies --    463.6051               493.1483               523.6410
 Red. masses --      2.9372                 3.3049                 8.1274
 Frc consts  --      0.3719                 0.4735                 1.3130
 IR Inten    --     13.2451                 4.7376                 2.9995

                     25                     26                     27
                      A                      A                      A
 Frequencies --    540.0136               592.9540               637.0766
 Red. masses --      4.5978                 3.1399                 2.1075
 Frc consts  --      0.7900                 0.6504                 0.5040
 IR Inten    --     12.1364                10.6749                 4.1892

                     28                     29                     30
                      A                      A                      A
 Frequencies --    671.1435               713.8530               748.5630
 Red. masses --      4.2478                 2.2885                 4.8410
 Frc consts  --      1.1273                 0.6871                 1.5982
 IR Inten    --     54.5467                98.6801                10.1490

                     31                     32                     33
                      A                      A                      A
 Frequencies --    764.2570               789.2271               835.7334
 Red. masses --      3.1908                 1.1977                 1.1872
 Frc consts  --      1.0981                 0.4395                 0.4885
 IR Inten    --     17.2084                14.9085                 8.1175

                     34                     35                     36
                      A                      A                      A
 Frequencies --    858.1642               867.4985               907.4659
 Red. masses --      2.6343                 1.9749                 2.2338
 Frc consts  --      1.1430                 0.8756                 1.0838
 IR Inten    --      9.2578                 5.4906                20.4850

                     37                     38                     39
                      A                      A                      A
 Frequencies --    916.0742               929.2276               950.4820
 Red. masses --      2.7291                 1.7545                 3.1922
 Frc consts  --      1.3494                 0.8926                 1.6991
 IR Inten    --     17.8110                50.3610                86.8213

                     40                     41                     42
                      A                      A                      A
 Frequencies --    962.3554               970.1002              1022.6976
 Red. masses --      4.1262                 2.6222                 2.4261
 Frc consts  --      2.2515                 1.4539                 1.4951
 IR Inten    --      6.9952                73.2447                 8.3840

                     43                     44                     45
                      A                      A                      A
 Frequencies --   1055.8915              1072.8855              1079.8502
 Red. masses --      2.3395                 1.5046                 1.5750
 Frc consts  --      1.5367                 1.0204                 1.0821
 IR Inten    --     50.8368                 4.1379                 6.0438

                     46                     47                     48
                      A                      A                      A
 Frequencies --   1099.4001              1101.1173              1103.0349
 Red. masses --      1.3407                 1.3511                 1.8143
 Frc consts  --      0.9547                 0.9652                 1.3006
 IR Inten    --      3.2975                 6.4753                22.5182

                     49                     50                     51
                      A                      A                      A
 Frequencies --   1109.4493              1119.9685              1125.8893
 Red. masses --      3.6720                 3.7042                 1.1581
 Frc consts  --      2.6629                 2.7375                 0.8650
 IR Inten    --     61.0425               127.1475                 4.0435

                     52                     53                     54
                      A                      A                      A
 Frequencies --   1144.1152              1149.7027              1176.9420
 Red. masses --      3.7455                 2.8220                 2.3425
 Frc consts  --      2.8887                 2.1978                 1.9118
 IR Inten    --     46.0414                59.3212                12.3280

                     55                     56                     57
                      A                      A                      A
 Frequencies --   1203.7413              1221.2282              1235.8314
 Red. masses --      1.3559                 2.6342                 1.9822
 Frc consts  --      1.1576                 2.3147                 1.7836
 IR Inten    --      2.0025                 0.6560                 6.1752

                     58                     59                     60
                      A                      A                      A
 Frequencies --   1254.4957              1263.8958              1301.3809
 Red. masses --      1.2922                 1.4297                 1.7363
 Frc consts  --      1.1982                 1.3456                 1.7325
 IR Inten    --     47.3802                81.0840                34.2575

                     61                     62                     63
                      A                      A                      A
 Frequencies --   1308.4342              1338.1404              1342.3881
 Red. masses --      2.8363                 1.3929                 1.2928
 Frc consts  --      2.8609                 1.4696                 1.3726
 IR Inten    --    101.4861                 0.9053                32.1781

                     64                     65                     66
                      A                      A                      A
 Frequencies --   1348.3004              1366.4668              1374.0453
 Red. masses --      1.6107                 1.4728                 1.2722
 Frc consts  --      1.7252                 1.6203                 1.4151
 IR Inten    --     48.0356                18.9457                 7.2207

                     67                     68                     69
                      A                      A                      A
 Frequencies --   1408.1297              1411.5392              1430.5329
 Red. masses --      1.2645                 1.3481                 1.2561
 Frc consts  --      1.4773                 1.5825                 1.5145
 IR Inten    --     10.0706                12.3456                 6.9443

                     70                     71                     72
                      A                      A                      A
 Frequencies --   1441.0112              1459.8661              1481.2011
 Red. masses --      1.3308                 1.3846                 1.0927
 Frc consts  --      1.6282                 1.7386                 1.4125
 IR Inten    --      1.6559               120.7524                 1.2110

                     73                     74                     75
                      A                      A                      A
 Frequencies --   1497.2387              1507.8970              1515.3970
 Red. masses --      1.2924                 1.3379                 1.1103
 Frc consts  --      1.7070                 1.7924                 1.5022
 IR Inten    --     37.8476                31.3862                10.4616

                     76                     77                     78
                      A                      A                      A
 Frequencies --   1515.8871              1520.9203              1524.3727
 Red. masses --      1.1010                 1.3250                 1.1739
 Frc consts  --      1.4906                 1.8059                 1.6072
 IR Inten    --      3.0343                 0.6967                27.6346

                     79                     80                     81
                      A                      A                      A
 Frequencies --   1531.7935              1536.2256              1738.5727
 Red. masses --      1.1056                 1.1611                 9.5031
 Frc consts  --      1.5284                 1.6144                16.9238
 IR Inten    --      2.9122                20.2677               276.2943

                     82                     83                     84
                      A                      A                      A
 Frequencies --   3017.5227              3045.0609              3054.8590
 Red. masses --      1.0689                 1.0667                 1.0678
 Frc consts  --      5.7344                 5.8274                 5.8711
 IR Inten    --     29.7338                18.6609                12.0139

                     85                     86                     87
                      A                      A                      A
 Frequencies --   3060.6843              3061.1073              3118.4472
 Red. masses --      1.0549                 1.0486                 1.1006
 Frc consts  --      5.8222                 5.7892                 6.3060
 IR Inten    --     27.0756                52.8370                39.3019

                     88                     89                     90
                      A                      A                      A
 Frequencies --   3119.9902              3133.0436              3141.1611
 Red. masses --      1.1010                 1.1020                 1.1022
 Frc consts  --      6.3145                 6.3735                 6.4078
 IR Inten    --     46.0382                16.1093                15.5366

                     91                     92                     93
                      A                      A                      A
 Frequencies --   3159.9483              3166.5298              3167.2351
 Red. masses --      1.0922                 1.0518                 1.0574
 Frc consts  --      6.4257                 6.2140                 6.2498
 IR Inten    --      8.4088                 9.3832                 7.4515

                     94                     95                     96
                      A                      A                      A
 Frequencies --   3173.5597              3182.9818              3197.2926
 Red. masses --      1.0952                 1.0864                 1.0902
 Frc consts  --      6.4986                 6.4852                 6.5661
 IR Inten    --      2.4295                23.0631                 0.0982

                     97                     98                     99
                      A                      A                      A
 Frequencies --   3247.7201              3257.7899              3449.3528
 Red. masses --      1.1189                 1.1162                 1.0728
 Frc consts  --      6.9537                 6.9795                 7.5204
 IR Inten    --      0.5517                 6.5505                64.8567

 - Thermochemistry -
 -------------------
 Temperature   298.150 Kelvin.  Pressure   1.00000 Atm.
 Atom     1 has atomic number  6 and mass  12.00000

 Molecular mass:   262.09873 amu.
 Principal axes and moments of inertia in atomic units:
                           1         2         3
     Eigenvalues --  2350.410696627.260737068.01657
           X            0.99992  -0.00556   0.01168
           Y            0.00585   0.99967  -0.02500
           Z           -0.01154   0.02507   0.99962
 This molecule is an asymmetric top.
 Rotational symmetry number  1.
 Warning -- assumption of classical behavior for rotation
           may cause significant error
 Rotational temperatures (Kelvin)      0.03685     0.01307     0.01225
 Rotational constants (GHZ):           0.76784     0.27232     0.25534
 Zero-point vibrational energy     772018.8 (Joules/Mol)
                                  184.51691 (Kcal/Mol)
 Warning -- explicit consideration of  26 degrees of freedom as
           vibrations may cause significant error
 Vibrational temperatures:     22.46    48.20    60.32    92.69    98.85
          (Kelvin)            112.13   198.12   215.94   275.47   298.14
                              331.96   349.68   394.70   428.78   464.11
                              500.98   511.66   554.91   583.25   639.74
                              641.61   667.02   709.53   753.40   776.96
                              853.13   916.61   965.63  1027.08  1077.02
                             1099.60  1135.52  1202.43  1234.71  1248.14
                             1305.64  1318.03  1336.95  1367.53  1384.61
                             1395.76  1471.43  1519.19  1543.64  1553.66
                             1581.79  1584.26  1587.02  1596.25  1611.38
                             1619.90  1646.13  1654.17  1693.36  1731.92
                             1757.08  1778.09  1804.94  1818.46  1872.40
                             1882.54  1925.29  1931.40  1939.90  1966.04
                             1976.94  2025.98  2030.89  2058.22  2073.29
                             2100.42  2131.12  2154.19  2169.53  2180.32
                             2181.02  2188.27  2193.23  2203.91  2210.29
                             2501.42  4341.54  4381.16  4395.26  4403.64
                             4404.25  4486.75  4488.97  4507.75  4519.43
                             4546.46  4555.93  4556.94  4566.04  4579.60
                             4600.19  4672.74  4687.23  4962.85

 Zero-point correction=                           0.294046 (Hartree/Particle)
 Thermal correction to Energy=                    0.311180
 Thermal correction to Enthalpy=                  0.312124
 Thermal correction to Gibbs Free Energy=         0.247039
 Sum of electronic and zero-point Energies=          -1200.168759
 Sum of electronic and thermal Energies=             -1200.151626
 Sum of electronic and thermal Enthalpies=           -1200.150682
 Sum of electronic and thermal Free Energies=        -1200.215767

                     E (Thermal)             CV                S
                      KCal/Mol        Cal/Mol-Kelvin    Cal/Mol-Kelvin
 Total                  195.268             64.505            136.983
 Electronic               0.000              0.000              0.000
 Translational            0.889              2.981             42.590
 Rotational               0.889              2.981             33.065
 Vibrational            193.491             58.543             61.328
 Vibration     1          0.593              1.986              7.126
 Vibration     2          0.594              1.983              5.611
 Vibration     3          0.595              1.980              5.166
 Vibration     4          0.597              1.971              4.317
 Vibration     5          0.598              1.969              4.190
 Vibration     6          0.599              1.964              3.942
 Vibration     7          0.614              1.916              2.836
 Vibration     8          0.618              1.903              2.671
 Vibration     9          0.634              1.852              2.214
 Vibration    10          0.641              1.830              2.068
 Vibration    11          0.652              1.794              1.873
 Vibration    12          0.659              1.774              1.781
 Vibration    13          0.677              1.721              1.569
 Vibration    14          0.691              1.677              1.428
 Vibration    15          0.708              1.630              1.297
 Vibration    16          0.726              1.579              1.174
 Vibration    17          0.731              1.564              1.141
 Vibration    18          0.754              1.501              1.017
 Vibration    19          0.770              1.459              0.943
 Vibration    20          0.804              1.373              0.812
 Vibration    21          0.805              1.370              0.808
 Vibration    22          0.821              1.331              0.756
 Vibration    23          0.849              1.265              0.675
 Vibration    24          0.879              1.198              0.602
 Vibration    25          0.895              1.162              0.565
 Vibration    26          0.951              1.047              0.462

                           ! Non-Optimized Parameters !
 Normal termination of Gaussian 16 at Sun Dec 13 16:27:42 2020.

 ----------------------------------------------------------------------
 # B3LYP/6-311++G(d,p) empiricaldispersion=gd3bj scf=xqc pop=npa geom=c
 heck
 ----------------------------------------------------------------------

 ---------------------------------------
 CID_127363333_JID_7102_Energie_neutraal
 ---------------------------------------
 Structure from the checkpoint file:  "JID_7102.chk"
 Charge =  0 Multiplicity = 1

 SCF Done:  E(RB3LYP) =  -1200.72333506     A.U. after   15 cycles
 Normal termination of Gaussian 16 at Sun Dec 13 16:35:00 2020.

 ----------------------------------------------------------------------
 # B3LYP/6-311++G(d,p) empiricaldispersion=gd3bj scf=xqc pop=npa geom=c
 heck
 ----------------------------------------------------------------------

 -------------------------------------
 CID_127363333_JID_7102_Energie_kation
 -------------------------------------
 Structure from the checkpoint file:  "JID_7102.chk"
 Charge =  1 Multiplicity = 2

 SCF Done:  E(UB3LYP) =  -1200.40949703     A.U. after   26 cycles
 Normal termination of Gaussian 16 at Sun Dec 13 16:52:55 2020.
 Gaussian 16:  ES64L-G16RevA.03 25-Dec-2016

 ----------------------------------------------------------------------
 # B3LYP/6-311++G(d,p) empiricaldispersion=gd3bj scf=xqc pop=npa geom=c
 heck
 ----------------------------------------------------------------------

 ------------------------------------
 CID_127363333_JID_7102_Energie_anion
 ------------------------------------
 Structure from the checkpoint file:  "JID_7102.chk"
 Charge = -1 Multiplicity = 2

                         Standard orientation:
 ---------------------------------------------------------------------
 Center     Atomic      Atomic             Coordinates (Angstroms)
 Number     Number       Type             X           Y           Z
 ---------------------------------------------------------------------
      1          6           0       -0.509486    2.779529   -0.759717
      2          6           0       -0.333324    1.310951   -0.363990
      3          6           0        0.959913    1.156585    0.459446
      4          8           0        0.901626    1.453606    1.654120
      5          7           0        2.115905    0.781594   -0.152376
      6          6           0        2.239446    0.166695   -1.474748
      7          6           0        2.582067   -1.318009   -1.316857
      8          8           0        3.765070   -1.480817   -0.545448
      9          6           0        3.609119   -0.923705    0.755004
     10          6           0        3.309160    0.572782    0.675870
     11          7           0       -1.468275    0.894638    0.479292
     12         16           0       -1.699417   -0.786142    0.594913
     13          8           0       -0.589116   -1.487688   -0.072168
     14          8           0       -2.036114   -1.077772    1.989727
     15          6           0       -3.151465   -1.030777   -0.412702
     16          6           0       -4.306893   -0.075830   -0.332902
     17          6           0       -3.462620   -0.132353   -1.579818
     18          1           0       -0.502094    3.412018    0.133087
     19          1           0       -1.459142    2.921019   -1.283891
     20          1           0        0.309501    3.099643   -1.412754
     21          1           0       -0.345724    0.681594   -1.250601
     22          1           0        3.049394    0.675156   -2.013199
     23          1           0        1.323564    0.288033   -2.050871
     24          1           0        1.733809   -1.832573   -0.844343
     25          1           0        2.783174   -1.769698   -2.292932
     26          1           0        4.549226   -1.103465    1.284311
     27          1           0        2.792553   -1.430939    1.291843
     28          1           0        4.152342    1.096502    0.208873
     29          1           0        3.115592    0.996179    1.661038
     30          1           0       -1.298444    1.223346    1.434865
     31          1           0       -3.343650   -2.096032   -0.503368
     32          1           0       -5.303609   -0.505563   -0.342449
     33          1           0       -4.183907    0.795530    0.301667
     34          1           0       -2.805419    0.710375   -1.764432
     35          1           0       -3.857109   -0.610304   -2.471217
 ---------------------------------------------------------------------

 SCF Done:  E(UB3LYP) =  -1200.71564242     A.U. after   33 cycles
 SCF Done:  E(UB3LYP) =  -1200.71564242     a.u. after    1 cycles

 The electronic state is 2-A.
 Alpha  occ. eigenvalues --  -88.97277 -19.04419 -19.02896 -19.02848 -19.00388
 Alpha  occ. eigenvalues --  -14.26350 -14.25341 -10.18633 -10.13819 -10.13710
 Alpha  occ. eigenvalues --  -10.12912 -10.12770 -10.12195 -10.12005 -10.10224
 Alpha  occ. eigenvalues --  -10.10034 -10.08015  -8.03500  -5.99788  -5.99742
 Alpha  occ. eigenvalues --   -5.99565  -1.02977  -0.96497  -0.95454  -0.91990
 Alpha  occ. eigenvalues --   -0.85584  -0.84168  -0.79452  -0.70012  -0.68539
 Alpha  occ. eigenvalues --   -0.63976  -0.60898  -0.58422  -0.55706  -0.53051
 Alpha  occ. eigenvalues --   -0.52791  -0.50695  -0.46841  -0.45029  -0.43762
 Alpha  occ. eigenvalues --   -0.42813  -0.40626  -0.40045  -0.39734  -0.39464
 Alpha  occ. eigenvalues --   -0.38276  -0.37594  -0.35966  -0.35258  -0.34330
 Alpha  occ. eigenvalues --   -0.33433  -0.32390  -0.31901  -0.30963  -0.29349
 Alpha  occ. eigenvalues --   -0.29323  -0.28333  -0.27751  -0.27469  -0.26319
 Alpha  occ. eigenvalues --   -0.26138  -0.24891  -0.23920  -0.22836  -0.21915
 Alpha  occ. eigenvalues --   -0.20813  -0.19847  -0.19603  -0.17644  -0.15310
 Alpha  occ. eigenvalues --    0.03864
 Alpha virt. eigenvalues --    0.05716   0.06909   0.07327   0.07891   0.08515
 Alpha virt. eigenvalues --    0.08739   0.09437   0.09796   0.10217   0.10686
 Alpha virt. eigenvalues --    0.10951   0.11566   0.11958   0.12691   0.13100

  Beta  occ. eigenvalues --  -88.97274 -19.04417 -19.02893 -19.02845 -19.00361
  Beta  occ. eigenvalues --  -14.26353 -14.25328 -10.18614 -10.13815 -10.13703
  Beta  occ. eigenvalues --  -10.12904 -10.12762 -10.12163 -10.11994 -10.10210
  Beta  occ. eigenvalues --  -10.09987 -10.07965  -8.03496  -5.99782  -5.99739
  Beta  occ. eigenvalues --   -5.99562  -1.02966  -0.96478  -0.95423  -0.91984
  Beta  occ. eigenvalues --   -0.85566  -0.84145  -0.79426  -0.69986  -0.68494
  Beta  occ. eigenvalues --   -0.63944  -0.60860  -0.58387  -0.55654  -0.52996
  Beta  occ. eigenvalues --   -0.52726  -0.50665  -0.46799  -0.44989  -0.43730
  Beta  occ. eigenvalues --   -0.42769  -0.40576  -0.40027  -0.39709  -0.39440
  Beta  occ. eigenvalues --   -0.38247  -0.37575  -0.35950  -0.35209  -0.34299
  Beta  occ. eigenvalues --   -0.33400  -0.32349  -0.31864  -0.30916  -0.29314
  Beta  occ. eigenvalues --   -0.29287  -0.28281  -0.27701  -0.27431  -0.26298
  Beta  occ. eigenvalues --   -0.26122  -0.24855  -0.23900  -0.22824  -0.21887
  Beta  occ. eigenvalues --   -0.20801  -0.19818  -0.19581  -0.17617  -0.15267
  Beta virt. eigenvalues --    0.06271   0.06705   0.07444   0.07828   0.08407
  Beta virt. eigenvalues --    0.08898   0.08926   0.09771   0.10297   0.10542
  Beta virt. eigenvalues --    0.10814   0.11404   0.11662   0.12353   0.13046

 Mulliken charges and spin densities:
               1          2
     1  C    1.397620  -1.804692
     2  C   -1.292549   0.512017
     3  C   -0.342426   0.326624
     4  O   -0.295286   0.001220
     5  N    0.089653   0.083329
     6  C    0.512792  -0.433747
     7  C    0.019975  -0.668466
     8  O   -0.161766   0.025046
     9  C   -0.289975  -0.033512
    10  C    0.268312  -0.334284
    11  N   -0.241210   0.121180
    12  S    0.359903  -0.280101
    13  O   -0.131022  -0.000468
    14  O   -0.080926   0.002835
    15  C   -1.284962   1.163962
    16  C    0.506947  -0.852091
    17  C    1.216884  -1.569109
    18  H    0.038309   0.127137
    19  H   -0.115936   0.295601
    20  H   -0.509342   0.681040
    21  H    0.438302  -0.259237
    22  H   -0.347203   0.552769
    23  H   -0.464524   0.630501
    24  H    0.319964  -0.081993
    25  H   -0.141463   0.322215
    26  H    0.127375   0.058702
    27  H    0.163702  -0.000348
    28  H   -0.090864   0.261614
    29  H    0.200342  -0.020505
    30  H    0.297307   0.018808
    31  H   -0.261501   0.551774
    32  H   -0.029732   0.196135
    33  H    0.056192   0.122703
    34  H   -0.199473   0.351864
    35  H   -0.733421   0.931478
 Sum of Mulliken charges =  -1.00000   1.00000

 Dipole moment (field-independent basis, Debye):
    X=              2.5961    Y=             -0.6947    Z=              5.4825  Tot=              6.1058
 Quadrupole moment (field-independent basis, Debye-Ang):
   XX=           -178.9443   YY=           -152.6312   ZZ=           -165.8346
   XY=             -6.4963   XZ=             -3.6791   YZ=              5.1881

 Summary of Natural Population Analysis:

                                       Natural Population
                Natural  -----------------------------------------------
    Atom  No    Charge         Core      Valence    Rydberg      Total
 -----------------------------------------------------------------------
      C    1   -0.28189      0.99963     2.27576    0.00650     3.28189
      C    2   -0.05678      0.99956     2.04282    0.01440     3.05678
      C    3    0.34947      0.99961     1.62654    0.02438     2.65053
      O    4   -0.33711      0.99988     3.33210    0.00513     4.33711
      N    5   -0.25279      0.99963     2.74019    0.01297     3.75279
      C    6   -0.09574      0.99960     2.08431    0.01183     3.09574
      C    7   -0.02173      0.99957     2.00932    0.01284     3.02173
      O    8   -0.29873      0.99989     3.29026    0.00858     4.29873
      C    9   -0.01614      0.99958     2.00591    0.01065     3.01614
      C   10   -0.10347      0.99961     2.09337    0.01048     3.10347
      N   11   -0.43665      0.99975     2.92488    0.01201     3.93665
      S   12    1.10081      4.99925     1.80092    0.09902     6.89919
      O   13   -0.46876      0.99990     3.46370    0.00516     4.46876
      O   14   -0.46142      0.99991     3.45667    0.00484     4.46142
      C   15   -0.22645      0.99950     2.21013    0.01682     3.22645
      C   16   -0.19328      0.99961     2.18377    0.00990     3.19328
      C   17   -0.19116      0.99961     2.17993    0.01162     3.19116
      H   18    0.10277      0.00000     0.39610    0.00114     0.39723
      H   19    0.10701      0.00000     0.39163    0.00137     0.39299
      H   20    0.10732      0.00000     0.39100    0.00168     0.39268
      H   21    0.11115      0.00000     0.38564    0.00320     0.38885
      H   22    0.09895      0.00000     0.39874    0.00231     0.40105
      H   23    0.10899      0.00000     0.38925    0.00176     0.39101
      H   24    0.09464      0.00000     0.40323    0.00213     0.40536
      H   25    0.09347      0.00000     0.40526    0.00127     0.40653
      H   26    0.09076      0.00000     0.40825    0.00099     0.40924
      H   27    0.08549      0.00000     0.41327    0.00124     0.41451
      H   28    0.09668      0.00000     0.40204    0.00128     0.40332
      H   29    0.11824      0.00000     0.38068    0.00108     0.38176
      H   30    0.20839      0.00000     0.28947    0.00215     0.29161
      H   31    0.12313      0.00000     0.37591    0.00096     0.37687
      H   32    0.10763      0.00000     0.39140    0.00097     0.39237
      H   33    0.11218      0.00000     0.38670    0.00112     0.38782
      H   34    0.11229      0.00000     0.38568    0.00204     0.38771
      H   35    0.11273      0.00000     0.38333    0.00394     0.38727
 =======================================================================
   * Total *   -0.00000     20.99410    48.69813    0.30778    70.00000

 Normal termination of Gaussian 16 at Sun Dec 13 17:14:55 2020.
