 Gaussian 16, Revision A.03,

 -----------------------------------------------------------
 # opt freq B3LYP/6-31G(d) empiricaldispersion=gd3bj scf=xqc
 -----------------------------------------------------------

 -------------------------------
 CID_144174823_JID_5522_neutraal
 -------------------------------
 Symbolic Z-matrix:
 Charge =  0 Multiplicity = 1

 SCF Done:  E(RB3LYP) =  -654.113899407     A.U. after   15 cycles
 SCF Done:  E(RB3LYP) =  -654.115667699     A.U. after   12 cycles
 SCF Done:  E(RB3LYP) =  -654.115889794     A.U. after   11 cycles
 SCF Done:  E(RB3LYP) =  -654.115963125     A.U. after   10 cycles
 SCF Done:  E(RB3LYP) =  -654.116037909     A.U. after   11 cycles
 SCF Done:  E(RB3LYP) =  -654.116188724     A.U. after   11 cycles
 SCF Done:  E(RB3LYP) =  -654.116349024     A.U. after   11 cycles
 SCF Done:  E(RB3LYP) =  -654.116507120     A.U. after   12 cycles
 SCF Done:  E(RB3LYP) =  -654.116616929     A.U. after   12 cycles
 SCF Done:  E(RB3LYP) =  -654.116349620     A.U. after   12 cycles
 SCF Done:  E(RB3LYP) =  -654.122204072     A.U. after    7 cycles
 SCF Done:  E(RB3LYP) =  -654.122204159     A.U. after    7 cycles
 SCF Done:  E(RB3LYP) =  -654.122204244     A.U. after    8 cycles
 SCF Done:  E(RB3LYP) =  -654.122204268     A.U. after    7 cycles
 SCF Done:  E(RB3LYP) =  -654.122204276     A.U. after    6 cycles
 Optimization completed.
    -- Stationary point found.
 Normal termination of Gaussian 16 at Thu Dec 10 17:09:23 2020.

 --------------------------------------------------------------------
 #N Geom=AllCheck Guess=TCheck SCRF=Check GenChk RB3LYP/6-31G(d) Freq
 --------------------------------------------------------------------

 Structure from the checkpoint file:  "JID_5522.chk"
 -------------------------------
 CID_144174823_JID_5522_neutraal
 -------------------------------
 Charge =  0 Multiplicity = 1

 SCF Done:  E(RB3LYP) =  -654.122204276     A.U. after    1 cycles

  Exact polarizability: 139.380 -33.126 144.451  -3.790  -5.071 127.979
 Approx polarizability: 187.715 -60.216 229.917 -10.510  -9.182 214.534

                      1                      2                      3
                      A                      A                      A
 Frequencies --     14.8459                30.0147                35.6794
 Red. masses --      3.5829                 3.2788                 5.3690
 Frc consts  --      0.0005                 0.0017                 0.0040
 IR Inten    --      0.5983                 0.0996                 0.0086

                      4                      5                      6
                      A                      A                      A
 Frequencies --     45.3640                65.2361                74.7949
 Red. masses --      4.0236                 3.2775                 5.1783
 Frc consts  --      0.0049                 0.0082                 0.0171
 IR Inten    --      2.0385                 0.0168                 0.7065

                      7                      8                      9
                      A                      A                      A
 Frequencies --     90.8831               113.0757               137.3618
 Red. masses --      3.7656                 1.8102                 4.1936
 Frc consts  --      0.0183                 0.0136                 0.0466
 IR Inten    --      0.5988                 0.0818                 6.7740

                     10                     11                     12
                      A                      A                      A
 Frequencies --    169.6066               226.5311               262.6801
 Red. masses --      2.2153                 1.0309                 1.2131
 Frc consts  --      0.0375                 0.0312                 0.0493
 IR Inten    --      3.5785                 0.1431                 0.0114

                     13                     14                     15
                      A                      A                      A
 Frequencies --    269.4876               281.6506               283.2452
 Red. masses --      2.0611                 3.0866                 1.1902
 Frc consts  --      0.0882                 0.1443                 0.0563
 IR Inten    --      0.0871                 1.2392                 0.1748

                     16                     17                     18
                      A                      A                      A
 Frequencies --    306.8179               338.4070               361.1310
 Red. masses --      1.1154                 2.1017                 2.2353
 Frc consts  --      0.0619                 0.1418                 0.1718
 IR Inten    --      0.0450                 0.0240                 0.1728

                     19                     20                     21
                      A                      A                      A
 Frequencies --    409.4251               412.3110               418.1210
 Red. masses --      5.9532                 2.3883                 3.1977
 Frc consts  --      0.5880                 0.2392                 0.3294
 IR Inten    --      1.7310                 0.2333                 2.1695

                     22                     23                     24
                      A                      A                      A
 Frequencies --    421.8140               444.6654               486.7337
 Red. masses --      2.0510                 4.8517                 2.4099
 Frc consts  --      0.2150                 0.5652                 0.3364
 IR Inten    --      0.1068                 9.4501                 0.3115

                     25                     26                     27
                      A                      A                      A
 Frequencies --    528.5419               627.8628               636.7712
 Red. masses --      4.0026                 2.2271                 2.3639
 Frc consts  --      0.6588                 0.5173                 0.5647
 IR Inten    --      3.1675                79.9547                76.2863

                     28                     29                     30
                      A                      A                      A
 Frequencies --    690.1016               716.2794               727.0127
 Red. masses --      5.5940                 3.0969                 2.1648
 Frc consts  --      1.5696                 0.9361                 0.6741
 IR Inten    --      5.4568                 0.4542                37.8627

                     31                     32                     33
                      A                      A                      A
 Frequencies --    793.2757               818.4263               883.4056
 Red. masses --      1.1800                 1.6688                 2.0213
 Frc consts  --      0.4375                 0.6586                 0.9294
 IR Inten    --      3.0043                24.3633                 0.1196

                     34                     35                     36
                      A                      A                      A
 Frequencies --    895.5875               925.0330               946.0223
 Red. masses --      4.7755                 1.3222                 1.7540
 Frc consts  --      2.2568                 0.6666                 0.9249
 IR Inten    --      3.3233                 0.5868                 1.0480

                     37                     38                     39
                      A                      A                      A
 Frequencies --    947.7035               951.7654               973.8733
 Red. masses --      1.7810                 1.4439                 1.2019
 Frc consts  --      0.9425                 0.7706                 0.6716
 IR Inten    --      0.3441                 3.7979                 0.1288

                     40                     41                     42
                      A                      A                      A
 Frequencies --    984.8761              1013.0441              1023.9583
 Red. masses --      1.3461                 1.2702                 1.2985
 Frc consts  --      0.7693                 0.7680                 0.8021
 IR Inten    --      0.4102                 0.7927                 4.1007

                     43                     44                     45
                      A                      A                      A
 Frequencies --   1034.1574              1039.3521              1041.0537
 Red. masses --      1.6352                 2.3611                 3.3421
 Frc consts  --      1.0304                 1.5028                 2.1341
 IR Inten    --      1.5837                 3.2223                 8.0143

                     46                     47                     48
                      A                      A                      A
 Frequencies --   1076.8706              1109.4353              1119.0052
 Red. masses --      2.4724                 1.6761                 1.4115
 Frc consts  --      1.6893                 1.2155                 1.0414
 IR Inten    --      1.8403                 1.2467                 0.5617

                     49                     50                     51
                      A                      A                      A
 Frequencies --   1152.0339              1227.0399              1240.2330
 Red. masses --      1.4060                 2.6188                 1.7703
 Frc consts  --      1.0994                 2.3231                 1.6044
 IR Inten    --      9.0468                79.8092                25.8654

                     52                     53                     54
                      A                      A                      A
 Frequencies --   1255.2419              1263.5944              1286.0018
 Red. masses --      2.3579                 1.9801                 2.1434
 Frc consts  --      2.1889                 1.8628                 2.0885
 IR Inten    --      9.1719                 2.1260               109.9623

                     55                     56                     57
                      A                      A                      A
 Frequencies --   1292.8066              1314.1970              1351.4495
 Red. masses --      2.7073                 4.6945                 1.3579
 Frc consts  --      2.6660                 4.7770                 1.4612
 IR Inten    --     12.1901                35.6474                 0.8990

                     58                     59                     60
                      A                      A                      A
 Frequencies --   1379.0728              1389.8736              1409.3231
 Red. masses --      1.3540                 1.4692                 1.3195
 Frc consts  --      1.5172                 1.6721                 1.5441
 IR Inten    --     10.1253                 0.1350                38.9702

                     61                     62                     63
                      A                      A                      A
 Frequencies --   1426.8976              1431.1122              1440.9421
 Red. masses --      1.2544                 1.2467                 1.2463
 Frc consts  --      1.5048                 1.5043                 1.5247
 IR Inten    --      4.2899                 6.0277                 3.8009

                     64                     65                     66
                      A                      A                      A
 Frequencies --   1461.1557              1467.9134              1498.1222
 Red. masses --      1.2247                 1.8244                 2.0042
 Frc consts  --      1.5406                 2.3162                 2.6502
 IR Inten    --      5.8575                14.8158                22.8554

                     67                     68                     69
                      A                      A                      A
 Frequencies --   1511.3867              1513.3336              1520.3830
 Red. masses --      1.0610                 1.0509                 1.0520
 Frc consts  --      1.4279                 1.4181                 1.4328
 IR Inten    --      0.8173                 0.9008                 0.8311

                     70                     71                     72
                      A                      A                      A
 Frequencies --   1521.1277              1532.3679              1538.3392
 Red. masses --      1.0455                 1.0469                 1.0747
 Frc consts  --      1.4253                 1.4483                 1.4984
 IR Inten    --      1.2072                 8.3377                 7.3995

                     73                     74                     75
                      A                      A                      A
 Frequencies --   1544.3534              1544.5123              1546.4771
 Red. masses --      1.0586                 1.5001                 1.4126
 Frc consts  --      1.4876                 2.1084                 1.9905
 IR Inten    --      1.7931                38.5572                17.0433

                     76                     77                     78
                      A                      A                      A
 Frequencies --   1552.5567              1634.6324              1651.8402
 Red. masses --      1.0610                 5.3262                 5.8437
 Frc consts  --      1.5067                 8.3852                 9.3945
 IR Inten    --     10.0259                 5.5779                33.4698

                     79                     80                     81
                      A                      A                      A
 Frequencies --   1818.2610              3023.8201              3025.7501
 Red. masses --      6.9959                 1.0871                 1.0629
 Frc consts  --     13.6271                 5.8562                 5.7335
 IR Inten    --    481.9502                37.2890                23.4670

                     82                     83                     84
                      A                      A                      A
 Frequencies --   3034.4810              3040.3500              3048.8632
 Red. masses --      1.0358                 1.0363                 1.0375
 Frc consts  --      5.6192                 5.6437                 5.6823
 IR Inten    --     36.2951                32.2474                14.1171

                     85                     86                     87
                      A                      A                      A
 Frequencies --   3057.7351              3068.0916              3099.6013
 Red. masses --      1.0368                 1.0950                 1.1023
 Frc consts  --      5.7115                 6.0732                 6.2397
 IR Inten    --     15.1714                17.4288                 4.4497

                     88                     89                     90
                      A                      A                      A
 Frequencies --   3103.2927              3104.1483              3108.2446
 Red. masses --      1.1023                 1.1017                 1.1013
 Frc consts  --      6.2544                 6.2546                 6.2687
 IR Inten    --     21.6755                12.1987                58.8251

                     91                     92                     93
                      A                      A                      A
 Frequencies --   3114.1096              3121.3709              3124.9741
 Red. masses --      1.1006                 1.1007                 1.1021
 Frc consts  --      6.2884                 6.3186                 6.3408
 IR Inten    --     87.8703                47.3667                 3.9986

                     94                     95                     96
                      A                      A                      A
 Frequencies --   3128.0225              3182.0203              3186.0732
 Red. masses --      1.1009                 1.0888                 1.0902
 Frc consts  --      6.3464                 6.4954                 6.5203
 IR Inten    --     41.8205                24.4343                 3.4342

                     97                     98                     99
                      A                      A                      A
 Frequencies --   3194.0618              3217.8725              3577.1224
 Red. masses --      1.0908                 1.0967                 1.0761
 Frc consts  --      6.5565                 6.6906                 8.1125
 IR Inten    --     14.7798                12.9670                26.4715

 - Thermochemistry -
 -------------------
 Temperature   298.150 Kelvin.  Pressure   1.00000 Atm.
 Atom     1 has atomic number  6 and mass  12.00000

 Molecular mass:   208.15756 amu.
 Principal axes and moments of inertia in atomic units:
                           1         2         3
     Eigenvalues --  2299.863365122.765356257.81485
           X            0.99994   0.01037   0.00325
           Y           -0.01037   0.99995  -0.00053
           Z           -0.00325   0.00050   0.99999
 This molecule is an asymmetric top.
 Rotational symmetry number  1.
 Warning -- assumption of classical behavior for rotation
           may cause significant error
 Rotational temperatures (Kelvin)      0.03766     0.01691     0.01384
 Rotational constants (GHZ):           0.78472     0.35230     0.28840
 Zero-point vibrational energy     804368.3 (Joules/Mol)
                                  192.24865 (Kcal/Mol)
 Warning -- explicit consideration of  25 degrees of freedom as
           vibrations may cause significant error
 Vibrational temperatures:     21.36    43.18    51.33    65.27    93.86
          (Kelvin)            107.61   130.76   162.69   197.63   244.03
                              325.93   377.94   387.73   405.23   407.53
                              441.44   486.89   519.59   589.07   593.22
                              601.58   606.90   639.77   700.30   760.45
                              903.35   916.17   992.90  1030.57  1046.01
                             1141.35  1177.53  1271.02  1288.55  1330.92
                             1361.12  1363.53  1369.38  1401.19  1417.02
                             1457.54  1473.25  1487.92  1495.40  1497.84
                             1549.38  1596.23  1610.00  1657.52  1765.44
                             1784.42  1806.01  1818.03  1850.27  1860.06
                             1890.84  1944.43  1984.18  1999.72  2027.70
                             2052.99  2059.05  2073.19  2102.28  2112.00
                             2155.46  2174.55  2177.35  2187.49  2188.56
                             2204.74  2213.33  2221.98  2222.21  2225.04
                             2233.78  2351.87  2376.63  2616.07  4350.60
                             4353.38  4365.94  4374.39  4386.63  4399.40
                             4414.30  4459.63  4464.95  4466.18  4472.07
                             4480.51  4490.96  4496.14  4500.53  4578.22
                             4584.05  4595.54  4629.80  5146.68

 Zero-point correction=                           0.306368 (Hartree/Particle)
 Thermal correction to Energy=                    0.323984
 Thermal correction to Enthalpy=                  0.324929
 Thermal correction to Gibbs Free Energy=         0.258219
 Sum of electronic and zero-point Energies=           -653.815837
 Sum of electronic and thermal Energies=              -653.798220
 Sum of electronic and thermal Enthalpies=            -653.797276
 Sum of electronic and thermal Free Energies=         -653.863985

                     E (Thermal)             CV                S
                      KCal/Mol        Cal/Mol-Kelvin    Cal/Mol-Kelvin
 Total                  203.303             63.565            140.401
 Electronic               0.000              0.000              0.000
 Translational            0.889              2.981             41.903
 Rotational               0.889              2.981             32.666
 Vibrational            201.526             57.604             65.832
 Vibration     1          0.593              1.986              7.226
 Vibration     2          0.594              1.984              5.828
 Vibration     3          0.594              1.982              5.486
 Vibration     4          0.595              1.979              5.010
 Vibration     5          0.597              1.971              4.292
 Vibration     6          0.599              1.966              4.023
 Vibration     7          0.602              1.956              3.641
 Vibration     8          0.607              1.939              3.215
 Vibration     9          0.614              1.916              2.840
 Vibration    10          0.625              1.880              2.440
 Vibration    11          0.650              1.801              1.906
 Vibration    12          0.670              1.741              1.644
 Vibration    13          0.674              1.729              1.599
 Vibration    14          0.681              1.708              1.524
 Vibration    15          0.682              1.705              1.514
 Vibration    16          0.697              1.661              1.379
 Vibration    17          0.719              1.599              1.220
 Vibration    18          0.735              1.552              1.117
 Vibration    19          0.774              1.450              0.929
 Vibration    20          0.776              1.444              0.918
 Vibration    21          0.781              1.431              0.898
 Vibration    22          0.784              1.423              0.886
 Vibration    23          0.804              1.373              0.812
 Vibration    24          0.843              1.279              0.692
 Vibration    25          0.883              1.187              0.590

 Optimization completed.
    -- Stationary point found.
 Normal termination of Gaussian 16 at Thu Dec 10 17:22:22 2020.

 ----------------------------------------------------------------------
 # B3LYP/6-311++G(d,p) empiricaldispersion=gd3bj scf=xqc pop=npa geom=c
 heck
 ----------------------------------------------------------------------

 ---------------------------------------
 CID_144174823_JID_5522_Energie_neutraal
 ---------------------------------------
 Structure from the checkpoint file:  "JID_5522.chk"
 Charge =  0 Multiplicity = 1

 SCF Done:  E(RB3LYP) =  -654.308784572     A.U. after   16 cycles
 Normal termination of Gaussian 16 at Thu Dec 10 17:29:42 2020.

 ----------------------------------------------------------------------
 # B3LYP/6-311++G(d,p) empiricaldispersion=gd3bj scf=xqc pop=npa geom=c
 heck
 ----------------------------------------------------------------------

 -------------------------------------
 CID_144174823_JID_5522_Energie_kation
 -------------------------------------
 Structure from the checkpoint file:  "JID_5522.chk"
 Charge =  1 Multiplicity = 2

 SCF Done:  E(UB3LYP) =  -653.982157329     A.U. after   28 cycles
 Normal termination of Gaussian 16 at Thu Dec 10 17:49:28 2020.
 Gaussian 16:  ES64L-G16RevA.03 25-Dec-2016

 ----------------------------------------------------------------------
 # B3LYP/6-311++G(d,p) empiricaldispersion=gd3bj scf=xqc pop=npa geom=c
 heck
 ----------------------------------------------------------------------

 ------------------------------------
 CID_144174823_JID_5522_Energie_anion
 ------------------------------------
 Structure from the checkpoint file:  "JID_5522.chk"
 Charge = -1 Multiplicity = 2

                         Standard orientation:
 ---------------------------------------------------------------------
 Center     Atomic      Atomic             Coordinates (Angstroms)
 Number     Number       Type             X           Y           Z
 ---------------------------------------------------------------------
      1          6           0       -0.581553   -1.519663   -0.902323
      2          6           0       -1.324074   -0.946240    0.307810
      3          6           0       -2.797016   -0.524596    0.083125
      4          6           0       -3.654231   -1.744650   -0.294705
      5          6           0       -3.324164    0.070151    1.400665
      6          6           0       -2.908474    0.542739   -1.019675
      7          6           0        2.962895   -1.388350    1.112326
      8          6           0        2.211640   -0.245283    1.361807
      9          6           0        1.991024    0.654114    0.314861
     10          6           0        2.562520    0.367006   -0.933633
     11          7           0        3.261266   -0.741312   -1.183583
     12          6           0        3.453294   -1.601870   -0.177370
     13          7           0        1.213157    1.809393    0.514945
     14          6           0        0.300012    2.319794   -0.378318
     15          8           0       -0.432392    3.257481   -0.131094
     16          1           0       -1.086191   -2.403521   -1.306904
     17          1           0        0.433954   -1.818926   -0.624297
     18          1           0       -0.495553   -0.788785   -1.713719
     19          1           0       -1.302429   -1.687175    1.119835
     20          1           0       -0.772959   -0.074614    0.683759
     21          1           0       -3.579787   -2.530912    0.466891
     22          1           0       -4.710142   -1.462683   -0.382784
     23          1           0       -3.347950   -2.175096   -1.254288
     24          1           0       -2.744063    0.954784    1.690437
     25          1           0       -4.372669    0.375748    1.303389
     26          1           0       -3.261592   -0.659595    2.217632
     27          1           0       -2.330984    1.439851   -0.770285
     28          1           0       -2.558081    0.165116   -1.986661
     29          1           0       -3.953225    0.849990   -1.148545
     30          1           0        3.153083   -2.110005    1.900451
     31          1           0        1.784581   -0.056656    2.343082
     32          1           0        2.453455    1.067798   -1.758314
     33          1           0        4.031617   -2.493045   -0.410108
     34          1           0        1.150897    2.195554    1.450862
     35          1           0        0.294973    1.776849   -1.338629
 ---------------------------------------------------------------------

 SCF Done:  E(UB3LYP) =  -654.305500799     A.U. after   33 cycles
 SCF Done:  E(UB3LYP) =  -654.305500799     a.u. after    1 cycles

 The electronic state is 2-A.
 Alpha  occ. eigenvalues --  -18.99500 -14.24406 -14.17186 -10.16774 -10.09675
 Alpha  occ. eigenvalues --  -10.08372 -10.08196 -10.07264 -10.06344 -10.05937
 Alpha  occ. eigenvalues --  -10.05919 -10.05740 -10.05728 -10.05047 -10.04964
 Alpha  occ. eigenvalues --   -0.94282  -0.83990  -0.80841  -0.72784  -0.67533
 Alpha  occ. eigenvalues --   -0.63549  -0.63435  -0.59102  -0.58769  -0.54570
 Alpha  occ. eigenvalues --   -0.52197  -0.51684  -0.49298  -0.43192  -0.42945
 Alpha  occ. eigenvalues --   -0.38838  -0.38718  -0.36376  -0.36071  -0.35389
 Alpha  occ. eigenvalues --   -0.34275  -0.33168  -0.32731  -0.31614  -0.31043
 Alpha  occ. eigenvalues --   -0.30339  -0.28806  -0.28070  -0.28005  -0.27187
 Alpha  occ. eigenvalues --   -0.26883  -0.26066  -0.25852  -0.24607  -0.22032
 Alpha  occ. eigenvalues --   -0.21972  -0.21321  -0.20599  -0.16824  -0.16206
 Alpha  occ. eigenvalues --   -0.13619  -0.12105   0.04682
 Alpha virt. eigenvalues --    0.06430   0.07565   0.08026   0.08497   0.08860
 Alpha virt. eigenvalues --    0.09123   0.09479   0.10188   0.10568   0.11097
 Alpha virt. eigenvalues --    0.11561   0.11889   0.12209   0.13026   0.13186

  Beta  occ. eigenvalues --  -18.99451 -14.24418 -14.16831 -10.16714 -10.09592
  Beta  occ. eigenvalues --  -10.08372 -10.08203 -10.07174 -10.06331 -10.05925
  Beta  occ. eigenvalues --  -10.05916 -10.05757 -10.05723 -10.05041 -10.04649
  Beta  occ. eigenvalues --   -0.94187  -0.83832  -0.80430  -0.72777  -0.67067
  Beta  occ. eigenvalues --   -0.63512  -0.63231  -0.59078  -0.58754  -0.54442
  Beta  occ. eigenvalues --   -0.52176  -0.51257  -0.49073  -0.43147  -0.42830
  Beta  occ. eigenvalues --   -0.38694  -0.38515  -0.36346  -0.36049  -0.35224
  Beta  occ. eigenvalues --   -0.34256  -0.33079  -0.32706  -0.31459  -0.30890
  Beta  occ. eigenvalues --   -0.30302  -0.28624  -0.28033  -0.27776  -0.26901
  Beta  occ. eigenvalues --   -0.26499  -0.26036  -0.25726  -0.24591  -0.22016
  Beta  occ. eigenvalues --   -0.21955  -0.21241  -0.20108  -0.16629  -0.15110
  Beta  occ. eigenvalues --   -0.13170  -0.11450
  Beta virt. eigenvalues --    0.06501   0.07992   0.08203   0.08609   0.08954
  Beta virt. eigenvalues --    0.09377   0.09639   0.09830   0.10366   0.10553
  Beta virt. eigenvalues --    0.11155   0.11565   0.12096   0.12339   0.13185

 Mulliken charges and spin densities:
               1          2
     1  C   -0.479517  -0.123230
     2  C   -0.221678  -0.058248
     3  C    0.266533   0.493887
     4  C   -0.316579  -0.321300
     5  C   -0.128632  -0.411548
     6  C   -0.465396  -0.208778
     7  C    0.387519  -0.732687
     8  C   -0.434350   0.839493
     9  C    0.918433  -0.959436
    10  C   -0.555893   0.239343
    11  N   -0.111587   0.146824
    12  C   -0.311617   0.033284
    13  N   -0.082834  -0.010355
    14  C    0.072457  -0.128485
    15  O   -0.329980   0.034002
    16  H    0.086598   0.056291
    17  H    0.138792   0.019701
    18  H    0.090715   0.037643
    19  H    0.154243   0.005817
    20  H    0.351325  -0.205324
    21  H   -0.053464   0.191284
    22  H    0.002690   0.131053
    23  H    0.075125   0.049277
    24  H    0.011951   0.135163
    25  H    0.053595   0.074807
    26  H   -0.034817   0.168226
    27  H    0.128861   0.014375
    28  H    0.091071   0.043117
    29  H    0.108606   0.036415
    30  H   -0.139687   0.285994
    31  H   -0.716071   0.873945
    32  H    0.121440   0.028298
    33  H    0.102886   0.025596
    34  H    0.098122   0.203412
    35  H    0.121141  -0.007854
 Sum of Mulliken charges =  -1.00000   1.00000

 Dipole moment (field-independent basis, Debye):
    X=             -3.0917    Y=             -1.0600    Z=             -2.7452  Tot=              4.2683
 Quadrupole moment (field-independent basis, Debye-Ang):
   XX=           -150.3419   YY=           -132.8755   ZZ=           -126.4028
   XY=              3.6346   XZ=              0.5006   YZ=             -3.7252

 Summary of Natural Population Analysis:

                                       Natural Population
                Natural  -----------------------------------------------
    Atom  No    Charge         Core      Valence    Rydberg      Total
 -----------------------------------------------------------------------
      C    1   -0.28991      0.99966     2.28448    0.00577     3.28991
      C    2   -0.18936      0.99959     2.18047    0.00929     3.18936
      C    3   -0.04929      0.99959     2.03997    0.00973     3.04929
      C    4   -0.28476      0.99963     2.27926    0.00587     3.28476
      C    5   -0.28220      0.99963     2.27675    0.00582     3.28220
      C    6   -0.28917      0.99962     2.28365    0.00590     3.28917
      C    7   -0.12439      0.99956     2.11498    0.00985     3.12439
      C    8   -0.04610      0.99952     2.03544    0.01114     3.04610
      C    9    0.05908      0.99946     1.92905    0.01241     2.94092
      C   10    0.00616      0.99955     1.98121    0.01308     2.99384
      N   11   -0.19169      0.99971     2.68029    0.01169     3.69169
      C   12    0.02352      0.99959     1.96043    0.01645     2.97648
      N   13   -0.30985      0.99967     2.80010    0.01008     3.80985
      C   14    0.27654      0.99974     1.70165    0.02207     2.72346
      O   15   -0.31063      0.99988     3.30464    0.00610     4.31063
      H   16    0.09211      0.00000     0.40709    0.00080     0.40789
      H   17    0.11120      0.00000     0.38775    0.00105     0.38880
      H   18    0.09403      0.00000     0.40505    0.00093     0.40597
      H   19    0.09454      0.00000     0.40431    0.00115     0.40546
      H   20    0.09929      0.00000     0.39799    0.00273     0.40071
      H   21    0.09845      0.00000     0.40067    0.00088     0.40155
      H   22    0.09591      0.00000     0.40325    0.00084     0.40409
      H   23    0.09863      0.00000     0.40052    0.00085     0.40137
      H   24    0.10352      0.00000     0.39552    0.00096     0.39648
      H   25    0.09494      0.00000     0.40426    0.00080     0.40506
      H   26    0.09814      0.00000     0.40093    0.00092     0.40186
      H   27    0.10894      0.00000     0.39000    0.00106     0.39106
      H   28    0.09709      0.00000     0.40214    0.00077     0.40291
      H   29    0.09513      0.00000     0.40408    0.00079     0.40487
      H   30    0.09960      0.00000     0.39947    0.00094     0.40040
      H   31    0.09969      0.00000     0.39839    0.00193     0.40031
      H   32    0.08456      0.00000     0.41392    0.00152     0.41544
      H   33    0.08310      0.00000     0.41571    0.00119     0.41690
      H   34    0.19883      0.00000     0.29787    0.00331     0.30117
      H   35    0.05437      0.00000     0.44365    0.00198     0.44563
 =======================================================================
   * Total *    0.00000     14.99440    41.82493    0.18067    57.00000

 Normal termination of Gaussian 16 at Thu Dec 10 18:07:34 2020.
