 Gaussian 16, Revision A.03,

 -----------------------------------------------------------
 # opt freq B3LYP/6-31G(d) empiricaldispersion=gd3bj scf=xqc
 -----------------------------------------------------------

 -------------------------------
 CID_115774314_JID_6228_neutraal
 -------------------------------
 Symbolic Z-matrix:
 Charge =  0 Multiplicity = 1

 SCF Done:  E(RB3LYP) =  -1074.52238392     A.U. after   14 cycles
 SCF Done:  E(RB3LYP) =  -1074.52648952     A.U. after   12 cycles
 SCF Done:  E(RB3LYP) =  -1074.52754129     A.U. after   12 cycles
 SCF Done:  E(RB3LYP) =  -1074.52856651     A.U. after   12 cycles
 SCF Done:  E(RB3LYP) =  -1074.52689965     A.U. after   14 cycles
 SCF Done:  E(RB3LYP) =  -1074.52979604     A.U. after   12 cycles
 SCF Done:  E(RB3LYP) =  -1074.53022123     A.U. after   12 cycles
 SCF Done:  E(RB3LYP) =  -1074.53046176     A.U. after   11 cycles
 SCF Done:  E(RB3LYP) =  -1074.53049805     A.U. after   11 cycles
 SCF Done:  E(RB3LYP) =  -1074.53052010     A.U. after   10 cycles
 SCF Done:  E(RB3LYP) =  -1074.53052136     A.U. after    8 cycles
 SCF Done:  E(RB3LYP) =  -1074.53052125     A.U. after    7 cycles
 SCF Done:  E(RB3LYP) =  -1074.53052114     A.U. after    7 cycles
 SCF Done:  E(RB3LYP) =  -1074.53052048     A.U. after    8 cycles
 SCF Done:  E(RB3LYP) =  -1074.53052136     A.U. after    8 cycles
 SCF Done:  E(RB3LYP) =  -1074.53052105     A.U. after    8 cycles
 Optimization completed.
    -- Stationary point found.
 Normal termination of Gaussian 16 at Thu Dec 10 21:27:08 2020.

 --------------------------------------------------------------------
 #N Geom=AllCheck Guess=TCheck SCRF=Check GenChk RB3LYP/6-31G(d) Freq
 --------------------------------------------------------------------

 Structure from the checkpoint file:  "JID_6228.chk"
 -------------------------------
 CID_115774314_JID_6228_neutraal
 -------------------------------
 Charge =  0 Multiplicity = 1

 SCF Done:  E(RB3LYP) =  -1074.53052105     A.U. after    1 cycles

  Exact polarizability: 178.252   2.055 138.406   4.722   6.773 138.586
 Approx polarizability: 221.947  12.354 212.359   8.473  21.411 220.534

                      1                      2                      3
                      A                      A                      A
 Frequencies --     29.3819                31.0853                64.6014
 Red. masses --      3.5809                 3.4187                 2.6509
 Frc consts  --      0.0018                 0.0019                 0.0065
 IR Inten    --      1.0678                 1.0880                 0.0206

                      4                      5                      6
                      A                      A                      A
 Frequencies --     69.9196               100.4565               148.7559
 Red. masses --      2.8823                 3.4402                 4.1912
 Frc consts  --      0.0083                 0.0205                 0.0546
 IR Inten    --      0.6659                 1.2913                 0.7057

                      7                      8                      9
                      A                      A                      A
 Frequencies --    193.8567               219.6130               220.2470
 Red. masses --      2.3702                 2.4402                 3.6174
 Frc consts  --      0.0525                 0.0693                 0.1034
 IR Inten    --      1.2224                 0.4064                 2.4554

                     10                     11                     12
                      A                      A                      A
 Frequencies --    223.4669               238.1257               246.7289
 Red. masses --      3.5023                 1.5940                 1.0943
 Frc consts  --      0.1030                 0.0533                 0.0393
 IR Inten    --      0.8800                 0.3823                 0.1171

                     13                     14                     15
                      A                      A                      A
 Frequencies --    258.0834               270.1386               276.3780
 Red. masses --      2.3747                 1.0862                 1.1142
 Frc consts  --      0.0932                 0.0467                 0.0501
 IR Inten    --      0.3895                 0.3573                 1.3946

                     16                     17                     18
                      A                      A                      A
 Frequencies --    308.1311               316.5642               322.9994
 Red. masses --      2.5075                 3.0531                 1.9100
 Frc consts  --      0.1403                 0.1803                 0.1174
 IR Inten    --      1.5714                 4.0821                 1.2223

                     19                     20                     21
                      A                      A                      A
 Frequencies --    329.5337               341.6487               360.4136
 Red. masses --      1.3245                 1.9687                 3.6629
 Frc consts  --      0.0847                 0.1354                 0.2803
 IR Inten    --      0.2031                 1.5582                 0.0560

                     22                     23                     24
                      A                      A                      A
 Frequencies --    389.0706               399.2103               428.8163
 Red. masses --      2.3663                 3.0550                 2.9079
 Frc consts  --      0.2110                 0.2869                 0.3150
 IR Inten    --      0.6195                 8.4794                 6.6402

                     25                     26                     27
                      A                      A                      A
 Frequencies --    455.6705               485.3056               489.3073
 Red. masses --      3.2617                 3.7511                 4.3218
 Frc consts  --      0.3990                 0.5205                 0.6096
 IR Inten    --      0.1002                20.8334                12.5031

                     28                     29                     30
                      A                      A                      A
 Frequencies --    504.8160               536.7080               583.4394
 Red. masses --      2.6766                 4.1317                 3.1596
 Frc consts  --      0.4019                 0.7012                 0.6337
 IR Inten    --      2.0114                17.0255                 3.6766

                     31                     32                     33
                      A                      A                      A
 Frequencies --    590.2814               680.9890               733.0276
 Red. masses --      4.3825                 4.8008                 5.1354
 Frc consts  --      0.8997                 1.3117                 1.6258
 IR Inten    --     18.1045                30.6603               120.4278

                     34                     35                     36
                      A                      A                      A
 Frequencies --    787.8679               834.9012               845.0999
 Red. masses --      2.0958                 2.5602                 1.2773
 Frc consts  --      0.7665                 1.0515                 0.5375
 IR Inten    --      5.9420                 2.0907                 5.2986

                     37                     38                     39
                      A                      A                      A
 Frequencies --    899.6471               940.0342               947.1668
 Red. masses --      2.5590                 1.7763                 3.3107
 Frc consts  --      1.2203                 0.9248                 1.7499
 IR Inten    --      1.8777                 1.4781               145.9011

                     40                     41                     42
                      A                      A                      A
 Frequencies --    951.6398               956.2718               969.5756
 Red. masses --      1.7511                 1.1305                 2.5160
 Frc consts  --      0.9344                 0.6091                 1.3936
 IR Inten    --      7.1493                 1.3359                28.4081

                     43                     44                     45
                      A                      A                      A
 Frequencies --    973.3711               979.4304               998.2843
 Red. masses --      1.2019                 1.4104                 2.0203
 Frc consts  --      0.6709                 0.7972                 1.1862
 IR Inten    --      0.5818                 0.1314                 3.0463

                     46                     47                     48
                      A                      A                      A
 Frequencies --   1023.2317              1054.0952              1059.8372
 Red. masses --      1.9507                 1.5660                 1.4428
 Frc consts  --      1.2033                 1.0252                 0.9548
 IR Inten    --      7.5964                 0.2982                11.3333

                     49                     50                     51
                      A                      A                      A
 Frequencies --   1067.5617              1095.0798              1102.0731
 Red. masses --      2.1332                 1.4716                 2.6705
 Frc consts  --      1.4324                 1.0398                 1.9110
 IR Inten    --      9.9686                 1.4599                72.4504

                     52                     53                     54
                      A                      A                      A
 Frequencies --   1108.8701              1126.7347              1143.0529
 Red. masses --      2.1458                 3.2135                 2.2173
 Frc consts  --      1.5545                 2.4036                 1.7069
 IR Inten    --     50.1439                85.1390                 0.3872

                     55                     56                     57
                      A                      A                      A
 Frequencies --   1197.2750              1212.0610              1236.6137
 Red. masses --      4.0557                 1.8265                 1.5726
 Frc consts  --      3.4253                 1.5810                 1.4168
 IR Inten    --     16.0567                 0.1178                 0.7137

                     58                     59                     60
                      A                      A                      A
 Frequencies --   1247.3158              1255.4157              1277.9047
 Red. masses --      1.6141                 2.5126                 1.3952
 Frc consts  --      1.4795                 2.3332                 1.3424
 IR Inten    --      5.5180                 1.3330                10.7281

                     61                     62                     63
                      A                      A                      A
 Frequencies --   1303.9442              1313.9201              1317.1022
 Red. masses --      2.5074                 5.6975                 1.5663
 Frc consts  --      2.5119                 5.7953                 1.6009
 IR Inten    --     19.9415               151.4736                44.4091

                     64                     65                     66
                      A                      A                      A
 Frequencies --   1334.4815              1352.7348              1358.4605
 Red. masses --      1.3651                 1.4296                 1.3160
 Frc consts  --      1.4323                 1.5413                 1.4309
 IR Inten    --     10.0019                 1.1056                 3.0968

                     67                     68                     69
                      A                      A                      A
 Frequencies --   1390.1901              1408.3636              1422.6653
 Red. masses --      1.3307                 1.8611                 1.3201
 Frc consts  --      1.5152                 2.1749                 1.5742
 IR Inten    --      2.3695                 7.7445                 7.9459

                     70                     71                     72
                      A                      A                      A
 Frequencies --   1425.0059              1425.7315              1428.8345
 Red. masses --      1.2640                 1.2559                 1.2773
 Frc consts  --      1.5122                 1.5042                 1.5364
 IR Inten    --      4.7497                 9.1540                 6.9652

                     73                     74                     75
                      A                      A                      A
 Frequencies --   1443.1074              1457.2883              1499.0130
 Red. masses --      1.2228                 1.2170                 1.0852
 Frc consts  --      1.5004                 1.5228                 1.4368
 IR Inten    --      7.6095                 4.8764                 1.1400

                     76                     77                     78
                      A                      A                      A
 Frequencies --   1514.2702              1516.0071              1518.3819
 Red. masses --      1.0528                 1.0504                 1.0616
 Frc consts  --      1.4223                 1.4224                 1.4421
 IR Inten    --      0.0865                 3.9225                 1.1036

                     79                     80                     81
                      A                      A                      A
 Frequencies --   1519.3908              1523.7302              1528.8436
 Red. masses --      1.0495                 1.0482                 1.0465
 Frc consts  --      1.4275                 1.4338                 1.4412
 IR Inten    --      0.4030                 0.0756                 8.7598

                     82                     83                     84
                      A                      A                      A
 Frequencies --   1530.2279              1534.8168              1536.1492
 Red. masses --      1.0519                 1.0776                 1.0577
 Frc consts  --      1.4512                 1.4957                 1.4705
 IR Inten    --      0.5205                 6.8695                 6.5471

                     85                     86                     87
                      A                      A                      A
 Frequencies --   1539.4204              1549.1086              1553.3202
 Red. masses --      1.0533                 1.0554                 1.0594
 Frc consts  --      1.4707                 1.4922                 1.5060
 IR Inten    --      3.7797                16.5756                12.8552

                     88                     89                     90
                      A                      A                      A
 Frequencies --   1744.2796              2996.5334              3016.9588
 Red. masses --      7.0400                 1.0737                 1.0742
 Frc consts  --     12.6199                 5.6804                 5.7605
 IR Inten    --      0.7768                35.2516                33.4735

                     91                     92                     93
                      A                      A                      A
 Frequencies --   3037.4996              3046.1743              3047.0007
 Red. masses --      1.0626                 1.0350                 1.0357
 Frc consts  --      5.7765                 5.6583                 5.6656
 IR Inten    --     20.5843                26.3348                27.7592

                     94                     95                     96
                      A                      A                      A
 Frequencies --   3054.4148              3060.3760              3064.2168
 Red. masses --      1.0367                 1.0358                 1.0369
 Frc consts  --      5.6986                 5.7158                 5.7363
 IR Inten    --     18.4304                 8.9649                19.6045

                     97                     98                     99
                      A                      A                      A
 Frequencies --   3073.8133              3080.9226              3104.3883
 Red. masses --      1.0838                 1.0959                 1.0880
 Frc consts  --      6.0334                 6.1289                 6.1779
 IR Inten    --      5.6598                38.6105                11.5888

                    100                    101                    102
                      A                      A                      A
 Frequencies --   3112.2918              3112.6330              3118.4939
 Red. masses --      1.1028                 1.1020                 1.1021
 Frc consts  --      6.2939                 6.2907                 6.3150
 IR Inten    --      7.5436                 3.2548                36.7369

                    103                    104                    105
                      A                      A                      A
 Frequencies --   3121.6533              3123.2661              3124.8581
 Red. masses --      1.1024                 1.1018                 1.1024
 Frc consts  --      6.3293                 6.3326                 6.3424
 IR Inten    --     59.8244                32.9404                 1.0749

                    106                    107                    108
                      A                      A                      A
 Frequencies --   3125.7469              3129.8813              3154.6592
 Red. masses --      1.1011                 1.1014                 1.1025
 Frc consts  --      6.3386                 6.3572                 6.4646
 IR Inten    --     52.2692                42.3662                 7.2516

                    109                    110                    111
                      A                      A                      A
 Frequencies --   3156.6540              3162.8853              3204.4360
 Red. masses --      1.1022                 1.0914                 1.0886
 Frc consts  --      6.4706                 6.4330                 6.5859
 IR Inten    --      8.7885                 6.0683                12.3994

 - Thermochemistry -
 -------------------
 Temperature   298.150 Kelvin.  Pressure   1.00000 Atm.
 Atom     1 has atomic number  6 and mass  12.00000

 Molecular mass:   245.14495 amu.
 Principal axes and moments of inertia in atomic units:
                           1         2         3
     Eigenvalues --  1892.047807282.726727372.01237
           X            0.99988  -0.01376   0.00665
           Y            0.01344   0.99885   0.04611
           Z           -0.00728  -0.04601   0.99891
 This molecule is an asymmetric top.
 Rotational symmetry number  1.
 Warning -- assumption of classical behavior for rotation
           may cause significant error
 Rotational temperatures (Kelvin)      0.04578     0.01189     0.01175
 Rotational constants (GHZ):           0.95386     0.24781     0.24481
 Zero-point vibrational energy     905308.3 (Joules/Mol)
                                  216.37388 (Kcal/Mol)
 Warning -- explicit consideration of  31 degrees of freedom as
           vibrations may cause significant error
 Vibrational temperatures:     42.27    44.72    92.95   100.60   144.53
          (Kelvin)            214.03   278.92   315.97   316.89   321.52
                              342.61   354.99   371.32   388.67   397.65
                              443.33   455.47   464.72   474.13   491.56
                              518.55   559.79   574.37   616.97   655.61
                              698.25   704.00   726.32   772.20   839.44
                              849.28   979.79  1054.66  1133.57  1201.24
                             1215.91  1294.39  1352.50  1362.76  1369.20
                             1375.86  1395.00  1400.46  1409.18  1436.31
                             1472.20  1516.61  1524.87  1535.98  1575.58
                             1585.64  1595.42  1621.12  1644.60  1722.61
                             1743.89  1779.21  1794.61  1806.26  1838.62
                             1876.08  1890.44  1895.02  1920.02  1946.28
                             1954.52  2000.17  2026.32  2046.90  2050.27
                             2051.31  2055.77  2076.31  2096.71  2156.75
                             2178.70  2181.20  2184.61  2186.06  2192.31
                             2199.66  2201.66  2208.26  2210.18  2214.88
                             2228.82  2234.88  2509.63  4311.34  4340.73
                             4370.28  4382.77  4383.95  4394.62  4403.20
                             4408.72  4422.53  4432.76  4466.52  4477.89
                             4478.38  4486.82  4491.36  4493.68  4495.97
                             4497.25  4503.20  4538.85  4541.72  4550.69
                             4610.47

 Zero-point correction=                           0.344814 (Hartree/Particle)
 Thermal correction to Energy=                    0.362941
 Thermal correction to Enthalpy=                  0.363885
 Thermal correction to Gibbs Free Energy=         0.299179
 Sum of electronic and zero-point Energies=          -1074.185707
 Sum of electronic and thermal Energies=             -1074.167580
 Sum of electronic and thermal Enthalpies=           -1074.166636
 Sum of electronic and thermal Free Energies=        -1074.231342

                     E (Thermal)             CV                S
                      KCal/Mol        Cal/Mol-Kelvin    Cal/Mol-Kelvin
 Total                  227.749             69.795            136.185
 Electronic               0.000              0.000              0.000
 Translational            0.889              2.981             42.391
 Rotational               0.889              2.981             32.985
 Vibrational            225.971             63.834             60.809
 Vibration     1          0.593              1.984              5.871
 Vibration     2          0.594              1.983              5.759
 Vibration     3          0.597              1.971              4.311
 Vibration     4          0.598              1.968              4.156
 Vibration     5          0.604              1.949              3.445
 Vibration     6          0.618              1.904              2.688
 Vibration     7          0.635              1.848              2.191
 Vibration     8          0.647              1.811              1.962
 Vibration     9          0.647              1.810              1.957
 Vibration    10          0.649              1.805              1.931
 Vibration    11          0.656              1.782              1.817
 Vibration    12          0.661              1.768              1.754
 Vibration    13          0.667              1.749              1.675
 Vibration    14          0.674              1.728              1.595
 Vibration    15          0.678              1.717              1.556
 Vibration    16          0.698              1.658              1.372
 Vibration    17          0.703              1.642              1.328
 Vibration    18          0.708              1.629              1.295
 Vibration    19          0.712              1.617              1.262
 Vibration    20          0.721              1.592              1.204
 Vibration    21          0.735              1.554              1.120
 Vibration    22          0.757              1.494              1.004
 Vibration    23          0.765              1.472              0.966
 Vibration    24          0.790              1.408              0.863
 Vibration    25          0.814              1.348              0.779
 Vibration    26          0.841              1.283              0.696
 Vibration    27          0.845              1.274              0.685
 Vibration    28          0.860              1.239              0.646
 Vibration    29          0.892              1.169              0.572
 Vibration    30          0.940              1.067              0.479
 Vibration    31          0.948              1.052              0.467

 Optimization completed.
    -- Stationary point found.
 Normal termination of Gaussian 16 at Thu Dec 10 21:43:31 2020.

 ----------------------------------------------------------------------
 # B3LYP/6-311++G(d,p) empiricaldispersion=gd3bj scf=xqc pop=npa geom=c
 heck
 ----------------------------------------------------------------------

 ---------------------------------------
 CID_115774314_JID_6228_Energie_neutraal
 ---------------------------------------
 Structure from the checkpoint file:  "JID_6228.chk"
 Charge =  0 Multiplicity = 1

 SCF Done:  E(RB3LYP) =  -1074.74686019     A.U. after   14 cycles
 Normal termination of Gaussian 16 at Thu Dec 10 21:51:56 2020.

 ----------------------------------------------------------------------
 # B3LYP/6-311++G(d,p) empiricaldispersion=gd3bj scf=xqc pop=npa geom=c
 heck
 ----------------------------------------------------------------------

 -------------------------------------
 CID_115774314_JID_6228_Energie_kation
 -------------------------------------
 Structure from the checkpoint file:  "JID_6228.chk"
 Charge =  1 Multiplicity = 2

 SCF Done:  E(UB3LYP) =  -1074.43281797     A.U. after   22 cycles
 Normal termination of Gaussian 16 at Thu Dec 10 22:11:05 2020.
 Gaussian 16:  ES64L-G16RevA.03 25-Dec-2016

 ----------------------------------------------------------------------
 # B3LYP/6-311++G(d,p) empiricaldispersion=gd3bj scf=xqc pop=npa geom=c
 heck
 ----------------------------------------------------------------------

 ------------------------------------
 CID_115774314_JID_6228_Energie_anion
 ------------------------------------
 Structure from the checkpoint file:  "JID_6228.chk"
 Charge = -1 Multiplicity = 2

                         Standard orientation:
 ---------------------------------------------------------------------
 Center     Atomic      Atomic             Coordinates (Angstroms)
 Number     Number       Type             X           Y           Z
 ---------------------------------------------------------------------
      1          6           0       -2.606719    2.191007    0.345740
      2          6           0       -3.047739    1.002062   -0.504104
      3          6           0       -2.567903    1.086061   -1.951014
      4         16           0       -2.486868   -0.562276    0.259156
      5          8           0       -2.896011   -0.537132    1.670348
      6          8           0       -2.896016   -1.661623   -0.625511
      7          7           0       -0.803484   -0.425956    0.186064
      8          6           0       -0.071913   -0.233305    1.444401
      9          6           0        1.222711    0.510654    1.131081
     10          6           0        1.993438   -0.150491    0.003956
     11          6           0        1.350650   -0.981364   -0.825606
     12          6           0       -0.114068   -1.317348   -0.754875
     13          6           0        3.485758    0.168474   -0.111979
     14          6           0        4.103481   -0.385728   -1.405625
     15          6           0        3.686758    1.699719   -0.096444
     16          6           0        4.238249   -0.454454    1.085869
     17          1           0       -1.514981    2.277060    0.343134
     18          1           0       -2.953769    2.093672    1.376925
     19          1           0       -3.020161    3.112724   -0.077391
     20          1           0       -4.138750    0.895107   -0.470709
     21          1           0       -1.476374    1.164693   -1.985291
     22          1           0       -2.881714    0.211313   -2.525584
     23          1           0       -2.988654    1.981190   -2.421436
     24          1           0       -0.698339    0.328837    2.136039
     25          1           0        0.151221   -1.203924    1.912359
     26          1           0        0.987626    1.550472    0.866066
     27          1           0        1.830790    0.555890    2.042417
     28          1           0        1.879972   -1.485617   -1.628019
     29          1           0       -0.246198   -2.375048   -0.474354
     30          1           0       -0.569894   -1.205801   -1.742629
     31          1           0        3.595631    0.008057   -2.292721
     32          1           0        5.159006   -0.098920   -1.465177
     33          1           0        4.057995   -1.479509   -1.441033
     34          1           0        3.326521    2.150413    0.833801
     35          1           0        4.751459    1.942008   -0.190323
     36          1           0        3.156058    2.172309   -0.930932
     37          1           0        3.881813   -0.064544    2.044818
     38          1           0        4.115632   -1.542905    1.096071
     39          1           0        5.309393   -0.231053    1.017925
 ---------------------------------------------------------------------

 SCF Done:  E(UB3LYP) =  -1074.73766928     A.U. after   32 cycles

 The electronic state is 2-A.
 Alpha  occ. eigenvalues --  -88.96574 -19.02684 -19.02665 -14.25277 -10.12854
 Alpha  occ. eigenvalues --  -10.12292 -10.11826 -10.09900 -10.08792 -10.08408
 Alpha  occ. eigenvalues --  -10.08340 -10.08288 -10.07797 -10.06811 -10.06605
 Alpha  occ. eigenvalues --  -10.06533  -8.02841  -5.99137  -5.99106  -5.98859
 Alpha  occ. eigenvalues --   -1.02651  -0.91830  -0.85475  -0.75053  -0.73366
 Alpha  occ. eigenvalues --   -0.68964  -0.67783  -0.61265  -0.60657  -0.59853
 Alpha  occ. eigenvalues --   -0.59533  -0.55504  -0.54495  -0.49960  -0.47439
 Alpha  occ. eigenvalues --   -0.43357  -0.42589  -0.40968  -0.39000  -0.38573
 Alpha  occ. eigenvalues --   -0.37558  -0.37071  -0.36043  -0.35344  -0.34756
 Alpha  occ. eigenvalues --   -0.33340  -0.33049  -0.31872  -0.31791  -0.31213
 Alpha  occ. eigenvalues --   -0.30716  -0.30486  -0.28541  -0.28426  -0.27520
 Alpha  occ. eigenvalues --   -0.27462  -0.27400  -0.27120  -0.25663  -0.24410
 Alpha  occ. eigenvalues --   -0.23420  -0.23251  -0.22650  -0.21680  -0.20823
 Alpha  occ. eigenvalues --   -0.16925  -0.15341   0.03819
 Alpha virt. eigenvalues --    0.05625   0.06918   0.07321   0.07655   0.08300
 Alpha virt. eigenvalues --    0.08667   0.09114   0.09470   0.09781   0.09947
 Alpha virt. eigenvalues --    0.10495   0.10609   0.11808   0.12167   0.12500

  Beta  occ. eigenvalues --  -88.96572 -19.02680 -19.02662 -14.25269 -10.12847
  Beta  occ. eigenvalues --  -10.12284 -10.11818 -10.09897 -10.08791 -10.08385
  Beta  occ. eigenvalues --  -10.08310 -10.08254 -10.07787 -10.06779 -10.06578
  Beta  occ. eigenvalues --  -10.06503  -8.02839  -5.99135  -5.99105  -5.98855
  Beta  occ. eigenvalues --   -1.02641  -0.91822  -0.85462  -0.75036  -0.73343
  Beta  occ. eigenvalues --   -0.68939  -0.67760  -0.61207  -0.60631  -0.59802
  Beta  occ. eigenvalues --   -0.59475  -0.55462  -0.54450  -0.49924  -0.47397
  Beta  occ. eigenvalues --   -0.43330  -0.42567  -0.40941  -0.38978  -0.38542
  Beta  occ. eigenvalues --   -0.37527  -0.37047  -0.36025  -0.35316  -0.34723
  Beta  occ. eigenvalues --   -0.33300  -0.33016  -0.31844  -0.31760  -0.31179
  Beta  occ. eigenvalues --   -0.30684  -0.30455  -0.28510  -0.28396  -0.27489
  Beta  occ. eigenvalues --   -0.27431  -0.27365  -0.27092  -0.25648  -0.24376
  Beta  occ. eigenvalues --   -0.23392  -0.23238  -0.22626  -0.21674  -0.20804
  Beta  occ. eigenvalues --   -0.16905  -0.15324
  Beta virt. eigenvalues --    0.05880   0.06581   0.07488   0.07708   0.08211
  Beta virt. eigenvalues --    0.08674   0.09002   0.09380   0.09668   0.09990
  Beta virt. eigenvalues --    0.10274   0.10865   0.10978   0.12027   0.12388

 Mulliken charges and spin densities:
               1          2
     1  C    0.631290  -1.208777
     2  C   -1.579324   1.434012
     3  C    0.530930  -1.179762
     4  S    1.305663  -0.867564
     5  O   -0.168640   0.008301
     6  O   -0.179309   0.015691
     7  N   -0.005887   0.128562
     8  C    0.501914  -1.265078
     9  C   -1.026402   0.595805
    10  C    0.449683   0.087227
    11  C   -0.658754   0.231128
    12  C    1.229935  -1.571355
    13  C   -1.875648   2.355767
    14  C   -0.111700  -0.397499
    15  C    0.478188  -1.140633
    16  C    0.875753  -1.581013
    17  H   -0.164161   0.364051
    18  H    0.092566   0.073486
    19  H   -0.478027   0.650985
    20  H    0.070286   0.194220
    21  H    0.099924   0.088543
    22  H    0.070724   0.104869
    23  H   -0.413769   0.576041
    24  H    0.110670   0.108064
    25  H    0.141264   0.036178
    26  H    0.154133  -0.001982
    27  H   -0.006221   0.158660
    28  H   -0.053470   0.223361
    29  H    0.167086   0.049273
    30  H    0.116835   0.078774
    31  H   -0.116596   0.259684
    32  H   -0.171376   0.338570
    33  H   -0.097468   0.226659
    34  H   -0.341381   0.502151
    35  H   -0.220445   0.373715
    36  H   -0.030604   0.186633
    37  H   -0.126203   0.258385
    38  H   -0.073055   0.222193
    39  H   -0.128402   0.282675
 Sum of Mulliken charges =  -1.00000   1.00000

 Dipole moment (field-independent basis, Debye):
    X=             -1.9660    Y=             -3.0097    Z=              0.6222  Tot=              3.6484
 Quadrupole moment (field-independent basis, Debye-Ang):
   XX=           -202.6271   YY=           -158.4337   ZZ=           -149.2666
   XY=             -1.5698   XZ=             -1.3408   YZ=              3.7612

 Summary of Natural Population Analysis:

                                       Natural Population
                Natural  -----------------------------------------------
    Atom  No    Charge         Core      Valence    Rydberg      Total
 -----------------------------------------------------------------------
      C    1   -0.29668      0.99963     2.28992    0.00713     3.29668
      C    2   -0.19570      0.99958     2.18122    0.01491     3.19570
      C    3   -0.29750      0.99963     2.29074    0.00712     3.29750
      S    4    1.10504      4.99919     1.79751    0.09826     6.89496
      O    5   -0.46733      0.99991     3.46229    0.00514     4.46733
      O    6   -0.46744      0.99991     3.46242    0.00512     4.46744
      N    7   -0.38206      0.99971     2.86865    0.01370     3.88206
      C    8   -0.08122      0.99961     2.07013    0.01148     3.08122
      C    9   -0.20903      0.99957     2.20016    0.00930     3.20903
      C   10    0.00683      0.99945     1.98012    0.01360     2.99317
      C   11   -0.10705      0.99943     2.09893    0.00869     3.10705
      C   12   -0.09474      0.99959     2.08393    0.01122     3.09474
      C   13   -0.05784      0.99955     2.04522    0.01306     3.05784
      C   14   -0.28437      0.99964     2.27814    0.00660     3.28437
      C   15   -0.28276      0.99963     2.27553    0.00760     3.28276
      C   16   -0.28022      0.99962     2.27335    0.00726     3.28022
      H   17    0.10537      0.00000     0.39269    0.00194     0.39463
      H   18    0.10977      0.00000     0.38912    0.00111     0.39023
      H   19    0.10768      0.00000     0.39084    0.00148     0.39232
      H   20    0.11084      0.00000     0.38801    0.00115     0.38916
      H   21    0.10683      0.00000     0.39142    0.00175     0.39317
      H   22    0.10922      0.00000     0.38968    0.00109     0.39078
      H   23    0.10748      0.00000     0.39119    0.00133     0.39252
      H   24    0.11233      0.00000     0.38658    0.00109     0.38767
      H   25    0.08912      0.00000     0.40963    0.00125     0.41088
      H   26    0.10764      0.00000     0.39040    0.00196     0.39236
      H   27    0.10623      0.00000     0.39258    0.00119     0.39377
      H   28    0.10346      0.00000     0.39544    0.00110     0.39654
      H   29    0.09715      0.00000     0.40163    0.00122     0.40285
      H   30    0.10908      0.00000     0.38979    0.00113     0.39092
      H   31    0.10327      0.00000     0.39558    0.00116     0.39673
      H   32    0.10171      0.00000     0.39725    0.00103     0.39829
      H   33    0.09975      0.00000     0.39913    0.00113     0.40025
      H   34    0.10122      0.00000     0.39751    0.00127     0.39878
      H   35    0.10029      0.00000     0.39865    0.00107     0.39971
      H   36    0.10287      0.00000     0.39592    0.00121     0.39713
      H   37    0.09936      0.00000     0.39954    0.00109     0.40064
      H   38    0.10062      0.00000     0.39837    0.00100     0.39938
      H   39    0.10079      0.00000     0.39821    0.00100     0.39921
 =======================================================================
   * Total *    0.00000     19.99365    46.73741    0.26895    67.00000

 Normal termination of Gaussian 16 at Thu Dec 10 22:38:28 2020.
