 Gaussian 16, Revision A.03,

 -----------------------------------------------------------
 # opt freq B3LYP/6-31G(d) empiricaldispersion=gd3bj scf=xqc
 -----------------------------------------------------------

 -------------------------------
 CID_130188321_JID_7442_neutraal
 -------------------------------
 Symbolic Z-matrix:
 Charge =  0 Multiplicity = 1

 SCF Done:  E(RB3LYP) =  -679.591863612     A.U. after   14 cycles
 SCF Done:  E(RB3LYP) =  -679.594823385     A.U. after   12 cycles
 SCF Done:  E(RB3LYP) =  -679.594937779     A.U. after   12 cycles
 SCF Done:  E(RB3LYP) =  -679.596108053     A.U. after   12 cycles
 SCF Done:  E(RB3LYP) =  -679.596852536     A.U. after   12 cycles
 SCF Done:  E(RB3LYP) =  -679.597415591     A.U. after   12 cycles
 SCF Done:  E(RB3LYP) =  -679.597757042     A.U. after   11 cycles
 SCF Done:  E(RB3LYP) =  -679.597879017     A.U. after   10 cycles
 SCF Done:  E(RB3LYP) =  -679.597899513     A.U. after   11 cycles
 SCF Done:  E(RB3LYP) =  -679.597912283     A.U. after    9 cycles
 SCF Done:  E(RB3LYP) =  -679.597915543     A.U. after    9 cycles
 SCF Done:  E(RB3LYP) =  -679.597915978     A.U. after    7 cycles
 SCF Done:  E(RB3LYP) =  -679.597916050     A.U. after    7 cycles
 SCF Done:  E(RB3LYP) =  -679.597916080     A.U. after    5 cycles
 Optimization completed.
    -- Stationary point found.
 Normal termination of Gaussian 16 at Fri Dec 11 12:11:47 2020.

 --------------------------------------------------------------------
 #N Geom=AllCheck Guess=TCheck SCRF=Check GenChk RB3LYP/6-31G(d) Freq
 --------------------------------------------------------------------

 Structure from the checkpoint file:  "JID_7442.chk"
 -------------------------------
 CID_130188321_JID_7442_neutraal
 -------------------------------
 Charge =  0 Multiplicity = 1

 SCF Done:  E(RB3LYP) =  -679.597916081     A.U. after    1 cycles

  Exact polarizability: 199.645  -4.420 157.581  -1.417 -16.022 144.693
 Approx polarizability: 279.543  -7.283 216.793  -5.804 -38.250 238.403

                      1                      2                      3
                      A                      A                      A
 Frequencies --     29.6005                58.7193                61.7684
 Red. masses --      3.4348                 3.5216                 2.8810
 Frc consts  --      0.0018                 0.0072                 0.0065
 IR Inten    --      0.1233                 0.0488                 0.0442

                      4                      5                      6
                      A                      A                      A
 Frequencies --     74.8621                88.0015               115.3910
 Red. masses --      3.4152                 2.6364                 3.1949
 Frc consts  --      0.0113                 0.0120                 0.0251
 IR Inten    --      0.0426                 0.0064                 0.2640

                      7                      8                      9
                      A                      A                      A
 Frequencies --    187.3853               208.6215               213.5838
 Red. masses --      3.5440                 2.2573                 2.1450
 Frc consts  --      0.0733                 0.0579                 0.0577
 IR Inten    --      0.1918                 0.4926                 0.1935

                     10                     11                     12
                      A                      A                      A
 Frequencies --    248.1090               251.3853               258.6484
 Red. masses --      1.4784                 1.3824                 1.3841
 Frc consts  --      0.0536                 0.0515                 0.0546
 IR Inten    --      0.1279                 0.1414                 0.1981

                     13                     14                     15
                      A                      A                      A
 Frequencies --    267.1917               278.3446               292.6525
 Red. masses --      1.3857                 2.4397                 1.2613
 Frc consts  --      0.0583                 0.1114                 0.0636
 IR Inten    --      0.2670                 0.1283                 0.0066

                     16                     17                     18
                      A                      A                      A
 Frequencies --    316.0446               324.1028               365.7141
 Red. masses --      2.5834                 2.7206                 2.4703
 Frc consts  --      0.1520                 0.1684                 0.1947
 IR Inten    --      0.6911                 1.7385                 0.0417

                     19                     20                     21
                      A                      A                      A
 Frequencies --    384.3051               419.2542               439.4044
 Red. masses --      2.1721                 3.0178                 2.3981
 Frc consts  --      0.1890                 0.3125                 0.2728
 IR Inten    --      0.5515                 0.3234                 0.1338

                     22                     23                     24
                      A                      A                      A
 Frequencies --    464.8692               474.1836               523.8745
 Red. masses --      2.4208                 3.2751                 2.6917
 Frc consts  --      0.3082                 0.4339                 0.4352
 IR Inten    --      1.1800                 0.3251                 0.4272

                     25                     26                     27
                      A                      A                      A
 Frequencies --    550.6961               589.2970               637.0918
 Red. masses --      3.1073                 2.6521                 6.3032
 Frc consts  --      0.5552                 0.5426                 1.5074
 IR Inten    --      4.5162                 3.4450                 0.0585

                     28                     29                     30
                      A                      A                      A
 Frequencies --    641.9548               701.1813               716.2883
 Red. masses --      4.2474                 3.0719                 2.0309
 Frc consts  --      1.0313                 0.8898                 0.6139
 IR Inten    --      4.5161                 2.8633                19.1291

                     31                     32                     33
                      A                      A                      A
 Frequencies --    753.0091               793.6536               852.5853
 Red. masses --      1.9400                 2.1740                 3.0658
 Frc consts  --      0.6481                 0.8068                 1.3130
 IR Inten    --     22.4312                 7.7607                 3.8838

                     34                     35                     36
                      A                      A                      A
 Frequencies --    863.0721               865.8883               893.0040
 Red. masses --      1.2781                 3.4365                 2.0219
 Frc consts  --      0.5609                 1.5181                 0.9500
 IR Inten    --      0.7553                 2.2262                 1.2602

                     37                     38                     39
                      A                      A                      A
 Frequencies --    915.2301               921.1102               941.7762
 Red. masses --      2.2258                 1.8720                 1.1972
 Frc consts  --      1.0985                 0.9358                 0.6256
 IR Inten    --      1.3699                 5.9323                 0.8124

                     40                     41                     42
                      A                      A                      A
 Frequencies --    942.1028               954.4445               969.4474
 Red. masses --      1.1575                 2.0188                 1.3436
 Frc consts  --      0.6053                 1.0836                 0.7440
 IR Inten    --      0.9842                 2.7685                 0.8030

                     43                     44                     45
                      A                      A                      A
 Frequencies --    972.5078               975.8690               987.7079
 Red. masses --      1.4713                 1.5211                 1.8873
 Frc consts  --      0.8199                 0.8535                 1.0848
 IR Inten    --      0.0836                 0.6138                 2.4139

                     46                     47                     48
                      A                      A                      A
 Frequencies --    994.8025              1007.6655              1022.7221
 Red. masses --      1.3701                 2.1283                 6.1657
 Frc consts  --      0.7989                 1.2733                 3.7997
 IR Inten    --      1.8199                 1.7682                 0.5322

                     49                     50                     51
                      A                      A                      A
 Frequencies --   1045.9837              1060.4865              1068.8372
 Red. masses --      2.2912                 2.1377                 1.7618
 Frc consts  --      1.4770                 1.4164                 1.1858
 IR Inten    --      9.3465                 6.4612                 2.7519

                     52                     53                     54
                      A                      A                      A
 Frequencies --   1093.0679              1111.2329              1127.2507
 Red. masses --      1.7152                 1.6062                 2.3341
 Frc consts  --      1.2074                 1.1686                 1.7475
 IR Inten    --      2.7870                 4.5764                10.4416

                     55                     56                     57
                      A                      A                      A
 Frequencies --   1145.3831              1171.3333              1191.1939
 Red. masses --      1.9218                 1.9598                 1.1219
 Frc consts  --      1.4855                 1.5843                 0.9380
 IR Inten    --      7.8458                 3.6904                 0.0722

                     58                     59                     60
                      A                      A                      A
 Frequencies --   1193.0214              1205.3644              1207.2861
 Red. masses --      1.7728                 2.0864                 1.1742
 Frc consts  --      1.4867                 1.7860                 1.0084
 IR Inten    --     12.8975                 3.7661                 3.0792

                     61                     62                     63
                      A                      A                      A
 Frequencies --   1217.0157              1226.9190              1236.2098
 Red. masses --      1.6058                 2.2485                 1.5538
 Frc consts  --      1.4013                 1.9942                 1.3991
 IR Inten    --     12.3922                21.9604                 9.1261

                     64                     65                     66
                      A                      A                      A
 Frequencies --   1240.3232              1263.0523              1295.9665
 Red. masses --      2.2926                 1.5589                 1.5302
 Frc consts  --      2.0781                 1.4652                 1.5142
 IR Inten    --     20.3013                16.3199                 0.3654

                     67                     68                     69
                      A                      A                      A
 Frequencies --   1321.5642              1332.9533              1359.2555
 Red. masses --      1.2558                 1.5977                 1.3620
 Frc consts  --      1.2923                 1.6726                 1.4826
 IR Inten    --      8.2143                17.7042                 3.4791

                     70                     71                     72
                      A                      A                      A
 Frequencies --   1363.4910              1364.6670              1374.2972
 Red. masses --      1.4611                 2.4310                 1.3771
 Frc consts  --      1.6004                 2.6674                 1.5325
 IR Inten    --      3.4748                 1.5446                17.0016

                     73                     74                     75
                      A                      A                      A
 Frequencies --   1381.2823              1383.0559              1394.2056
 Red. masses --      1.4400                 1.4194                 1.4558
 Frc consts  --      1.6187                 1.5996                 1.6673
 IR Inten    --     16.2730                28.9591                 9.2433

                     76                     77                     78
                      A                      A                      A
 Frequencies --   1413.3225              1427.8122              1431.7365
 Red. masses --      1.3388                 1.3678                 1.3544
 Frc consts  --      1.5756                 1.6429                 1.6358
 IR Inten    --      4.1537                 6.8062                 4.2577

                     79                     80                     81
                      A                      A                      A
 Frequencies --   1433.3306              1449.6477              1452.6801
 Red. masses --      1.2996                 1.2480                 1.2446
 Frc consts  --      1.5731                 1.5452                 1.5475
 IR Inten    --      8.5547                14.0686                 6.9820

                     82                     83                     84
                      A                      A                      A
 Frequencies --   1503.1543              1514.8649              1516.2602
 Red. masses --      2.1172                 1.0585                 1.0558
 Frc consts  --      2.8184                 1.4312                 1.4301
 IR Inten    --      6.2326                 0.6116                 2.7553

                     85                     86                     87
                      A                      A                      A
 Frequencies --   1519.0999              1521.9308              1529.2469
 Red. masses --      1.0747                 1.0430                 1.0685
 Frc consts  --      1.4612                 1.4233                 1.4722
 IR Inten    --      3.7667                 1.0923                 2.4685

                     88                     89                     90
                      A                      A                      A
 Frequencies --   1531.4497              1537.3286              1539.5031
 Red. masses --      1.0610                 1.0637                 1.0695
 Frc consts  --      1.4661                 1.4812                 1.4934
 IR Inten    --      4.2925                19.7847                 8.6768

                     91                     92                     93
                      A                      A                      A
 Frequencies --   1544.8948              1547.0796              1563.9506
 Red. masses --      1.6206                 1.2363                 1.0903
 Frc consts  --      2.2789                 1.7434                 1.5713
 IR Inten    --      4.8514                16.4779                 0.6067

                     94                     95                     96
                      A                      A                      A
 Frequencies --   1647.3472              1666.1679              2879.5382
 Red. masses --      5.6000                 5.6315                 1.0805
 Frc consts  --      8.9538                 9.2111                 5.2787
 IR Inten    --      1.2892                 8.6460                71.9699

                     97                     98                     99
                      A                      A                      A
 Frequencies --   2955.4856              2972.6944              3008.7592
 Red. masses --      1.0735                 1.0817                 1.0837
 Frc consts  --      5.5248                 5.6320                 5.7800
 IR Inten    --     63.2404                56.8106                25.5484

                    100                    101                    102
                      A                      A                      A
 Frequencies --   3043.8568              3049.1046              3053.7311
 Red. masses --      1.0353                 1.0366                 1.0365
 Frc consts  --      5.6514                 5.6783                 5.6948
 IR Inten    --     26.1656                21.8029                16.2255

                    103                    104                    105
                      A                      A                      A
 Frequencies --   3061.1443              3061.8764              3074.5348
 Red. masses --      1.0613                 1.0441                 1.0800
 Frc consts  --      5.8592                 5.7674                 6.0152
 IR Inten    --      3.7830                31.3422                34.8476

                    106                    107                    108
                      A                      A                      A
 Frequencies --   3087.3794              3105.1990              3108.0231
 Red. masses --      1.0860                 1.1020                 1.1056
 Frc consts  --      6.0987                 6.2604                 6.2923
 IR Inten    --     51.6238                 4.1882                27.9716

                    109                    110                    111
                      A                      A                      A
 Frequencies --   3111.6105              3116.0223              3120.9676
 Red. masses --      1.1009                 1.1024                 1.1022
 Frc consts  --      6.2803                 6.3067                 6.3255
 IR Inten    --    104.0600                34.6754                 3.0120

                    112                    113                    114
                      A                      A                      A
 Frequencies --   3124.1826              3128.8628              3133.1993
 Red. masses --      1.1007                 1.1015                 1.1012
 Frc consts  --      6.3296                 6.3536                 6.3693
 IR Inten    --     29.3324                64.3172                32.7748

                    115                    116                    117
                      A                      A                      A
 Frequencies --   3147.6163              3175.5042              3182.6389
 Red. masses --      1.1004                 1.0845                 1.0875
 Frc consts  --      6.4231                 6.4433                 6.4900
 IR Inten    --     21.9338                 5.1744                 2.9155

                    118                    119                    120
                      A                      A                      A
 Frequencies --   3192.6127              3205.1471              3215.2548
 Red. masses --      1.0919                 1.0958                 1.0931
 Frc consts  --      6.5575                 6.6326                 6.6578
 IR Inten    --     35.9297                34.8470                 8.4226

 - Thermochemistry -
 -------------------
 Temperature   298.150 Kelvin.  Pressure   1.00000 Atm.
 Atom     1 has atomic number  6 and mass  12.00000

 Molecular mass:   231.19870 amu.
 Principal axes and moments of inertia in atomic units:
                           1         2         3
     Eigenvalues --  3258.251784389.331226110.56045
           X            0.99994   0.01085  -0.00050
           Y           -0.01085   0.99993  -0.00542
           Z            0.00044   0.00542   0.99999
 This molecule is an asymmetric top.
 Rotational symmetry number  1.
 Warning -- assumption of classical behavior for rotation
           may cause significant error
 Rotational temperatures (Kelvin)      0.02658     0.01973     0.01417
 Rotational constants (GHZ):           0.55390     0.41117     0.29535
 Zero-point vibrational energy    1003604.6 (Joules/Mol)
                                  239.86725 (Kcal/Mol)
 Warning -- explicit consideration of  26 degrees of freedom as
           vibrations may cause significant error
 Vibrational temperatures:     42.59    84.48    88.87   107.71   126.61
          (Kelvin)            166.02   269.61   300.16   307.30   356.97
                              361.69   372.14   384.43   400.48   421.06
                              454.72   466.31   526.18   552.93   603.21
                              632.20   668.84   682.24   753.74   792.33
                              847.87   916.63   923.63  1008.84  1030.58
                             1083.41  1141.89  1226.68  1241.77  1245.82
                             1284.83  1316.81  1325.27  1355.01  1355.48
                             1373.23  1394.82  1399.22  1404.06  1421.09
                             1431.30  1449.81  1471.47  1504.94  1525.80
                             1537.82  1572.68  1598.82  1621.86  1647.95
                             1685.29  1713.86  1716.49  1734.25  1737.02
                             1751.01  1765.26  1778.63  1784.55  1817.25
                             1864.61  1901.44  1917.82  1955.67  1961.76
                             1963.45  1977.31  1987.36  1989.91  2005.95
                             2033.46  2054.30  2059.95  2062.24  2085.72
                             2090.08  2162.70  2179.55  2181.56  2185.65
                             2189.72  2200.25  2203.41  2211.87  2215.00
                             2222.76  2225.90  2250.18  2370.17  2397.24
                             4143.01  4252.28  4277.04  4328.93  4379.43
                             4386.98  4393.64  4404.30  4405.36  4423.57
                             4442.05  4467.69  4471.75  4476.91  4483.26
                             4490.38  4495.00  4501.74  4507.97  4528.72
                             4568.84  4579.11  4593.46  4611.49  4626.03

 Zero-point correction=                           0.382253 (Hartree/Particle)
 Thermal correction to Energy=                    0.399320
 Thermal correction to Enthalpy=                  0.400265
 Thermal correction to Gibbs Free Energy=         0.337843
 Sum of electronic and zero-point Energies=           -679.215663
 Sum of electronic and thermal Energies=              -679.198596
 Sum of electronic and thermal Enthalpies=            -679.197651
 Sum of electronic and thermal Free Energies=         -679.260073

                     E (Thermal)             CV                S
                      KCal/Mol        Cal/Mol-Kelvin    Cal/Mol-Kelvin
 Total                  250.577             67.566            131.378
 Electronic               0.000              0.000              0.000
 Translational            0.889              2.981             42.216
 Rotational               0.889              2.981             32.835
 Vibrational            248.800             61.604             56.326
 Vibration     1          0.593              1.984              5.856
 Vibration     2          0.596              1.974              4.500
 Vibration     3          0.597              1.973              4.400
 Vibration     4          0.599              1.966              4.021
 Vibration     5          0.601              1.958              3.704
 Vibration     6          0.608              1.937              3.176
 Vibration     7          0.632              1.857              2.254
 Vibration     8          0.642              1.828              2.056
 Vibration     9          0.644              1.820              2.013
 Vibration    10          0.662              1.766              1.744
 Vibration    11          0.663              1.760              1.721
 Vibration    12          0.667              1.748              1.671
 Vibration    13          0.672              1.733              1.614
 Vibration    14          0.679              1.714              1.544
 Vibration    15          0.688              1.687              1.459
 Vibration    16          0.703              1.643              1.330
 Vibration    17          0.709              1.627              1.289
 Vibration    18          0.739              1.543              1.098
 Vibration    19          0.753              1.504              1.022
 Vibration    20          0.782              1.428              0.895
 Vibration    21          0.799              1.384              0.828
 Vibration    22          0.822              1.328              0.752
 Vibration    23          0.831              1.307              0.726
 Vibration    24          0.879              1.197              0.601
 Vibration    25          0.906              1.138              0.543
 Vibration    26          0.947              1.055              0.468

 Optimization completed.
    -- Stationary point found.
 Normal termination of Gaussian 16 at Fri Dec 11 12:34:02 2020.

 ----------------------------------------------------------------------
 # B3LYP/6-311++G(d,p) empiricaldispersion=gd3bj scf=xqc pop=npa geom=c
 heck
 ----------------------------------------------------------------------

 ---------------------------------------
 CID_130188321_JID_7442_Energie_neutraal
 ---------------------------------------
 Structure from the checkpoint file:  "JID_7442.chk"
 Charge =  0 Multiplicity = 1

 SCF Done:  E(RB3LYP) =  -679.776169465     A.U. after   14 cycles
 Normal termination of Gaussian 16 at Fri Dec 11 12:46:41 2020.

 ----------------------------------------------------------------------
 # B3LYP/6-311++G(d,p) empiricaldispersion=gd3bj scf=xqc pop=npa geom=c
 heck
 ----------------------------------------------------------------------

 -------------------------------------
 CID_130188321_JID_7442_Energie_kation
 -------------------------------------
 Structure from the checkpoint file:  "JID_7442.chk"
 Charge =  1 Multiplicity = 2

 SCF Done:  E(UB3LYP) =  -679.496969373     A.U. after   24 cycles
 Normal termination of Gaussian 16 at Fri Dec 11 13:06:41 2020.
 Gaussian 16:  ES64L-G16RevA.03 25-Dec-2016

 ----------------------------------------------------------------------
 # B3LYP/6-311++G(d,p) empiricaldispersion=gd3bj scf=xqc pop=npa geom=c
 heck
 ----------------------------------------------------------------------

 ------------------------------------
 CID_130188321_JID_7442_Energie_anion
 ------------------------------------
 Structure from the checkpoint file:  "JID_7442.chk"
 Charge = -1 Multiplicity = 2

                         Standard orientation:
 ---------------------------------------------------------------------
 Center     Atomic      Atomic             Coordinates (Angstroms)
 Number     Number       Type             X           Y           Z
 ---------------------------------------------------------------------
      1          6           0        2.966665    1.732245   -0.710249
      2          6           0        1.764114    2.279625    0.069914
      3          6           0        0.885332    3.147584   -0.841010
      4          6           0        0.932738    1.205307    0.809945
      5          6           0        1.746097    0.361679    1.812960
      6          6           0        2.039185   -0.935405    1.066294
      7          7           0        0.825245   -1.168946    0.281954
      8          6           0        0.264532    0.136748   -0.119427
      9          6           0       -1.250134    0.173785    0.002492
     10          6           0       -1.895270   -0.506677    1.040552
     11          6           0       -3.278364   -0.422405    1.193541
     12          6           0       -4.039592    0.342342    0.306990
     13          6           0       -3.405048    1.018607   -0.735285
     14          6           0       -2.020129    0.932956   -0.883825
     15          6           0        0.989728   -2.129442   -0.814492
     16          6           0        1.553869   -3.454005   -0.288462
     17          6           0       -0.331419   -2.392140   -1.544225
     18          1           0        2.654879    1.027958   -1.490746
     19          1           0        3.678232    1.215793   -0.058569
     20          1           0        3.503526    2.550948   -1.203253
     21          1           0        2.160077    2.935767    0.859587
     22          1           0        0.529348    2.581450   -1.709502
     23          1           0        0.005898    3.526876   -0.308514
     24          1           0        1.451193    4.005411   -1.222083
     25          1           0        0.143985    1.745486    1.343115
     26          1           0        1.136627    0.143832    2.696360
     27          1           0        2.655569    0.867730    2.153607
     28          1           0        2.932573   -0.829825    0.423964
     29          1           0        2.226277   -1.771585    1.747278
     30          1           0        0.527310    0.358082   -1.166931
     31          1           0       -1.296681   -1.121348    1.704824
     32          1           0       -3.765107   -0.959845    2.003366
     33          1           0       -5.118049    0.404560    0.423415
     34          1           0       -3.987913    1.608699   -1.437594
     35          1           0       -1.532896    1.457210   -1.702113
     36          1           0        1.712353   -1.720636   -1.553659
     37          1           0        0.899304   -3.855234    0.493920
     38          1           0        1.609025   -4.185842   -1.101082
     39          1           0        2.559689   -3.344070    0.126773
     40          1           0       -0.745036   -1.489768   -2.000510
     41          1           0       -0.170316   -3.127661   -2.339978
     42          1           0       -1.080405   -2.786187   -0.849631
 ---------------------------------------------------------------------

 SCF Done:  E(UB3LYP) =  -679.760463478     A.U. after   33 cycles
 SCF Done:  E(UB3LYP) =  -679.760463478     a.u. after    1 cycles

 The electronic state is 2-A.
 Alpha  occ. eigenvalues --  -14.20610 -10.10802 -10.10650 -10.09262 -10.08372
 Alpha  occ. eigenvalues --  -10.08172 -10.08144 -10.08029 -10.08002 -10.07889
 Alpha  occ. eigenvalues --  -10.07778 -10.07373 -10.07053 -10.06703 -10.06294
 Alpha  occ. eigenvalues --  -10.06172 -10.06109  -0.84165  -0.76300  -0.72817
 Alpha  occ. eigenvalues --   -0.68906  -0.67590  -0.65218  -0.63894  -0.61387
 Alpha  occ. eigenvalues --   -0.59225  -0.58737  -0.53589  -0.51504  -0.50198
 Alpha  occ. eigenvalues --   -0.49562  -0.46459  -0.44944  -0.42721  -0.40051
 Alpha  occ. eigenvalues --   -0.38805  -0.37393  -0.36629  -0.35750  -0.35196
 Alpha  occ. eigenvalues --   -0.33663  -0.32943  -0.32590  -0.31808  -0.31435
 Alpha  occ. eigenvalues --   -0.30356  -0.29610  -0.29361  -0.28921  -0.28432
 Alpha  occ. eigenvalues --   -0.27909  -0.26633  -0.26094  -0.25421  -0.25303
 Alpha  occ. eigenvalues --   -0.24773  -0.24260  -0.23781  -0.22441  -0.22211
 Alpha  occ. eigenvalues --   -0.21361  -0.16210  -0.15063  -0.12263   0.04262
 Alpha virt. eigenvalues --    0.05937   0.06305   0.06749   0.07622   0.07708
 Alpha virt. eigenvalues --    0.07876   0.07999   0.08458   0.08721   0.09609
 Alpha virt. eigenvalues --    0.09953   0.10075   0.10877   0.11036   0.11373

  Beta  occ. eigenvalues --  -14.20599 -10.10794 -10.10643 -10.09249 -10.08371
  Beta  occ. eigenvalues --  -10.08157 -10.08132 -10.08021 -10.07991 -10.07886
  Beta  occ. eigenvalues --  -10.07768 -10.07364 -10.07038 -10.06685 -10.06284
  Beta  occ. eigenvalues --  -10.06151 -10.06081  -0.84147  -0.76280  -0.72795
  Beta  occ. eigenvalues --   -0.68881  -0.67567  -0.65190  -0.63867  -0.61361
  Beta  occ. eigenvalues --   -0.59188  -0.58693  -0.53558  -0.51467  -0.50154
  Beta  occ. eigenvalues --   -0.49534  -0.46421  -0.44910  -0.42689  -0.40022
  Beta  occ. eigenvalues --   -0.38777  -0.37358  -0.36600  -0.35721  -0.35161
  Beta  occ. eigenvalues --   -0.33639  -0.32919  -0.32566  -0.31782  -0.31403
  Beta  occ. eigenvalues --   -0.30327  -0.29591  -0.29337  -0.28894  -0.28405
  Beta  occ. eigenvalues --   -0.27887  -0.26606  -0.26069  -0.25394  -0.25276
  Beta  occ. eigenvalues --   -0.24748  -0.24234  -0.23760  -0.22415  -0.22179
  Beta  occ. eigenvalues --   -0.21338  -0.16169  -0.15042  -0.12201
  Beta virt. eigenvalues --    0.06111   0.06662   0.07007   0.07184   0.07717
  Beta virt. eigenvalues --    0.07915   0.08310   0.08390   0.08855   0.09035
  Beta virt. eigenvalues --    0.09818   0.10383   0.10455   0.11032   0.11366

 Mulliken charges and spin densities:
               1          2
     1  C    1.091219  -1.664302
     2  C   -1.524208   1.491197
     3  C    0.421229  -1.128859
     4  C    0.959438  -0.572570
     5  C   -0.032241  -0.920703
     6  C    0.216329  -0.255140
     7  N    0.477448  -0.004785
     8  C   -0.349415  -0.006629
     9  C    0.159889   0.152015
    10  C   -0.454129   0.438076
    11  C    0.152646  -0.551808
    12  C    0.758183  -1.099133
    13  C   -0.179311  -0.346965
    14  C   -0.656822   0.470791
    15  C   -0.102041   0.244307
    16  C    0.002893  -0.557992
    17  C   -0.330744  -0.282173
    18  H   -0.121095   0.276069
    19  H   -0.083613   0.226138
    20  H   -0.263183   0.419237
    21  H   -0.377293   0.557604
    22  H   -0.263078   0.398892
    23  H    0.071486   0.067716
    24  H   -0.345523   0.499954
    25  H    0.280090  -0.040229
    26  H   -0.057912   0.195168
    27  H   -0.164338   0.360378
    28  H    0.182490  -0.067062
    29  H   -0.128688   0.304580
    30  H    0.220830  -0.018646
    31  H    0.177404   0.006270
    32  H   -0.276480   0.450285
    33  H   -0.175133   0.316665
    34  H   -0.374145   0.554498
    35  H    0.117240   0.026006
    36  H    0.041428   0.072902
    37  H    0.013765   0.141543
    38  H   -0.070788   0.204326
    39  H   -0.213860   0.369588
    40  H    0.052638   0.120153
    41  H   -0.019626   0.158564
    42  H    0.167023  -0.005924
 Sum of Mulliken charges =  -1.00000   1.00000

 Dipole moment (field-independent basis, Debye):
    X=             -1.5077    Y=             -2.3505    Z=              0.4008  Tot=              2.8211
 Quadrupole moment (field-independent basis, Debye-Ang):
   XX=           -184.5927   YY=           -169.7523   ZZ=           -147.3385
   XY=             -3.3619   XZ=             -0.2602   YZ=              4.8575

 Summary of Natural Population Analysis:

                                       Natural Population
                Natural  -----------------------------------------------
    Atom  No    Charge         Core      Valence    Rydberg      Total
 -----------------------------------------------------------------------
      C    1   -0.28846      0.99964     2.28247    0.00635     3.28846
      C    2   -0.10808      0.99959     2.09799    0.01050     3.10808
      C    3   -0.28415      0.99965     2.27828    0.00623     3.28415
      C    4   -0.10217      0.99956     2.09113    0.01149     3.10217
      C    5   -0.19273      0.99961     2.18411    0.00901     3.19273
      C    6   -0.08238      0.99962     2.07237    0.01039     3.08238
      N    7   -0.28834      0.99969     2.77583    0.01282     3.78834
      C    8   -0.01296      0.99954     1.99955    0.01387     3.01296
      C    9   -0.01222      0.99948     2.00012    0.01262     3.01222
      C   10   -0.10060      0.99949     2.09169    0.00942     3.10060
      C   11   -0.09880      0.99956     2.08908    0.01016     3.09880
      C   12   -0.10925      0.99956     2.10004    0.00965     3.10925
      C   13   -0.09757      0.99956     2.08780    0.01021     3.09757
      C   14   -0.10357      0.99949     2.09465    0.00943     3.10357
      C   15   -0.00092      0.99961     1.98997    0.01135     3.00092
      C   16   -0.28768      0.99964     2.28245    0.00558     3.28768
      C   17   -0.28784      0.99964     2.28319    0.00501     3.28784
      H   18    0.09620      0.00000     0.40238    0.00142     0.40380
      H   19    0.10022      0.00000     0.39850    0.00128     0.39978
      H   20    0.10157      0.00000     0.39736    0.00106     0.39843
      H   21    0.09529      0.00000     0.40306    0.00165     0.40471
      H   22    0.09499      0.00000     0.40375    0.00126     0.40501
      H   23    0.10023      0.00000     0.39868    0.00109     0.39977
      H   24    0.10043      0.00000     0.39863    0.00094     0.39957
      H   25    0.10383      0.00000     0.39461    0.00156     0.39617
      H   26    0.10071      0.00000     0.39804    0.00125     0.39929
      H   27    0.10311      0.00000     0.39578    0.00110     0.39689
      H   28    0.08239      0.00000     0.41601    0.00160     0.41761
      H   29    0.09642      0.00000     0.40220    0.00138     0.40358
      H   30    0.09411      0.00000     0.40340    0.00248     0.40589
      H   31    0.10793      0.00000     0.39001    0.00206     0.39207
      H   32    0.09909      0.00000     0.40005    0.00085     0.40091
      H   33    0.09985      0.00000     0.39920    0.00096     0.40015
      H   34    0.10039      0.00000     0.39866    0.00095     0.39961
      H   35    0.10081      0.00000     0.39743    0.00176     0.39919
      H   36    0.07654      0.00000     0.42140    0.00205     0.42346
      H   37    0.09979      0.00000     0.39912    0.00109     0.40021
      H   38    0.09876      0.00000     0.40045    0.00079     0.40124
      H   39    0.10132      0.00000     0.39767    0.00101     0.39868
      H   40    0.10388      0.00000     0.39505    0.00107     0.39612
      H   41    0.09748      0.00000     0.40179    0.00073     0.40252
      H   42    0.10236      0.00000     0.39657    0.00106     0.39764
 =======================================================================
   * Total *    0.00000     16.99293    46.81052    0.19655    64.00000

 Normal termination of Gaussian 16 at Fri Dec 11 13:34:37 2020.
