 Gaussian 16, Revision A.03,

 -----------------------------------------------------------
 # opt freq B3LYP/6-31G(d) empiricaldispersion=gd3bj scf=xqc
 -----------------------------------------------------------

 ------------------------------
 CID_82396229_JID_4862_neutraal
 ------------------------------
 Symbolic Z-matrix:
 Charge =  0 Multiplicity = 1

 SCF Done:  E(RB3LYP) =  -954.024960385     A.U. after   15 cycles
 SCF Done:  E(RB3LYP) =  -954.031778841     A.U. after   12 cycles
 SCF Done:  E(RB3LYP) =  -954.032424378     A.U. after   12 cycles
 SCF Done:  E(RB3LYP) =  -954.032509551     A.U. after   10 cycles
 SCF Done:  E(RB3LYP) =  -954.032600588     A.U. after   12 cycles
 SCF Done:  E(RB3LYP) =  -954.032719793     A.U. after   10 cycles
 SCF Done:  E(RB3LYP) =  -954.032991303     A.U. after   14 cycles
 SCF Done:  E(RB3LYP) =  -954.033216215     A.U. after   11 cycles
 SCF Done:  E(RB3LYP) =  -954.033644181     A.U. after   12 cycles
 SCF Done:  E(RB3LYP) =  -954.033681064     A.U. after   11 cycles
 SCF Done:  E(RB3LYP) =  -954.033722299     A.U. after   10 cycles
 SCF Done:  E(RB3LYP) =  -954.033723714     A.U. after   10 cycles
 SCF Done:  E(RB3LYP) =  -954.033723614     A.U. after    9 cycles
 SCF Done:  E(RB3LYP) =  -954.033723968     A.U. after    9 cycles
 SCF Done:  E(RB3LYP) =  -954.033723976     A.U. after    6 cycles
 SCF Done:  E(RB3LYP) =  -954.033723980     A.U. after    6 cycles
 Optimization completed.
    -- Stationary point found.
 Normal termination of Gaussian 16 at Thu Dec 10 10:48:23 2020.

 --------------------------------------------------------------------
 #N Geom=AllCheck Guess=TCheck SCRF=Check GenChk RB3LYP/6-31G(d) Freq
 --------------------------------------------------------------------

 Structure from the checkpoint file:  "JID_4862.chk"
 ------------------------------
 CID_82396229_JID_4862_neutraal
 ------------------------------
 Charge =  0 Multiplicity = 1

 SCF Done:  E(RB3LYP) =  -954.033723979     A.U. after    1 cycles

  Exact polarizability: 227.523   1.255 146.768  -0.001   0.001  67.744
 Approx polarizability: 350.495  -4.287 260.931  -0.005   0.001 106.758

                      1                      2                      3
                      A                      A                      A
 Frequencies --     26.1156                56.6666                69.7516
 Red. masses --      1.0415                 3.3962                 5.3861
 Frc consts  --      0.0004                 0.0064                 0.0154
 IR Inten    --      0.2819                 5.9307                 0.0942

                      4                      5                      6
                      A                      A                      A
 Frequencies --    115.6224               126.6288               128.1871
 Red. masses --      1.0494                 4.6677                 1.0927
 Frc consts  --      0.0083                 0.0441                 0.0106
 IR Inten    --      0.4115                 2.6476                 0.0309

                      7                      8                      9
                      A                      A                      A
 Frequencies --    153.5597               178.9823               228.7728
 Red. masses --      4.1906                 3.5109                 5.0764
 Frc consts  --      0.0582                 0.0663                 0.1565
 IR Inten    --      0.0702                 1.8863                 1.3706

                     10                     11                     12
                      A                      A                      A
 Frequencies --    247.7824               271.2229               320.0873
 Red. masses --      2.9373                 3.4459                 4.7326
 Frc consts  --      0.1063                 0.1493                 0.2857
 IR Inten    --      0.1376                 3.9381                 0.4326

                     13                     14                     15
                      A                      A                      A
 Frequencies --    339.3814               411.9759               454.2069
 Red. masses --      6.1845                 4.8293                 9.9760
 Frc consts  --      0.4197                 0.4829                 1.2126
 IR Inten    --      0.2563                 2.1772                 0.6038

                     16                     17                     18
                      A                      A                      A
 Frequencies --    488.4900               495.4144               551.9874
 Red. masses --      3.8452                 5.3704                 4.3541
 Frc consts  --      0.5406                 0.7766                 0.7816
 IR Inten    --      0.3266                17.2934                 0.4471

                     19                     20                     21
                      A                      A                      A
 Frequencies --    553.7948               564.3173               604.6236
 Red. masses --      4.6714                 4.6272                 4.1507
 Frc consts  --      0.8441                 0.8682                 0.8940
 IR Inten    --      2.5729                 5.5205                16.5084

                     22                     23                     24
                      A                      A                      A
 Frequencies --    607.6259               618.0258               709.6954
 Red. masses --      3.0530                 3.0045                 5.5645
 Frc consts  --      0.6641                 0.6761                 1.6513
 IR Inten    --      3.3433                 3.2418                 7.5306

                     25                     26                     27
                      A                      A                      A
 Frequencies --    764.8532               834.7363               882.9256
 Red. masses --      4.8778                 5.1998                 1.2898
 Frc consts  --      1.6813                 2.1347                 0.5924
 IR Inten    --      1.8660                 8.5701                 0.2731

                     28                     29                     30
                      A                      A                      A
 Frequencies --    897.8474               901.0371               972.3567
 Red. masses --      1.4098                 6.3929                 3.6095
 Frc consts  --      0.6696                 3.0580                 2.0107
 IR Inten    --     20.6444                 5.9190                 9.8041

                     31                     32                     33
                      A                      A                      A
 Frequencies --    985.4137              1016.5591              1034.6537
 Red. masses --      2.6067                 1.5942                 2.0693
 Frc consts  --      1.4913                 0.9707                 1.3051
 IR Inten    --     31.2068                 4.1935                26.5140

                     34                     35                     36
                      A                      A                      A
 Frequencies --   1053.5317              1055.1529              1068.9798
 Red. masses --      1.7947                 1.7935                 1.5676
 Frc consts  --      1.1736                 1.1765                 1.0554
 IR Inten    --      2.3363                 3.7772                 5.3313

                     37                     38                     39
                      A                      A                      A
 Frequencies --   1075.3520              1179.4120              1228.9165
 Red. masses --      1.5371                 2.0682                 1.4936
 Frc consts  --      1.0473                 1.6950                 1.3290
 IR Inten    --      1.1272                51.6854                20.8399

                     40                     41                     42
                      A                      A                      A
 Frequencies --   1262.7262              1283.0601              1333.7044
 Red. masses --      4.1376                 4.3658                 6.4015
 Frc consts  --      3.8870                 4.2346                 6.7089
 IR Inten    --    221.7126                31.8801                 4.5989

                     43                     44                     45
                      A                      A                      A
 Frequencies --   1374.4044              1391.8879              1414.8188
 Red. masses --      3.1478                 5.0599                 1.3458
 Frc consts  --      3.5034                 5.7757                 1.5872
 IR Inten    --     38.2026                23.7458                59.7693

                     46                     47                     48
                      A                      A                      A
 Frequencies --   1433.4278              1441.8888              1480.8869
 Red. masses --      1.3502                 1.3176                 2.3533
 Frc consts  --      1.6346                 1.6139                 3.0406
 IR Inten    --      3.8054                 0.6172                14.4938

                     49                     50                     51
                      A                      A                      A
 Frequencies --   1495.0260              1504.3771              1510.6356
 Red. masses --      1.0591                 1.0464                 1.0438
 Frc consts  --      1.3947                 1.3953                 1.4034
 IR Inten    --     19.4502                11.0131                 9.8979

                     52                     53                     54
                      A                      A                      A
 Frequencies --   1513.5167              1514.1663              1525.0290
 Red. masses --      1.0448                 1.2843                 1.3053
 Frc consts  --      1.4102                 1.7349                 1.7886
 IR Inten    --      4.7858                 4.5056                 3.4990

                     55                     56                     57
                      A                      A                      A
 Frequencies --   1550.2266              1609.2686              1639.8515
 Red. masses --      5.4787                 6.3715                 6.1473
 Frc consts  --      7.7574                 9.7219                 9.7397
 IR Inten    --    265.6797                86.7290                73.2014

                     58                     59                     60
                      A                      A                      A
 Frequencies --   1771.0006              3049.2788              3049.8352
 Red. masses --     10.7018                 1.0391                 1.0374
 Frc consts  --     19.7764                 5.6926                 5.6854
 IR Inten    --    183.9999                21.5789                14.5975

                     61                     62                     63
                      A                      A                      A
 Frequencies --   3052.6353              3100.4192              3103.5486
 Red. masses --      1.0383                 1.1005                 1.1005
 Frc consts  --      5.7004                 6.2326                 6.2453
 IR Inten    --      1.9160                15.1434                11.9753

                     64                     65                     66
                      A                      A                      A
 Frequencies --   3111.0821              3138.5510              3162.4021
 Red. masses --      1.0998                 1.1015                 1.0997
 Frc consts  --      6.2717                 6.3929                 6.4795
 IR Inten    --      6.3381                16.2303                 6.9918

                     67                     68                     69
                      A                      A                      A
 Frequencies --   3172.2796              3191.2448              3244.0953
 Red. masses --      1.1013                 1.0908                 1.0926
 Frc consts  --      6.5298                 6.5448                 6.7746
 IR Inten    --     13.4555                16.8442                 0.0274

 - Thermochemistry -
 -------------------
 Temperature   298.150 Kelvin.  Pressure   1.00000 Atm.
 Atom     1 has atomic number  6 and mass  12.00000

 Molecular mass:   205.05614 amu.
 Principal axes and moments of inertia in atomic units:
                           1         2         3
     Eigenvalues --  1412.560114640.923256019.87065
           X            0.99989   0.01485   0.00000
           Y           -0.01485   0.99989   0.00000
           Z           -0.00000  -0.00000   1.00000
 This molecule is an asymmetric top.
 Rotational symmetry number  1.
 Warning -- assumption of classical behavior for rotation
           may cause significant error
 Rotational temperatures (Kelvin)      0.06132     0.01866     0.01439
 Rotational constants (GHZ):           1.27764     0.38888     0.29980
 Zero-point vibrational energy     512599.4 (Joules/Mol)
                                  122.51419 (Kcal/Mol)
 Warning -- explicit consideration of  23 degrees of freedom as
           vibrations may cause significant error
 Vibrational temperatures:     37.57    81.53   100.36   166.35   182.19
          (Kelvin)            184.43   220.94   257.52   329.15   356.50
                              390.23   460.53   488.29   592.74   653.50
                              702.83   712.79   794.19   796.79   811.93
                              869.92   874.24   889.20  1021.09  1100.45
                             1201.00  1270.33  1291.80  1296.39  1399.00
                             1417.79  1462.60  1488.64  1515.80  1518.13
                             1538.02  1547.19  1696.91  1768.14  1816.78
                             1846.04  1918.90  1977.46  2002.62  2035.61
                             2062.38  2074.56  2130.67  2151.01  2164.46
                             2173.47  2177.61  2178.55  2194.18  2230.43
                             2315.38  2359.38  2548.07  4387.23  4388.03
                             4392.06  4460.81  4465.31  4476.15  4515.67
                             4549.99  4564.20  4591.49  4667.53

 Zero-point correction=                           0.195239 (Hartree/Particle)
 Thermal correction to Energy=                    0.208991
 Thermal correction to Enthalpy=                  0.209935
 Thermal correction to Gibbs Free Energy=         0.153531
 Sum of electronic and zero-point Energies=           -953.838485
 Sum of electronic and thermal Energies=              -953.824733
 Sum of electronic and thermal Enthalpies=            -953.823789
 Sum of electronic and thermal Free Energies=         -953.880193

                     E (Thermal)             CV                S
                      KCal/Mol        Cal/Mol-Kelvin    Cal/Mol-Kelvin
 Total                  131.144             50.175            118.711
 Electronic               0.000              0.000              0.000
 Translational            0.889              2.981             41.859
 Rotational               0.889              2.981             32.045
 Vibrational            129.366             44.214             44.807
 Vibration     1          0.593              1.985              6.105
 Vibration     2          0.596              1.975              4.570
 Vibration     3          0.598              1.969              4.160
 Vibration     4          0.608              1.936              3.172
 Vibration     5          0.611              1.927              2.997
 Vibration     6          0.611              1.925              2.973
 Vibration     7          0.619              1.899              2.628
 Vibration     8          0.629              1.868              2.339
 Vibration     9          0.651              1.797              1.889
 Vibration    10          0.661              1.766              1.746
 Vibration    11          0.675              1.726              1.588
 Vibration    12          0.706              1.635              1.310
 Vibration    13          0.719              1.597              1.215
 Vibration    14          0.776              1.444              0.920
 Vibration    15          0.813              1.352              0.783
 Vibration    16          0.844              1.276              0.688
 Vibration    17          0.851              1.260              0.670
 Vibration    18          0.907              1.135              0.540
 Vibration    19          0.909              1.131              0.536
 Vibration    20          0.920              1.108              0.515
 Vibration    21          0.963              1.022              0.442
 Vibration    22          0.966              1.016              0.437
 Vibration    23          0.978              0.994              0.420

 Optimization completed.
    -- Stationary point found.
 Normal termination of Gaussian 16 at Thu Dec 10 10:54:33 2020.

 ----------------------------------------------------------------------
 # B3LYP/6-311++G(d,p) empiricaldispersion=gd3bj scf=xqc pop=npa geom=c
 heck
 ----------------------------------------------------------------------

 --------------------------------------
 CID_82396229_JID_4862_Energie_neutraal
 --------------------------------------
 Structure from the checkpoint file:  "JID_4862.chk"
 Charge =  0 Multiplicity = 1

 SCF Done:  E(RB3LYP) =  -954.205264641     A.U. after   16 cycles
 Normal termination of Gaussian 16 at Thu Dec 10 10:57:15 2020.

 ----------------------------------------------------------------------
 # B3LYP/6-311++G(d,p) empiricaldispersion=gd3bj scf=xqc pop=npa geom=c
 heck
 ----------------------------------------------------------------------

 ------------------------------------
 CID_82396229_JID_4862_Energie_kation
 ------------------------------------
 Structure from the checkpoint file:  "JID_4862.chk"
 Charge =  1 Multiplicity = 2

 SCF Done:  E(UB3LYP) =  -953.899778558     A.U. after   27 cycles
 Normal termination of Gaussian 16 at Thu Dec 10 11:03:49 2020.
 Gaussian 16:  ES64L-G16RevA.03 25-Dec-2016

 ----------------------------------------------------------------------
 # B3LYP/6-311++G(d,p) empiricaldispersion=gd3bj scf=xqc pop=npa geom=c
 heck
 ----------------------------------------------------------------------

 -----------------------------------
 CID_82396229_JID_4862_Energie_anion
 -----------------------------------
 Structure from the checkpoint file:  "JID_4862.chk"
 Charge = -1 Multiplicity = 2

                         Standard orientation:
 ---------------------------------------------------------------------
 Center     Atomic      Atomic             Coordinates (Angstroms)
 Number     Number       Type             X           Y           Z
 ---------------------------------------------------------------------
      1          6           0        1.648601    2.931950   -0.000067
      2          6           0        1.674745    1.428271   -0.000030
      3          6           0        2.858318    0.706219   -0.000061
      4          6           0        2.859712   -0.707892   -0.000028
      5          7           0        1.732529   -1.427457    0.000000
      6          6           0        0.595910   -0.733550    0.000024
      7          6           0        0.475311    0.678256    0.000023
      8          6           0       -0.887782    1.101679    0.000060
      9          6           0       -1.778833    0.061377    0.000076
     10         16           0       -0.981014   -1.513670    0.000071
     11          6           0       -3.251408    0.223337    0.000045
     12          8           0       -3.742454    1.342670    0.000135
     13          6           0       -4.105851   -1.028457   -0.000221
     14          6           0        4.158690   -1.469837    0.000009
     15          1           0        1.121135    3.315536   -0.881634
     16          1           0        2.660296    3.346509   -0.000004
     17          1           0        1.121002    3.315585    0.881397
     18          1           0        3.809313    1.231945   -0.000113
     19          1           0       -1.226450    2.130680    0.000061
     20          1           0       -3.891370   -1.642600   -0.883291
     21          1           0       -3.890498   -1.643765    0.881815
     22          1           0       -5.159299   -0.744562    0.000446
     23          1           0        4.761208   -1.222784    0.882678
     24          1           0        3.956901   -2.542562   -0.000134
     25          1           0        4.761449   -1.222536   -0.882415
 ---------------------------------------------------------------------

 SCF Done:  E(UB3LYP) =  -954.233174512     A.U. after   23 cycles

 The electronic state is 2-A.
 Alpha  occ. eigenvalues --  -88.72368 -18.93202 -14.17093 -10.09074 -10.08476
 Alpha  occ. eigenvalues --  -10.07049 -10.05823 -10.05539 -10.05325 -10.04331
 Alpha  occ. eigenvalues --  -10.04120 -10.03939 -10.03703 -10.01766  -7.81050
 Alpha  occ. eigenvalues --   -5.77342  -5.77015  -5.76610  -0.87268  -0.81648
 Alpha  occ. eigenvalues --   -0.72177  -0.68962  -0.64001  -0.60942  -0.58853
 Alpha  occ. eigenvalues --   -0.57963  -0.56034  -0.47868  -0.46532  -0.43546
 Alpha  occ. eigenvalues --   -0.38945  -0.36230  -0.32949  -0.32483  -0.32010
 Alpha  occ. eigenvalues --   -0.31719  -0.30703  -0.30441  -0.29241  -0.27738
 Alpha  occ. eigenvalues --   -0.27517  -0.26640  -0.26575  -0.25218  -0.24054
 Alpha  occ. eigenvalues --   -0.22678  -0.22279  -0.20149  -0.18935  -0.16256
 Alpha  occ. eigenvalues --   -0.13083  -0.10825  -0.09666  -0.08945   0.02953
 Alpha virt. eigenvalues --    0.07728   0.08848   0.09491   0.10195   0.10795
 Alpha virt. eigenvalues --    0.11087   0.12232   0.12463   0.12779   0.13237
 Alpha virt. eigenvalues --    0.13353   0.13762   0.14691   0.14961   0.15474

  Beta  occ. eigenvalues --  -88.72339 -18.92724 -14.17068 -10.09035 -10.08227
  Beta  occ. eigenvalues --  -10.06767 -10.05843 -10.05346 -10.05273 -10.04428
  Beta  occ. eigenvalues --  -10.04157 -10.03734 -10.03726 -10.01541  -7.81024
  Beta  occ. eigenvalues --   -5.77330  -5.77004  -5.76511  -0.86406  -0.81440
  Beta  occ. eigenvalues --   -0.71884  -0.68668  -0.63676  -0.60654  -0.58737
  Beta  occ. eigenvalues --   -0.57786  -0.55848  -0.47253  -0.46371  -0.43122
  Beta  occ. eigenvalues --   -0.38743  -0.35948  -0.32747  -0.32231  -0.31599
  Beta  occ. eigenvalues --   -0.31557  -0.30428  -0.29824  -0.29194  -0.27625
  Beta  occ. eigenvalues --   -0.27370  -0.26392  -0.26228  -0.25099  -0.23770
  Beta  occ. eigenvalues --   -0.22531  -0.20666  -0.19978  -0.17582  -0.15531
  Beta  occ. eigenvalues --   -0.13033  -0.10167  -0.09207  -0.07241
  Beta virt. eigenvalues --    0.07702   0.08690   0.08819   0.09464   0.10487
  Beta virt. eigenvalues --    0.10764   0.11651   0.12212   0.12435   0.12920
  Beta virt. eigenvalues --    0.13210   0.13460   0.14642   0.14941   0.15231

 Mulliken charges and spin densities:
               1          2
     1  C   -0.526952  -0.025159
     2  C    0.465068   0.172050
     3  C   -0.543807  -0.082089
     4  C    0.018840   0.182318
     5  N    0.100397   0.002086
     6  C   -0.081197   0.018192
     7  C    0.152010   0.008236
     8  C    0.492086   0.227583
     9  C    0.046605   0.047612
    10  S   -0.551977   0.045330
    11  C   -0.522208   0.179796
    12  O   -0.396608   0.174139
    13  C   -0.536633  -0.018000
    14  C   -0.559531  -0.012235
    15  H    0.131816   0.021396
    16  H    0.118326   0.000280
    17  H    0.131808   0.021390
    18  H    0.108733   0.005000
    19  H    0.179179  -0.016904
    20  H    0.121608   0.014118
    21  H    0.121578   0.014050
    22  H    0.145957  -0.000646
    23  H    0.123372   0.010572
    24  H    0.138182   0.000326
    25  H    0.123346   0.010559
 Sum of Mulliken charges =  -1.00000   1.00000

 Dipole moment (field-independent basis, Debye):
    X=              4.9463    Y=             -0.3265    Z=             -0.0003  Tot=              4.9571
 Quadrupole moment (field-independent basis, Debye-Ang):
   XX=           -134.2154   YY=           -108.8608   ZZ=            -97.7815
   XY=             14.9349   XZ=              0.0009   YZ=             -0.0008

 Summary of Natural Population Analysis:

                                       Natural Population
                Natural  -----------------------------------------------
    Atom  No    Charge         Core      Valence    Rydberg      Total
 -----------------------------------------------------------------------
      C    1   -0.29596      0.99965     2.29173    0.00458     3.29596
      C    2    0.05934      0.99948     1.93373    0.00744     2.94066
      C    3   -0.15808      0.99948     2.15082    0.00778     3.15808
      C    4    0.15024      0.99957     1.83683    0.01336     2.84976
      N    5   -0.25843      0.99963     2.74570    0.01310     3.75843
      C    6    0.04421      0.99944     1.93942    0.01693     2.95579
      C    7   -0.07601      0.99943     2.06639    0.01020     3.07601
      C    8   -0.06303      0.99946     2.05397    0.00960     3.06303
      C    9   -0.08969      0.99942     2.07881    0.01145     3.08969
      S   10    0.17712      4.99944     2.80282    0.02062     7.82288
      C   11    0.28445      0.99960     1.69478    0.02117     2.71555
      O   12   -0.25521      0.99988     3.24834    0.00698     4.25521
      C   13   -0.33130      0.99964     2.32741    0.00425     3.33130
      C   14   -0.29936      0.99965     2.29519    0.00452     3.29936
      H   15    0.10539      0.00000     0.39354    0.00106     0.39461
      H   16    0.09421      0.00000     0.40489    0.00090     0.40579
      H   17    0.10539      0.00000     0.39354    0.00106     0.39461
      H   18    0.09132      0.00000     0.40758    0.00109     0.40868
      H   19    0.10885      0.00000     0.38990    0.00125     0.39115
      H   20    0.10309      0.00000     0.39565    0.00126     0.39691
      H   21    0.10307      0.00000     0.39567    0.00126     0.39693
      H   22    0.10085      0.00000     0.39750    0.00165     0.39915
      H   23    0.09726      0.00000     0.40173    0.00101     0.40274
      H   24    0.10501      0.00000     0.39369    0.00130     0.39499
      H   25    0.09726      0.00000     0.40173    0.00101     0.40274
 =======================================================================
   * Total *   -0.00000     17.99377    35.84138    0.16485    54.00000

 Normal termination of Gaussian 16 at Thu Dec 10 11:09:13 2020.
