 Gaussian 16, Revision A.03,

 -----------------------------------------------------------
 # opt freq B3LYP/6-31G(d) empiricaldispersion=gd3bj scf=xqc
 -----------------------------------------------------------

 --------------------------------
 CID_103112233_JID_10698_neutraal
 --------------------------------
 Symbolic Z-matrix:
 Charge =  0 Multiplicity = 1

 SCF Done:  E(RB3LYP) =  -986.784189738     A.U. after   15 cycles
 SCF Done:  E(RB3LYP) =  -986.789468313     A.U. after   13 cycles
 SCF Done:  E(RB3LYP) =  -986.790880449     A.U. after   12 cycles
 SCF Done:  E(RB3LYP) =  -986.791106951     A.U. after   13 cycles
 SCF Done:  E(RB3LYP) =  -986.791542592     A.U. after   12 cycles
 SCF Done:  E(RB3LYP) =  -986.791786188     A.U. after   12 cycles
 SCF Done:  E(RB3LYP) =  -986.791965266     A.U. after   12 cycles
 SCF Done:  E(RB3LYP) =  -986.792071430     A.U. after   12 cycles
 SCF Done:  E(RB3LYP) =  -986.792190822     A.U. after   13 cycles
 SCF Done:  E(RB3LYP) =  -986.792282162     A.U. after   12 cycles
 SCF Done:  E(RB3LYP) =  -986.798772894     A.U. after    8 cycles
 SCF Done:  E(RB3LYP) =  -986.798773022     A.U. after    7 cycles
 SCF Done:  E(RB3LYP) =  -986.798773098     A.U. after    7 cycles
 SCF Done:  E(RB3LYP) =  -986.798773113     A.U. after    6 cycles
 Optimization completed.
    -- Stationary point found.
 Normal termination of Gaussian 16 at Mon Dec 14 18:09:24 2020.

 --------------------------------------------------------------------
 #N Geom=AllCheck Guess=TCheck SCRF=Check GenChk RB3LYP/6-31G(d) Freq
 --------------------------------------------------------------------

 Structure from the checkpoint file:  "JID_10698.chk"
 --------------------------------
 CID_103112233_JID_10698_neutraal
 --------------------------------
 Charge =  0 Multiplicity = 1

 SCF Done:  E(RB3LYP) =  -986.798773113     A.U. after    1 cycles

  Exact polarizability: 198.000  -4.516 147.730   0.167  -4.584 134.259
 Approx polarizability: 252.076 -18.079 245.670   3.284 -21.114 209.620

                      1                      2                      3
                      A                      A                      A
 Frequencies --     13.5652                26.0755                34.8570
 Red. masses --      5.2500                 4.4398                 5.0235
 Frc consts  --      0.0006                 0.0018                 0.0036
 IR Inten    --      0.0099                 0.7950                 2.9360

                      4                      5                      6
                      A                      A                      A
 Frequencies --     36.2171                47.7309                63.7005
 Red. masses --      5.2246                 5.0181                 5.7953
 Frc consts  --      0.0040                 0.0067                 0.0139
 IR Inten    --      1.9444                 2.5626                 7.3722

                      7                      8                      9
                      A                      A                      A
 Frequencies --     77.3558                92.7716                98.4622
 Red. masses --      2.6235                 2.5072                 1.2218
 Frc consts  --      0.0092                 0.0127                 0.0070
 IR Inten    --      3.8922                 2.2995                 0.6002

                     10                     11                     12
                      A                      A                      A
 Frequencies --    119.0665               127.8188               162.1968
 Red. masses --      2.0072                 1.2767                 5.3979
 Frc consts  --      0.0168                 0.0123                 0.0837
 IR Inten    --      1.0886                 0.7835                 1.7914

                     13                     14                     15
                      A                      A                      A
 Frequencies --    172.0957               201.1564               219.9893
 Red. masses --      3.1827                 1.5247                 4.3474
 Frc consts  --      0.0555                 0.0364                 0.1240
 IR Inten    --      0.6849                 4.0235                 1.6208

                     16                     17                     18
                      A                      A                      A
 Frequencies --    240.3244               276.7625               285.0334
 Red. masses --      3.0542                 3.2229                 4.8145
 Frc consts  --      0.1039                 0.1454                 0.2305
 IR Inten    --     12.3991                 2.0593                 3.1558

                     19                     20                     21
                      A                      A                      A
 Frequencies --    296.5606               312.3481               336.6359
 Red. masses --      4.3890                 3.8808                 4.1676
 Frc consts  --      0.2274                 0.2231                 0.2783
 IR Inten    --      7.6419                 4.1201                 1.4912

                     22                     23                     24
                      A                      A                      A
 Frequencies --    376.7403               388.0415               418.8940
 Red. masses --      5.3009                 2.5129                 2.3103
 Frc consts  --      0.4433                 0.2229                 0.2389
 IR Inten    --      2.2332                 3.0480                 3.4741

                     25                     26                     27
                      A                      A                      A
 Frequencies --    449.3197               504.0661               544.2282
 Red. masses --      7.0255                 2.4606                 3.8954
 Frc consts  --      0.8357                 0.3684                 0.6798
 IR Inten    --      2.9372                15.7719                 7.1729

                     28                     29                     30
                      A                      A                      A
 Frequencies --    616.3391               639.4550               663.1282
 Red. masses --      4.5564                 5.7151                 5.7713
 Frc consts  --      1.0198                 1.3769                 1.4953
 IR Inten    --      5.1526                 0.5695                 2.0972

                     31                     32                     33
                      A                      A                      A
 Frequencies --    677.4805               697.5250               711.2558
 Red. masses --      5.0616                 7.6123                 6.9243
 Frc consts  --      1.3688                 2.1822                 2.0639
 IR Inten    --      4.2976                 4.4463                 0.7203

                     34                     35                     36
                      A                      A                      A
 Frequencies --    776.9482               781.2434               803.7406
 Red. masses --      4.0935                10.0331                 2.5390
 Frc consts  --      1.4559                 3.6079                 0.9664
 IR Inten    --     20.4244                 5.6436                29.2085

                     37                     38                     39
                      A                      A                      A
 Frequencies --    828.0057               845.1777               864.8370
 Red. masses --      1.7101                 3.4314                 3.1466
 Frc consts  --      0.6908                 1.4441                 1.3866
 IR Inten    --     18.0018                38.1270                 6.3621

                     40                     41                     42
                      A                      A                      A
 Frequencies --    908.3301               930.2355               954.3210
 Red. masses --      3.2076                 3.8578                 2.5997
 Frc consts  --      1.5593                 1.9669                 1.3950
 IR Inten    --      3.1380                16.5584                 6.8083

                     43                     44                     45
                      A                      A                      A
 Frequencies --   1003.3192              1008.4782              1015.5987
 Red. masses --      2.6629                 2.5951                 3.6622
 Frc consts  --      1.5793                 1.5550                 2.2256
 IR Inten    --     36.1762                 8.6545                 0.7345

                     46                     47                     48
                      A                      A                      A
 Frequencies --   1026.5077              1039.3394              1060.1561
 Red. masses --      2.8891                 2.9861                 3.2866
 Frc consts  --      1.7936                 1.9005                 2.1764
 IR Inten    --      8.4504                 8.8174                 9.9207

                     49                     50                     51
                      A                      A                      A
 Frequencies --   1081.6788              1084.1136              1109.8974
 Red. masses --      1.5114                 1.4844                 3.1954
 Frc consts  --      1.0419                 1.0279                 2.3192
 IR Inten    --      3.7344                 2.9030                18.1108

                     52                     53                     54
                      A                      A                      A
 Frequencies --   1125.8023              1136.9886              1166.8917
 Red. masses --      1.9486                 3.1505                 1.6913
 Frc consts  --      1.4551                 2.3996                 1.3569
 IR Inten    --     17.5948               187.6737                 2.8962

                     55                     56                     57
                      A                      A                      A
 Frequencies --   1180.1118              1191.1535              1230.7262
 Red. masses --      2.9935                 1.3939                 2.3214
 Frc consts  --      2.4562                 1.1652                 2.0717
 IR Inten    --     69.9079                11.1019                74.2515

                     58                     59                     60
                      A                      A                      A
 Frequencies --   1234.7492              1278.4444              1285.0633
 Red. masses --      2.5300                 5.6141                 1.1913
 Frc consts  --      2.2726                 5.4062                 1.1591
 IR Inten    --    101.4630               358.5362                18.0433

                     61                     62                     63
                      A                      A                      A
 Frequencies --   1293.7558              1308.6134              1341.0627
 Red. masses --      3.4061                 2.2439                 1.2586
 Frc consts  --      3.3590                 2.2640                 1.3337
 IR Inten    --     16.1060                 7.7412                 5.0908

                     64                     65                     66
                      A                      A                      A
 Frequencies --   1353.2328              1383.2913              1399.2337
 Red. masses --      3.7652                 1.4821                 1.9105
 Frc consts  --      4.0625                 1.6709                 2.2039
 IR Inten    --     56.4611                53.7591                43.5100

                     67                     68                     69
                      A                      A                      A
 Frequencies --   1425.0702              1438.4899              1441.8792
 Red. masses --      1.7836                 1.4466                 1.2605
 Frc consts  --      2.1341                 1.7636                 1.5440
 IR Inten    --     15.0797                23.0716                 4.1019

                     70                     71                     72
                      A                      A                      A
 Frequencies --   1446.9193              1476.2616              1484.4292
 Red. masses --      1.5235                 3.6745                 2.0593
 Frc consts  --      1.8792                 4.7182                 2.6736
 IR Inten    --      5.5642                22.6748               147.6609

                     73                     74                     75
                      A                      A                      A
 Frequencies --   1494.3125              1497.3232              1503.2666
 Red. masses --      1.0965                 1.1039                 1.0420
 Frc consts  --      1.4425                 1.4582                 1.3873
 IR Inten    --     22.4552                 0.8956                 7.7834

                     76                     77                     78
                      A                      A                      A
 Frequencies --   1512.8056              1516.1972              1520.6087
 Red. masses --      1.0761                 1.2808                 1.1103
 Frc consts  --      1.4510                 1.7348                 1.5126
 IR Inten    --      7.7671                19.3867                 7.6330

                     79                     80                     81
                      A                      A                      A
 Frequencies --   1521.6925              1524.7485              1535.7249
 Red. masses --      1.1217                 1.1089                 1.6311
 Frc consts  --      1.5303                 1.5189                 2.2665
 IR Inten    --      9.0406                 2.0634                22.0345

                     82                     83                     84
                      A                      A                      A
 Frequencies --   1543.3292              1546.7993              1618.7932
 Red. masses --      4.7315                 1.0562                 7.6877
 Frc consts  --      6.6399                 1.4889                11.8694
 IR Inten    --     33.6915                 8.6448                73.9197

                     85                     86                     87
                      A                      A                      A
 Frequencies --   1661.5057              1790.1411              3005.4258
 Red. masses --      6.5687                12.0729                 1.0539
 Frc consts  --     10.6840                22.7948                 5.6086
 IR Inten    --     52.8936               216.3762                31.6995

                     88                     89                     90
                      A                      A                      A
 Frequencies --   3012.4762              3053.3499              3061.9533
 Red. masses --      1.0597                 1.0426                 1.0372
 Frc consts  --      5.6660                 5.7268                 5.7292
 IR Inten    --     69.4144                11.5419                12.4376

                     91                     92                     93
                      A                      A                      A
 Frequencies --   3066.8181              3083.1548              3100.8010
 Red. masses --      1.0651                 1.0925                 1.0843
 Frc consts  --      5.9023                 6.1189                 6.1423
 IR Inten    --      5.9243                57.4355                30.5225

                     94                     95                     96
                      A                      A                      A
 Frequencies --   3104.1380              3110.3547              3119.2536
 Red. masses --      1.0598                 1.0966                 1.1015
 Frc consts  --      6.0166                 6.2504                 6.3147
 IR Inten    --      9.3420                 3.5712                 6.9777

                     97                     98                     99
                      A                      A                      A
 Frequencies --   3125.2187              3144.6899              3157.1787
 Red. masses --      1.1068                 1.1064                 1.1037
 Frc consts  --      6.3693                 6.4465                 6.4817
 IR Inten    --     24.0660                30.2553                 2.8304

                    100                    101                    102
                      A                      A                      A
 Frequencies --   3157.2445              3184.6935              3294.9931
 Red. masses --      1.1054                 1.0989                 1.0991
 Frc consts  --      6.4923                 6.5665                 7.0309
 IR Inten    --      4.3507                 0.8133                 1.3600

 - Thermochemistry -
 -------------------
 Temperature   298.150 Kelvin.  Pressure   1.00000 Atm.
 Atom     1 has atomic number  6 and mass  12.00000

 Molecular mass:   280.11716 amu.
 Principal axes and moments of inertia in atomic units:
                           1         2         3
     Eigenvalues --  2506.31949********************
           X            1.00000  -0.00038   0.00257
           Y            0.00020   0.99753   0.07024
           Z           -0.00259  -0.07024   0.99753
 This molecule is an asymmetric top.
 Rotational symmetry number  1.
 Warning -- assumption of classical behavior for rotation
           may cause significant error
 Rotational temperatures (Kelvin)      0.03456     0.00648     0.00630
 Rotational constants (GHZ):           0.72008     0.13494     0.13120
 Zero-point vibrational energy     755084.6 (Joules/Mol)
                                  180.46955 (Kcal/Mol)
 Warning -- explicit consideration of  28 degrees of freedom as
           vibrations may cause significant error
 Vibrational temperatures:     19.52    37.52    50.15    52.11    68.67
          (Kelvin)             91.65   111.30   133.48   141.67   171.31
                              183.90   233.37   247.61   289.42   316.52
                              345.77   398.20   410.10   426.68   449.40
                              484.34   542.05   558.31   602.70   646.47
                              725.24   783.02   886.77   920.03   954.09
                              974.74  1003.58  1023.34  1117.86  1124.04
                             1156.40  1191.32  1216.02  1244.31  1306.88
                             1338.40  1373.06  1443.55  1450.98  1461.22
                             1476.92  1495.38  1525.33  1556.29  1559.80
                             1596.89  1619.78  1635.87  1678.90  1697.92
                             1713.80  1770.74  1776.53  1839.40  1848.92
                             1861.43  1882.80  1929.49  1947.00  1990.25
                             2013.19  2050.36  2069.67  2074.54  2081.79
                             2124.01  2135.76  2149.98  2154.31  2162.87
                             2176.59  2181.47  2187.82  2189.38  2193.77
                             2209.57  2220.51  2225.50  2329.08  2390.54
                             2575.61  4324.14  4334.28  4393.09  4405.47
                             4412.47  4435.97  4461.36  4466.16  4475.11
                             4487.91  4496.49  4524.51  4542.48  4542.57
                             4582.06  4740.76

 Zero-point correction=                           0.287597 (Hartree/Particle)
 Thermal correction to Energy=                    0.307721
 Thermal correction to Enthalpy=                  0.308665
 Thermal correction to Gibbs Free Energy=         0.234502
 Sum of electronic and zero-point Energies=           -986.511177
 Sum of electronic and thermal Energies=              -986.491052
 Sum of electronic and thermal Enthalpies=            -986.490108
 Sum of electronic and thermal Free Energies=         -986.564271

                     E (Thermal)             CV                S
                      KCal/Mol        Cal/Mol-Kelvin    Cal/Mol-Kelvin
 Total                  193.098             70.813            156.089
 Electronic               0.000              0.000              0.000
 Translational            0.889              2.981             42.788
 Rotational               0.889              2.981             34.488
 Vibrational            191.320             64.851             78.812
 Vibration     1          0.593              1.986              7.405
 Vibration     2          0.593              1.985              6.108
 Vibration     3          0.594              1.983              5.532
 Vibration     4          0.594              1.982              5.456
 Vibration     5          0.595              1.978              4.909
 Vibration     6          0.597              1.972              4.339
 Vibration     7          0.599              1.964              3.957
 Vibration     8          0.602              1.954              3.601
 Vibration     9          0.604              1.950              3.485
 Vibration    10          0.609              1.933              3.115
 Vibration    11          0.611              1.925              2.979
 Vibration    12          0.622              1.889              2.524
 Vibration    13          0.626              1.877              2.412
 Vibration    14          0.638              1.838              2.122
 Vibration    15          0.647              1.811              1.959
 Vibration    16          0.657              1.779              1.800
 Vibration    17          0.678              1.716              1.554
 Vibration    18          0.683              1.701              1.503
 Vibration    19          0.690              1.680              1.436
 Vibration    20          0.701              1.650              1.350
 Vibration    21          0.717              1.602              1.228
 Vibration    22          0.747              1.520              1.052
 Vibration    23          0.756              1.496              1.008
 Vibration    24          0.782              1.429              0.896
 Vibration    25          0.808              1.362              0.798
 Vibration    26          0.859              1.241              0.648
 Vibration    27          0.899              1.152              0.556
 Vibration    28          0.976              0.997              0.422

 Optimization completed.
    -- Stationary point found.
 Normal termination of Gaussian 16 at Mon Dec 14 18:23:35 2020.

 ----------------------------------------------------------------------
 # B3LYP/6-311++G(d,p) empiricaldispersion=gd3bj scf=xqc pop=npa geom=c
 heck
 ----------------------------------------------------------------------

 ----------------------------------------
 CID_103112233_JID_10698_Energie_neutraal
 ----------------------------------------
 Structure from the checkpoint file:  "JID_10698.chk"
 Charge =  0 Multiplicity = 1

 SCF Done:  E(RB3LYP) =  -987.071348284     A.U. after   16 cycles
 Normal termination of Gaussian 16 at Mon Dec 14 18:29:28 2020.

 ----------------------------------------------------------------------
 # B3LYP/6-311++G(d,p) empiricaldispersion=gd3bj scf=xqc pop=npa geom=c
 heck
 ----------------------------------------------------------------------

 --------------------------------------
 CID_103112233_JID_10698_Energie_kation
 --------------------------------------
 Structure from the checkpoint file:  "JID_10698.chk"
 Charge =  1 Multiplicity = 2

 SCF Done:  E(UB3LYP) =  -986.749353334     A.U. after   33 cycles
 SCF Done:  E(UB3LYP) =  -986.749353334     a.u. after    1 cycles
 Normal termination of Gaussian 16 at Mon Dec 14 18:46:29 2020.
 Gaussian 16:  ES64L-G16RevA.03 25-Dec-2016

 ----------------------------------------------------------------------
 # B3LYP/6-311++G(d,p) empiricaldispersion=gd3bj scf=xqc pop=npa geom=c
 heck
 ----------------------------------------------------------------------

 -------------------------------------
 CID_103112233_JID_10698_Energie_anion
 -------------------------------------
 Structure from the checkpoint file:  "JID_10698.chk"
 Charge = -1 Multiplicity = 2

                         Standard orientation:
 ---------------------------------------------------------------------
 Center     Atomic      Atomic             Coordinates (Angstroms)
 Number     Number       Type             X           Y           Z
 ---------------------------------------------------------------------
      1          6           0        5.105873    2.074786    1.743670
      2          6           0        4.471015    1.129769    0.786296
      3          6           0        3.462675    1.242614   -0.123968
      4          6           0        3.376901   -0.056252   -0.699203
      5          7           0        4.250359   -0.888780   -0.177605
      6          8           0        4.954921   -0.135309    0.765285
      7          6           0        2.420824   -0.542364   -1.748689
      8          7           0        1.042719   -0.417407   -1.296207
      9          6           0        0.363409   -1.201696   -0.424524
     10          6           0       -0.842396   -0.528085   -0.269667
     11          7           0       -0.821149    0.609623   -1.033610
     12          7           0        0.315782    0.685028   -1.650134
     13          6           0       -1.985981   -0.941899    0.557640
     14          8           0       -2.037589   -1.987019    1.182268
     15          8           0       -2.969510   -0.026774    0.541298
     16          6           0       -4.178720   -0.375792    1.241970
     17          6           0       -5.164191    0.767118    1.070065
     18          8           0       -5.655897    0.897403   -0.246251
     19          6           0       -4.850024    1.696109   -1.104302
     20          6           0        0.901302   -2.466391    0.150772
     21          1           0        5.009213    1.710819    2.772494
     22          1           0        6.174581    2.187625    1.530305
     23          1           0        4.629737    3.055331    1.673459
     24          1           0        2.857358    2.106238   -0.353668
     25          1           0        2.495841    0.056201   -2.659330
     26          1           0        2.633441   -1.586221   -1.989611
     27          1           0       -4.580878   -1.302770    0.822648
     28          1           0       -3.950702   -0.544182    2.300590
     29          1           0       -6.030907    0.555801    1.708628
     30          1           0       -4.706499    1.706581    1.418234
     31          1           0       -4.705403    2.703096   -0.682320
     32          1           0       -3.865869    1.253930   -1.290327
     33          1           0       -5.399330    1.784045   -2.045363
     34          1           0        1.879124   -2.304416    0.617175
     35          1           0        0.196280   -2.848821    0.888816
     36          1           0        1.030513   -3.226416   -0.629986
 ---------------------------------------------------------------------

 SCF Done:  E(UB3LYP) =  -987.065707533     A.U. after   33 cycles
 SCF Done:  E(UB3LYP) =  -987.065707533     a.u. after    1 cycles

 The electronic state is 2-A.
 Alpha  occ. eigenvalues --  -19.10448 -19.05756 -19.04656 -18.98881 -14.29588
 Alpha  occ. eigenvalues --  -14.26795 -14.25755 -14.23397 -10.17760 -10.14413
 Alpha  occ. eigenvalues --  -10.14356 -10.14251 -10.13851 -10.12400 -10.11824
 Alpha  occ. eigenvalues --  -10.11182 -10.09030 -10.08275 -10.07826 -10.07813
 Alpha  occ. eigenvalues --   -1.04280  -1.00186  -0.99327  -0.95687  -0.90559
 Alpha  occ. eigenvalues --   -0.82916  -0.77816  -0.72364  -0.71210  -0.68963
 Alpha  occ. eigenvalues --   -0.65170  -0.62505  -0.62300  -0.60785  -0.55816
 Alpha  occ. eigenvalues --   -0.52447  -0.52021  -0.49396  -0.47694  -0.46757
 Alpha  occ. eigenvalues --   -0.44043  -0.42179  -0.41570  -0.39796  -0.39042
 Alpha  occ. eigenvalues --   -0.38021  -0.37996  -0.37070  -0.36561  -0.35362
 Alpha  occ. eigenvalues --   -0.34868  -0.34126  -0.32900  -0.31933  -0.31650
 Alpha  occ. eigenvalues --   -0.31532  -0.31395  -0.30499  -0.30169  -0.30043
 Alpha  occ. eigenvalues --   -0.28998  -0.28564  -0.26244  -0.24275  -0.24016
 Alpha  occ. eigenvalues --   -0.21578  -0.20707  -0.20580  -0.19024  -0.18146
 Alpha  occ. eigenvalues --   -0.17323  -0.16960  -0.16340  -0.15586   0.04424
 Alpha virt. eigenvalues --    0.05844   0.06520   0.06822   0.07602   0.07926
 Alpha virt. eigenvalues --    0.08436   0.08906   0.09214   0.09459   0.10062
 Alpha virt. eigenvalues --    0.10318   0.10929   0.11274   0.11632   0.11888

  Beta  occ. eigenvalues --  -19.10372 -19.05693 -19.04656 -18.98697 -14.29527
  Beta  occ. eigenvalues --  -14.26854 -14.25634 -14.23369 -10.17527 -10.14355
  Beta  occ. eigenvalues --  -10.14334 -10.14254 -10.13853 -10.12400 -10.11786
  Beta  occ. eigenvalues --  -10.10893 -10.09031 -10.08222 -10.07839 -10.07832
  Beta  occ. eigenvalues --   -1.04139  -1.00007  -0.99240  -0.95675  -0.90269
  Beta  occ. eigenvalues --   -0.82810  -0.77653  -0.72098  -0.71083  -0.68897
  Beta  occ. eigenvalues --   -0.65092  -0.62416  -0.62187  -0.60756  -0.55637
  Beta  occ. eigenvalues --   -0.52390  -0.51946  -0.49241  -0.47558  -0.46632
  Beta  occ. eigenvalues --   -0.43934  -0.42111  -0.41460  -0.39630  -0.38998
  Beta  occ. eigenvalues --   -0.37836  -0.37699  -0.36791  -0.36327  -0.35202
  Beta  occ. eigenvalues --   -0.34712  -0.34013  -0.32778  -0.31796  -0.31511
  Beta  occ. eigenvalues --   -0.31446  -0.31256  -0.30451  -0.30057  -0.29899
  Beta  occ. eigenvalues --   -0.28591  -0.28423  -0.26156  -0.24263  -0.23996
  Beta  occ. eigenvalues --   -0.21420  -0.20272  -0.20030  -0.18628  -0.18116
  Beta  occ. eigenvalues --   -0.17275  -0.16823  -0.15937  -0.14932
  Beta virt. eigenvalues --    0.06468   0.07106   0.07532   0.07743   0.07884
  Beta virt. eigenvalues --    0.08638   0.08670   0.08931   0.09565   0.09769
  Beta virt. eigenvalues --    0.10424   0.10814   0.11082   0.11259   0.11573

 Mulliken charges and spin densities:
               1          2
     1  C    2.981891  -3.507817
     2  C   -1.958060   1.792431
     3  C   -0.542064   0.559388
     4  C    1.029411  -0.391025
     5  N   -0.435093   0.143172
     6  O    0.188189   0.008561
     7  C   -0.813427  -0.112370
     8  N    0.294994   0.018236
     9  C    0.570934   0.220785
    10  C   -0.139275   0.037436
    11  N   -0.384318   0.017318
    12  N    0.197255  -0.012390
    13  C   -0.795611   0.029678
    14  O   -0.317155   0.061745
    15  O   -0.042548   0.007892
    16  C    0.126866  -0.007264
    17  C   -0.601433  -0.012924
    18  O   -0.161935  -0.000041
    19  C   -0.316067  -0.006329
    20  C   -0.443577  -0.071873
    21  H   -0.152181   0.316255
    22  H   -0.645835   0.828857
    23  H   -0.557675   0.726332
    24  H   -0.018534   0.205472
    25  H    0.187830   0.017449
    26  H    0.197844  -0.003472
    27  H    0.199548   0.010366
    28  H    0.147722   0.005087
    29  H    0.164111   0.000300
    30  H    0.130819   0.008180
    31  H    0.104429   0.001268
    32  H    0.229887   0.004561
    33  H    0.127395   0.001566
    34  H    0.163566   0.010423
    35  H    0.206415   0.001322
    36  H    0.075680   0.091425
 Sum of Mulliken charges =  -1.00000   1.00000

 Dipole moment (field-independent basis, Debye):
    X=             -8.7081    Y=             -3.2284    Z=             -2.8365  Tot=              9.7108
 Quadrupole moment (field-independent basis, Debye-Ang):
   XX=           -235.0470   YY=           -157.3698   ZZ=           -136.4534
   XY=            -29.1985   XZ=            -24.6147   YZ=             -2.8292

 Summary of Natural Population Analysis:

                                       Natural Population
                Natural  -----------------------------------------------
    Atom  No    Charge         Core      Valence    Rydberg      Total
 -----------------------------------------------------------------------
      C    1   -0.31061      0.99962     2.30471    0.00628     3.31061
      C    2    0.19441      0.99952     1.79186    0.01421     2.80559
      C    3   -0.17944      0.99943     2.17056    0.00945     3.17944
      C    4    0.07500      0.99959     1.91009    0.01532     2.92500
      N    5   -0.07539      0.99966     2.56277    0.01297     3.57539
      O    6   -0.16440      0.99985     3.15566    0.00889     4.16440
      C    7   -0.09897      0.99957     2.08932    0.01008     3.09897
      N    8   -0.10530      0.99961     2.59245    0.01325     3.60530
      C    9    0.15603      0.99950     1.83496    0.00951     2.84397
      C   10   -0.02056      0.99944     2.00701    0.01412     3.02056
      N   11   -0.11610      0.99973     2.60275    0.01362     3.61610
      N   12   -0.06509      0.99978     2.54877    0.01653     3.56509
      C   13    0.42028      0.99964     1.55663    0.02345     2.57972
      O   14   -0.30726      0.99988     3.30239    0.00500     4.30726
      O   15   -0.27782      0.99985     3.26830    0.00967     4.27782
      C   16   -0.02747      0.99958     2.01795    0.00995     3.02747
      C   17   -0.01635      0.99958     2.00543    0.01134     3.01635
      O   18   -0.30239      0.99989     3.29182    0.01068     4.30239
      C   19   -0.10245      0.99962     2.09425    0.00857     3.10245
      C   20   -0.31573      0.99964     2.31147    0.00462     3.31573
      H   21    0.11030      0.00000     0.38864    0.00106     0.38970
      H   22    0.11679      0.00000     0.37841    0.00479     0.38321
      H   23    0.11257      0.00000     0.38547    0.00196     0.38743
      H   24    0.11905      0.00000     0.37965    0.00130     0.38095
      H   25    0.11458      0.00000     0.38412    0.00130     0.38542
      H   26    0.11052      0.00000     0.38835    0.00113     0.38948
      H   27    0.09201      0.00000     0.40586    0.00213     0.40799
      H   28    0.09138      0.00000     0.40742    0.00120     0.40862
      H   29    0.08691      0.00000     0.41207    0.00102     0.41309
      H   30    0.08154      0.00000     0.41709    0.00138     0.41846
      H   31    0.07439      0.00000     0.42442    0.00118     0.42561
      H   32    0.10018      0.00000     0.39854    0.00128     0.39982
      H   33    0.08384      0.00000     0.41538    0.00078     0.41616
      H   34    0.11450      0.00000     0.38431    0.00119     0.38550
      H   35    0.12550      0.00000     0.37334    0.00116     0.37450
      H   36    0.10552      0.00000     0.39297    0.00151     0.39448
 =======================================================================
   * Total *    0.00000     19.99296    53.75519    0.25185    74.00000

 Normal termination of Gaussian 16 at Mon Dec 14 19:02:56 2020.
