 Gaussian 16, Revision A.03,

 -----------------------------------------------------------
 # opt freq B3LYP/6-31G(d) empiricaldispersion=gd3bj scf=xqc
 -----------------------------------------------------------

 ------------------------------
 CID_21919289_JID_4592_neutraal
 ------------------------------
 Symbolic Z-matrix:
 Charge =  0 Multiplicity = 1

 SCF Done:  E(RB3LYP) =  -686.533866768     A.U. after   15 cycles
 SCF Done:  E(RB3LYP) =  -686.541314879     A.U. after   13 cycles
 SCF Done:  E(RB3LYP) =  -686.542378262     A.U. after   12 cycles
 SCF Done:  E(RB3LYP) =  -686.542687023     A.U. after   11 cycles
 SCF Done:  E(RB3LYP) =  -686.542866365     A.U. after   12 cycles
 SCF Done:  E(RB3LYP) =  -686.542934046     A.U. after   11 cycles
 SCF Done:  E(RB3LYP) =  -686.542997900     A.U. after   10 cycles
 SCF Done:  E(RB3LYP) =  -686.543023231     A.U. after   10 cycles
 SCF Done:  E(RB3LYP) =  -686.543028472     A.U. after    9 cycles
 SCF Done:  E(RB3LYP) =  -686.543041576     A.U. after   10 cycles
 SCF Done:  E(RB3LYP) =  -686.543223422     A.U. after    9 cycles
 SCF Done:  E(RB3LYP) =  -686.543223828     A.U. after    8 cycles
 SCF Done:  E(RB3LYP) =  -686.543224258     A.U. after    9 cycles
 SCF Done:  E(RB3LYP) =  -686.543224272     A.U. after    7 cycles
 SCF Done:  E(RB3LYP) =  -686.543224269     A.U. after    7 cycles
 Optimization completed.
    -- Stationary point found.
 Normal termination of Gaussian 16 at Thu Dec 10 10:13:50 2020.

 --------------------------------------------------------------------
 #N Geom=AllCheck Guess=TCheck SCRF=Check GenChk RB3LYP/6-31G(d) Freq
 --------------------------------------------------------------------

 Structure from the checkpoint file:  "JID_4592.chk"
 ------------------------------
 CID_21919289_JID_4592_neutraal
 ------------------------------
 Charge =  0 Multiplicity = 1

 SCF Done:  E(RB3LYP) =  -686.543224269     A.U. after    1 cycles

  Exact polarizability: 154.945   2.794 120.964   2.870  -7.466  76.904
 Approx polarizability: 215.958  11.446 189.701   3.434 -27.782 121.283

                      1                      2                      3
                      A                      A                      A
 Frequencies --     19.8670                41.6769                56.7590
 Red. masses --      2.8438                 4.0191                 2.9680
 Frc consts  --      0.0007                 0.0041                 0.0056
 IR Inten    --      0.8157                 0.1728                 0.9448

                      4                      5                      6
                      A                      A                      A
 Frequencies --     81.5000               104.4317               127.7477
 Red. masses --      3.7374                 3.7014                 3.1893
 Frc consts  --      0.0146                 0.0238                 0.0307
 IR Inten    --      4.1324                 0.0432                 1.6103

                      7                      8                      9
                      A                      A                      A
 Frequencies --    155.0302               188.1021               209.0659
 Red. masses --      2.4259                 2.1362                 1.7985
 Frc consts  --      0.0344                 0.0445                 0.0463
 IR Inten    --      3.1516                 1.8414                 0.0751

                     10                     11                     12
                      A                      A                      A
 Frequencies --    243.6626               258.0593               290.9013
 Red. masses --      1.5116                 3.0085                 1.8891
 Frc consts  --      0.0529                 0.1180                 0.0942
 IR Inten    --      0.5977                 2.2765                 0.3061

                     13                     14                     15
                      A                      A                      A
 Frequencies --    308.9790               341.4695               403.9604
 Red. masses --      3.6143                 3.8364                 3.9755
 Frc consts  --      0.2033                 0.2636                 0.3822
 IR Inten    --      7.7075                 0.2022                10.6759

                     16                     17                     18
                      A                      A                      A
 Frequencies --    425.0883               447.4196               492.1217
 Red. masses --      3.2295                 1.3507                 3.7918
 Frc consts  --      0.3438                 0.1593                 0.5411
 IR Inten    --      5.9019                76.4743                14.0055

                     19                     20                     21
                      A                      A                      A
 Frequencies --    504.4136               522.9056               550.3431
 Red. masses --      4.4753                 4.2335                 4.5235
 Frc consts  --      0.6709                 0.6820                 0.8072
 IR Inten    --      7.2802                 4.4444                17.8398

                     22                     23                     24
                      A                      A                      A
 Frequencies --    635.6843               701.6974               742.2466
 Red. masses --      5.0409                 7.4260                 5.9020
 Frc consts  --      1.2002                 2.1543                 1.9158
 IR Inten    --     19.9616                 7.9622                 1.9819

                     25                     26                     27
                      A                      A                      A
 Frequencies --    748.0339               793.7100               821.8658
 Red. masses --      3.7746                 2.9164                 1.3507
 Frc consts  --      1.2444                 1.0825                 0.5375
 IR Inten    --      2.6811                 2.3593                 3.7507

                     28                     29                     30
                      A                      A                      A
 Frequencies --    826.2297               874.0545               897.8331
 Red. masses --      1.1543                 2.0825                 1.9958
 Frc consts  --      0.4643                 0.9374                 0.9479
 IR Inten    --      1.1073                 3.6341                23.6750

                     31                     32                     33
                      A                      A                      A
 Frequencies --    920.1059               996.0402              1038.0199
 Red. masses --      2.4371                 3.2757                 1.7423
 Frc consts  --      1.2156                 1.9147                 1.1061
 IR Inten    --      5.2159                11.5043                 6.8555

                     34                     35                     36
                      A                      A                      A
 Frequencies --   1062.8592              1081.9779              1112.7132
 Red. masses --      3.9738                 4.1178                 4.8941
 Frc consts  --      2.6449                 2.8402                 3.5701
 IR Inten    --     72.3044                48.6724               103.5786

                     37                     38                     39
                      A                      A                      A
 Frequencies --   1119.6952              1130.4402              1172.5717
 Red. masses --      2.0420                 2.1137                 2.9281
 Frc consts  --      1.5083                 1.5915                 2.3720
 IR Inten    --     41.6643                24.2268               195.8223

                     40                     41                     42
                      A                      A                      A
 Frequencies --   1200.2363              1215.4663              1224.5951
 Red. masses --      1.7458                 2.1422                 1.8187
 Frc consts  --      1.4818                 1.8646                 1.6069
 IR Inten    --      3.5906               126.5503                44.3423

                     43                     44                     45
                      A                      A                      A
 Frequencies --   1248.1338              1264.1404              1298.5400
 Red. masses --      2.9472                 1.4954                 2.8734
 Frc consts  --      2.7051                 1.4080                 2.8547
 IR Inten    --     51.9367                 4.0674                42.7178

                     46                     47                     48
                      A                      A                      A
 Frequencies --   1334.6553              1337.5282              1368.0052
 Red. masses --      1.1625                 1.1287                 1.6263
 Frc consts  --      1.2201                 1.1896                 1.7932
 IR Inten    --      4.5143                23.2984               161.9698

                     49                     50                     51
                      A                      A                      A
 Frequencies --   1403.2680              1413.5293              1439.6261
 Red. masses --      1.6475                 1.2924                 1.4153
 Frc consts  --      1.9114                 1.5215                 1.7282
 IR Inten    --     42.7817                42.8756                22.8046

                     52                     53                     54
                      A                      A                      A
 Frequencies --   1442.3580              1454.2777              1470.3009
 Red. masses --      1.3097                 2.7181                 2.4167
 Frc consts  --      1.6053                 3.3870                 3.0781
 IR Inten    --     66.0138                38.9684               210.9466

                     55                     56                     57
                      A                      A                      A
 Frequencies --   1496.3785              1515.9574              1517.5703
 Red. masses --      1.4374                 1.0412                 1.0460
 Frc consts  --      1.8963                 1.4098                 1.4193
 IR Inten    --     76.6853                 9.4521                 1.8040

                     58                     59                     60
                      A                      A                      A
 Frequencies --   1524.0405              1531.3409              1540.7865
 Red. masses --      1.0679                 1.0508                 1.1063
 Frc consts  --      1.4614                 1.4518                 1.5474
 IR Inten    --      0.6057                 0.7099                 3.0792

                     61                     62                     63
                      A                      A                      A
 Frequencies --   1546.2000              1551.2154              1590.2901
 Red. masses --      1.1057                 1.1212                 7.1506
 Frc consts  --      1.5574                 1.5896                10.6548
 IR Inten    --      2.8469                 9.0696                68.0623

                     64                     65                     66
                      A                      A                      A
 Frequencies --   1636.3004              2950.8145              3053.5780
 Red. masses --      6.8642                 1.0742                 1.0688
 Frc consts  --     10.8284                 5.5109                 5.8718
 IR Inten    --    244.9272                77.8569                35.6637

                     67                     68                     69
                      A                      A                      A
 Frequencies --   3058.0930              3058.5756              3063.1103
 Red. masses --      1.0394                 1.0819                 1.0358
 Frc consts  --      5.7269                 5.9634                 5.7260
 IR Inten    --      7.3346                29.4100                10.5688

                     70                     71                     72
                      A                      A                      A
 Frequencies --   3075.1432              3122.2227              3122.6260
 Red. masses --      1.0633                 1.0994                 1.1025
 Frc consts  --      5.9244                 6.3142                 6.3336
 IR Inten    --     34.7608                 2.1857                 2.0592

                     73                     74                     75
                      A                      A                      A
 Frequencies --   3131.0937              3134.9777              3146.6379
 Red. masses --      1.1008                 1.0998                 1.1054
 Frc consts  --      6.3586                 6.3684                 6.4487
 IR Inten    --     28.6829                35.4819                40.3180

                     76                     77                     78
                      A                      A                      A
 Frequencies --   3147.1082              3248.5906              3606.3355
 Red. masses --      1.1036                 1.0915                 1.0649
 Frc consts  --      6.4402                 6.7866                 8.1600
 IR Inten    --     41.9970                 3.3584                90.5335

 - Thermochemistry -
 -------------------
 Temperature   298.150 Kelvin.  Pressure   1.00000 Atm.
 Atom     1 has atomic number  6 and mass  12.00000

 Molecular mass:   198.10044 amu.
 Principal axes and moments of inertia in atomic units:
                           1         2         3
     Eigenvalues --  2014.220723688.091055299.50269
           X            0.99999  -0.00250   0.00238
           Y            0.00245   0.99980   0.01969
           Z           -0.00243  -0.01969   0.99980
 This molecule is an asymmetric top.
 Rotational symmetry number  1.
 Warning -- assumption of classical behavior for rotation
           may cause significant error
 Rotational temperatures (Kelvin)      0.04300     0.02348     0.01634
 Rotational constants (GHZ):           0.89600     0.48934     0.34055
 Zero-point vibrational energy     609694.3 (Joules/Mol)
                                  145.72044 (Kcal/Mol)
 Warning -- explicit consideration of  21 degrees of freedom as
           vibrations may cause significant error
 Vibrational temperatures:     28.58    59.96    81.66   117.26   150.25
          (Kelvin)            183.80   223.05   270.64   300.80   350.58
                              371.29   418.54   444.55   491.30   581.21
                              611.61   643.74   708.05   725.74   752.34
                              791.82   914.61  1009.59  1067.93  1076.25
                             1141.97  1182.48  1188.76  1257.57  1291.78
                             1323.83  1433.08  1493.48  1529.22  1556.72
                             1600.95  1610.99  1626.45  1687.07  1726.87
                             1748.78  1761.92  1795.79  1818.82  1868.31
                             1920.27  1924.40  1968.25  2018.99  2033.75
                             2071.30  2075.23  2092.38  2115.44  2152.95
                             2181.12  2183.45  2192.75  2203.26  2216.85
                             2224.64  2231.85  2288.07  2354.27  4245.56
                             4393.42  4399.91  4400.61  4407.13  4424.45
                             4492.18  4492.76  4504.95  4510.53  4527.31
                             4527.99  4674.00  5188.71

 Zero-point correction=                           0.232220 (Hartree/Particle)
 Thermal correction to Energy=                    0.246692
 Thermal correction to Enthalpy=                  0.247636
 Thermal correction to Gibbs Free Energy=         0.189138
 Sum of electronic and zero-point Energies=           -686.311004
 Sum of electronic and thermal Energies=              -686.296532
 Sum of electronic and thermal Enthalpies=            -686.295588
 Sum of electronic and thermal Free Energies=         -686.354086

                     E (Thermal)             CV                S
                      KCal/Mol        Cal/Mol-Kelvin    Cal/Mol-Kelvin
 Total                  154.802             52.546            123.120
 Electronic               0.000              0.000              0.000
 Translational            0.889              2.981             41.756
 Rotational               0.889              2.981             32.043
 Vibrational            153.024             46.584             49.321
 Vibration     1          0.593              1.986              6.647
 Vibration     2          0.594              1.981              5.178
 Vibration     3          0.596              1.975              4.567
 Vibration     4          0.600              1.962              3.854
 Vibration     5          0.605              1.946              3.370
 Vibration     6          0.611              1.925              2.980
 Vibration     7          0.620              1.897              2.610
 Vibration     8          0.633              1.856              2.246
 Vibration     9          0.642              1.827              2.052
 Vibration    10          0.659              1.773              1.776
 Vibration    11          0.667              1.749              1.675
 Vibration    12          0.687              1.691              1.469
 Vibration    13          0.698              1.657              1.368
 Vibration    14          0.721              1.593              1.205
 Vibration    15          0.769              1.462              0.948
 Vibration    16          0.787              1.416              0.875
 Vibration    17          0.807              1.367              0.804
 Vibration    18          0.848              1.267              0.678
 Vibration    19          0.860              1.240              0.647
 Vibration    20          0.878              1.199              0.603
 Vibration    21          0.906              1.139              0.543

 Optimization completed.
    -- Stationary point found.
 Normal termination of Gaussian 16 at Thu Dec 10 10:20:52 2020.

 ----------------------------------------------------------------------
 # B3LYP/6-311++G(d,p) empiricaldispersion=gd3bj scf=xqc pop=npa geom=c
 heck
 ----------------------------------------------------------------------

 --------------------------------------
 CID_21919289_JID_4592_Energie_neutraal
 --------------------------------------
 Structure from the checkpoint file:  "JID_4592.chk"
 Charge =  0 Multiplicity = 1

 SCF Done:  E(RB3LYP) =  -686.743963854     A.U. after   15 cycles
 Normal termination of Gaussian 16 at Thu Dec 10 10:23:27 2020.

 ----------------------------------------------------------------------
 # B3LYP/6-311++G(d,p) empiricaldispersion=gd3bj scf=xqc pop=npa geom=c
 heck
 ----------------------------------------------------------------------

 ------------------------------------
 CID_21919289_JID_4592_Energie_kation
 ------------------------------------
 Structure from the checkpoint file:  "JID_4592.chk"
 Charge =  1 Multiplicity = 2

 SCF Done:  E(UB3LYP) =  -686.423177860     A.U. after   27 cycles
 Normal termination of Gaussian 16 at Thu Dec 10 10:30:04 2020.
 Gaussian 16:  ES64L-G16RevA.03 25-Dec-2016

 ----------------------------------------------------------------------
 # B3LYP/6-311++G(d,p) empiricaldispersion=gd3bj scf=xqc pop=npa geom=c
 heck
 ----------------------------------------------------------------------

 -----------------------------------
 CID_21919289_JID_4592_Energie_anion
 -----------------------------------
 Structure from the checkpoint file:  "JID_4592.chk"
 Charge = -1 Multiplicity = 2

                         Standard orientation:
 ---------------------------------------------------------------------
 Center     Atomic      Atomic             Coordinates (Angstroms)
 Number     Number       Type             X           Y           Z
 ---------------------------------------------------------------------
      1          6           0        0.762913    3.113033    0.798249
      2          6           0        1.802239    2.403876   -0.056043
      3          8           0        1.195519    1.508758   -1.013020
      4          6           0        0.617347    0.378546   -0.511032
      5          6           0       -0.756928    0.238270   -0.559411
      6          6           0       -1.300172   -0.967589   -0.081338
      7          7           0       -0.547035   -1.960225    0.400378
      8          7           0        0.771260   -1.809328    0.416238
      9          6           0        1.371471   -0.701301   -0.010356
     10          6           0        2.887250   -0.736667    0.056418
     11          8           0        3.373893   -2.051884    0.144121
     12          8           0       -2.617797   -1.259569   -0.063081
     13          6           0       -3.567879   -0.268967   -0.472804
     14          6           0       -3.813308    0.776751    0.607440
     15          1           0        0.054786    3.660531    0.167911
     16          1           0        1.254068    3.826115    1.469537
     17          1           0        0.202786    2.400477    1.412772
     18          1           0        2.361893    3.112433   -0.670672
     19          1           0        2.516230    1.857110    0.569725
     20          1           0       -1.356324    1.045888   -0.958127
     21          1           0        3.300219   -0.253658   -0.838637
     22          1           0        3.224356   -0.140036    0.923882
     23          1           0        2.623627   -2.580979    0.481026
     24          1           0       -3.256391    0.185705   -1.421614
     25          1           0       -4.478334   -0.840769   -0.666142
     26          1           0       -2.912766    1.359853    0.823684
     27          1           0       -4.599171    1.469215    0.286130
     28          1           0       -4.135069    0.290832    1.533305
 ---------------------------------------------------------------------

 SCF Done:  E(UB3LYP) =  -686.746529452     A.U. after   33 cycles
 SCF Done:  E(UB3LYP) =  -686.746529452     a.u. after    1 cycles

 The electronic state is 2-A.
 Alpha  occ. eigenvalues --  -19.03286 -19.02833 -18.99332 -14.18220 -14.17604
 Alpha  occ. eigenvalues --  -10.12805 -10.12559 -10.12172 -10.10260 -10.09540
 Alpha  occ. eigenvalues --  -10.06834 -10.06677 -10.05863 -10.03686  -0.95737
 Alpha  occ. eigenvalues --   -0.94481  -0.90378  -0.86026  -0.69501  -0.68297
 Alpha  occ. eigenvalues --   -0.65145  -0.64529  -0.58154  -0.54722  -0.53640
 Alpha  occ. eigenvalues --   -0.49985  -0.47271  -0.42207  -0.40718  -0.39308
 Alpha  occ. eigenvalues --   -0.37835  -0.37566  -0.35328  -0.34405  -0.33927
 Alpha  occ. eigenvalues --   -0.32920  -0.31356  -0.30336  -0.29343  -0.28898
 Alpha  occ. eigenvalues --   -0.28138  -0.27737  -0.26821  -0.24373  -0.22755
 Alpha  occ. eigenvalues --   -0.22186  -0.21179  -0.19891  -0.17008  -0.15763
 Alpha  occ. eigenvalues --   -0.14595  -0.11426  -0.09390   0.04576
 Alpha virt. eigenvalues --    0.06546   0.07111   0.08928   0.09571   0.09869
 Alpha virt. eigenvalues --    0.10421   0.10807   0.11818   0.12201   0.12783
 Alpha virt. eigenvalues --    0.13095   0.13617   0.14481   0.14945   0.15613

  Beta  occ. eigenvalues --  -19.03304 -19.02827 -18.99330 -14.17695 -14.17286
  Beta  occ. eigenvalues --  -10.12880 -10.12533 -10.12169 -10.10260 -10.09280
  Beta  occ. eigenvalues --  -10.06897 -10.06659 -10.05810 -10.03427  -0.95737
  Beta  occ. eigenvalues --   -0.94372  -0.90348  -0.85348  -0.69179  -0.67954
  Beta  occ. eigenvalues --   -0.65028  -0.64272  -0.57990  -0.54486  -0.53530
  Beta  occ. eigenvalues --   -0.49542  -0.47167  -0.42133  -0.40553  -0.39227
  Beta  occ. eigenvalues --   -0.37702  -0.37409  -0.35233  -0.34253  -0.33882
  Beta  occ. eigenvalues --   -0.32840  -0.31226  -0.30220  -0.29041  -0.28842
  Beta  occ. eigenvalues --   -0.27961  -0.27215  -0.26665  -0.24153  -0.22684
  Beta  occ. eigenvalues --   -0.22040  -0.20588  -0.19454  -0.16618  -0.15679
  Beta  occ. eigenvalues --   -0.13039  -0.10475  -0.08809
  Beta virt. eigenvalues --    0.06818   0.07554   0.08936   0.09347   0.09985
  Beta virt. eigenvalues --    0.10350   0.10976   0.11172   0.11947   0.12269
  Beta virt. eigenvalues --    0.12898   0.13196   0.13661   0.14542   0.14884

 Mulliken charges and spin densities:
               1          2
     1  C   -0.110218  -0.440489
     2  C   -0.237202   0.156779
     3  O   -0.152435  -0.001960
     4  C   -0.039016   0.084381
     5  C    0.140458   0.316832
     6  C   -0.373639  -0.118798
     7  N   -0.106259   0.153708
     8  N   -0.286514   0.229459
     9  C    0.107295  -0.103366
    10  C   -0.350535  -0.075334
    11  O   -0.305777   0.001922
    12  O   -0.041462  -0.001875
    13  C   -0.619719   0.370097
    14  C    0.754497  -1.131225
    15  H    0.006305   0.141466
    16  H   -0.101977   0.220754
    17  H    0.111033   0.075317
    18  H    0.141303   0.000006
    19  H    0.124679  -0.028419
    20  H    0.207739  -0.041216
    21  H    0.191871  -0.006016
    22  H    0.099936   0.042593
    23  H    0.284816  -0.002419
    24  H    0.162529  -0.042314
    25  H   -0.031773   0.210024
    26  H   -0.177430   0.325054
    27  H   -0.478358   0.599006
    28  H    0.079852   0.066034
 Sum of Mulliken charges =  -1.00000   1.00000

 Dipole moment (field-independent basis, Debye):
    X=              2.0579    Y=              3.4559    Z=             -1.4812  Tot=              4.2862
 Quadrupole moment (field-independent basis, Debye-Ang):
   XX=           -135.1898   YY=           -123.8758   ZZ=            -99.1938
   XY=             15.1576   XZ=              5.0873   YZ=             -0.2743

 Summary of Natural Population Analysis:

                                       Natural Population
                Natural  -----------------------------------------------
    Atom  No    Charge         Core      Valence    Rydberg      Total
 -----------------------------------------------------------------------
      C    1   -0.30433      0.99967     2.29859    0.00607     3.30433
      C    2   -0.00601      0.99958     1.99464    0.01180     3.00601
      O    3   -0.29246      0.99986     3.28335    0.00925     4.29246
      C    4    0.18974      0.99932     1.79612    0.01482     2.81026
      C    5   -0.12213      0.99947     2.11443    0.00824     3.12213
      C    6    0.23589      0.99946     1.74352    0.02113     2.76411
      N    7   -0.10667      0.99967     2.59264    0.01435     3.60667
      N    8   -0.07933      0.99964     2.56458    0.01512     3.57933
      C    9    0.02938      0.99951     1.95740    0.01372     2.97062
      C   10   -0.01410      0.99958     2.00316    0.01137     3.01410
      O   11   -0.38196      0.99990     3.37444    0.00762     4.38196
      O   12   -0.27536      0.99985     3.26570    0.00981     4.27536
      C   13   -0.01287      0.99959     2.00068    0.01260     3.01287
      C   14   -0.30134      0.99966     2.29656    0.00512     3.30134
      H   15    0.10033      0.00000     0.39851    0.00116     0.39967
      H   16    0.09744      0.00000     0.40157    0.00099     0.40256
      H   17    0.10700      0.00000     0.39160    0.00140     0.39300
      H   18    0.08324      0.00000     0.41564    0.00112     0.41676
      H   19    0.07992      0.00000     0.41848    0.00160     0.42008
      H   20    0.10146      0.00000     0.39660    0.00193     0.39854
      H   21    0.08320      0.00000     0.41529    0.00151     0.41680
      H   22    0.07029      0.00000     0.42686    0.00285     0.42971
      H   23    0.24280      0.00000     0.25384    0.00335     0.25720
      H   24    0.08219      0.00000     0.41649    0.00132     0.41781
      H   25    0.08791      0.00000     0.41082    0.00127     0.41209
      H   26    0.10563      0.00000     0.39291    0.00146     0.39437
      H   27    0.09984      0.00000     0.39806    0.00210     0.40016
      H   28    0.10029      0.00000     0.39858    0.00113     0.39971
 =======================================================================
   * Total *   -0.00000     13.99475    38.82105    0.18420    53.00000

 Normal termination of Gaussian 16 at Thu Dec 10 10:38:30 2020.
