 Gaussian 16, Revision A.03,

 -----------------------------------------------------------
 # opt freq B3LYP/6-31G(d) empiricaldispersion=gd3bj scf=xqc
 -----------------------------------------------------------

 ------------------------------
 CID_62319630_JID_1220_neutraal
 ------------------------------
 Symbolic Z-matrix:
 Charge =  0 Multiplicity = 1

 SCF Done:  E(RB3LYP) =  -540.151958024     A.U. after   14 cycles
 SCF Done:  E(RB3LYP) =  -540.154420503     A.U. after   12 cycles
 SCF Done:  E(RB3LYP) =  -540.154536232     A.U. after   13 cycles
 SCF Done:  E(RB3LYP) =  -540.155728682     A.U. after   13 cycles
 SCF Done:  E(RB3LYP) =  -540.156541853     A.U. after   12 cycles
 SCF Done:  E(RB3LYP) =  -540.156488406     A.U. after   12 cycles
 SCF Done:  E(RB3LYP) =  -540.156948005     A.U. after   11 cycles
 SCF Done:  E(RB3LYP) =  -540.157180257     A.U. after   12 cycles
 SCF Done:  E(RB3LYP) =  -540.157569159     A.U. after   14 cycles
 SCF Done:  E(RB3LYP) =  -540.157440457     A.U. after   14 cycles
 SCF Done:  E(RB3LYP) =  -540.158567674     A.U. after   11 cycles
 SCF Done:  E(RB3LYP) =  -540.158587413     A.U. after   10 cycles
 SCF Done:  E(RB3LYP) =  -540.158607548     A.U. after   11 cycles
 SCF Done:  E(RB3LYP) =  -540.158608512     A.U. after    8 cycles
 SCF Done:  E(RB3LYP) =  -540.158608767     A.U. after    8 cycles
 SCF Done:  E(RB3LYP) =  -540.158608780     A.U. after    7 cycles
 Optimization completed.
    -- Stationary point found.

 1\1\GINC-NODE310\FOpt\RB3LYP\6-31G(d)\C8H16O3\VSC10255\08-Dec-2020\0\\
 # opt freq B3LYP/6-31G(d) empiricaldispersion=gd3bj scf=xqc\\CID_62319
 630_JID_1220_neutraal\\0,1\C,1.0330345138,-0.4460973583,0.3594918073\O
 ,0.6448515189,-0.758540452,-0.9590696382\C,0.6587793486,-2.1540628788,
 -1.2102922284\C,0.2794974072,-2.3873745847,-2.6684650456\C,1.145510799
 9,-1.6106811194,-3.6704355139\C,2.6616353532,-1.8683692155,-3.54186943
 56\C,2.9963593201,-3.3233357435,-3.8188851586\O,2.860016609,-3.8162333
 715,-4.9235915721\C,3.4235464774,-4.2310113875,-2.6545763211\O,3.93792

 Normal termination of Gaussian 16 at Tue Dec  8 19:31:53 2020.

 --------------------------------------------------------------------
 #N Geom=AllCheck Guess=TCheck SCRF=Check GenChk RB3LYP/6-31G(d) Freq
 --------------------------------------------------------------------

 Structure from the checkpoint file:  "JID_1220.chk"
 ------------------------------
 CID_62319630_JID_1220_neutraal
 ------------------------------
 Charge =  0 Multiplicity = 1

 SCF Done:  E(RB3LYP) =  -540.158608780     A.U. after    1 cycles

  Exact polarizability:  99.932  -2.925  95.633   2.017  -1.671  82.606
 Approx polarizability: 128.656  -8.773 130.463   3.929  -1.540 118.834

                      1                      2                      3
                      A                      A                      A
 Frequencies --     31.7367                34.4522                68.4213
 Red. masses --      4.4157                 3.6976                 3.2335
 Frc consts  --      0.0026                 0.0026                 0.0089
 IR Inten    --      0.7578                 0.0284                 3.3308

                      4                      5                      6
                      A                      A                      A
 Frequencies --     79.1280                95.4124               126.8838
 Red. masses --      3.3479                 2.3443                 3.5235
 Frc consts  --      0.0124                 0.0126                 0.0334
 IR Inten    --      0.1422                 9.7792                 1.2932

                      7                      8                      9
                      A                      A                      A
 Frequencies --    146.9256               176.2554               205.4158
 Red. masses --      3.1234                 1.2860                 1.5465
 Frc consts  --      0.0397                 0.0235                 0.0384
 IR Inten    --      1.0336                 0.6232                 0.6369

                     10                     11                     12
                      A                      A                      A
 Frequencies --    250.0447               265.7135               302.5763
 Red. masses --      1.6734                 2.4901                 2.4537
 Frc consts  --      0.0616                 0.1036                 0.1324
 IR Inten    --      5.2965                 4.5108                14.0157

                     13                     14                     15
                      A                      A                      A
 Frequencies --    339.7248               389.1947               409.9862
 Red. masses --      2.3641                 2.0902                 2.4381
 Frc consts  --      0.1608                 0.1865                 0.2415
 IR Inten    --      4.1607                 2.6921                 0.6722

                     16                     17                     18
                      A                      A                      A
 Frequencies --    480.2518               520.8175               549.7739
 Red. masses --      2.8147                 4.3150                 2.7670
 Frc consts  --      0.3825                 0.6896                 0.4928
 IR Inten    --     15.0625                 1.9191                 0.7118

                     19                     20                     21
                      A                      A                      A
 Frequencies --    643.8823               726.2588               768.4571
 Red. masses --      3.0230                 2.1993                 1.7210
 Frc consts  --      0.7384                 0.6835                 0.5988
 IR Inten    --      8.1340                 5.5593                 2.4837

                     22                     23                     24
                      A                      A                      A
 Frequencies --    837.0320               891.4538               962.3259
 Red. masses --      2.3173                 2.0745                 3.2556
 Frc consts  --      0.9566                 0.9713                 1.7763
 IR Inten    --      0.6158                 8.1316                22.4927

                     25                     26                     27
                      A                      A                      A
 Frequencies --    975.1686               983.4138              1019.0876
 Red. masses --      1.9488                 2.3657                 1.8777
 Frc consts  --      1.0919                 1.3480                 1.1490
 IR Inten    --      5.7148                11.6144                 6.5945

                     28                     29                     30
                      A                      A                      A
 Frequencies --   1068.9159              1093.6842              1113.0420
 Red. masses --      2.0789                 1.7810                 2.6101
 Frc consts  --      1.3995                 1.2552                 1.9051
 IR Inten    --     12.5902                 6.7854                15.0113

                     31                     32                     33
                      A                      A                      A
 Frequencies --   1146.6268              1171.8161              1172.9084
 Red. masses --      2.8218                 1.9172                 3.6649
 Frc consts  --      2.1859                 1.5511                 2.9706
 IR Inten    --     61.4800                62.3511               126.7337

                     34                     35                     36
                      A                      A                      A
 Frequencies --   1192.5246              1194.1167              1210.7332
 Red. masses --      1.2803                 1.2629                 1.6560
 Frc consts  --      1.0728                 1.0610                 1.4303
 IR Inten    --      2.1872                 3.0430                 6.9559

                     37                     38                     39
                      A                      A                      A
 Frequencies --   1229.0688              1249.0221              1258.9173
 Red. masses --      1.6593                 1.6464                 1.6326
 Frc consts  --      1.4768                 1.5133                 1.5245
 IR Inten    --     48.3399                19.6253                49.9607

                     40                     41                     42
                      A                      A                      A
 Frequencies --   1288.6288              1314.3706              1331.0171
 Red. masses --      1.1934                 1.2347                 1.1933
 Frc consts  --      1.1676                 1.2568                 1.2456
 IR Inten    --     10.1030                 7.1931                 8.9598

                     43                     44                     45
                      A                      A                      A
 Frequencies --   1377.5492              1379.7795              1394.9867
 Red. masses --      1.3693                 1.3460                 1.3451
 Frc consts  --      1.5310                 1.5098                 1.5422
 IR Inten    --     13.9727                17.2085                14.3532

                     46                     47                     48
                      A                      A                      A
 Frequencies --   1411.7058              1454.5179              1479.9866
 Red. masses --      1.4517                 1.3134                 1.0732
 Frc consts  --      1.7045                 1.6372                 1.3850
 IR Inten    --      5.7486                20.8315                 6.8593

                     49                     50                     51
                      A                      A                      A
 Frequencies --   1504.3700              1505.3125              1507.9723
 Red. masses --      1.1491                 1.1344                 1.0982
 Frc consts  --      1.5322                 1.5145                 1.4714
 IR Inten    --      1.9016                 2.2589                 0.0698

                     52                     53                     54
                      A                      A                      A
 Frequencies --   1514.3273              1515.4932              1518.3052
 Red. masses --      1.0541                 1.0804                 1.0836
 Frc consts  --      1.4242                 1.4620                 1.4717
 IR Inten    --      3.1810                10.8808                10.1203

                     55                     56                     57
                      A                      A                      A
 Frequencies --   1519.9870              1534.8736              1537.7149
 Red. masses --      1.0857                 1.0579                 1.0674
 Frc consts  --      1.4778                 1.4684                 1.4870
 IR Inten    --      3.6425                 2.3915                12.0911

                     58                     59                     60
                      A                      A                      A
 Frequencies --   1568.6946              1808.2980              2976.9762
 Red. masses --      1.0847                11.2616                 1.0576
 Frc consts  --      1.5727                21.6965                 5.5221
 IR Inten    --      4.3804               123.2797                35.1100

                     61                     62                     63
                      A                      A                      A
 Frequencies --   2990.1911              3004.9256              3024.1940
 Red. masses --      1.0444                 1.0366                 1.0860
 Frc consts  --      5.5017                 5.5149                 5.8519
 IR Inten    --     89.8964                47.4951                21.2989

                     64                     65                     66
                      A                      A                      A
 Frequencies --   3025.7807              3030.4722              3043.2089
 Red. masses --      1.0698                 1.1043                 1.0650
 Frc consts  --      5.7707                 5.9751                 5.8112
 IR Inten    --     59.9579                45.0674                32.5988

                     67                     68                     69
                      A                      A                      A
 Frequencies --   3055.3052              3067.6412              3073.9171
 Red. masses --      1.1052                 1.0651                 1.0660
 Frc consts  --      6.0783                 5.9053                 5.9344
 IR Inten    --     59.2809                 6.3047                18.2627

                     70                     71                     72
                      A                      A                      A
 Frequencies --   3082.6959              3086.9407              3119.5493
 Red. masses --      1.1002                 1.0971                 1.1031
 Frc consts  --      6.1599                 6.1593                 6.3246
 IR Inten    --     38.4826                30.4831                18.2916

                     73                     74                     75
                      A                      A                      A
 Frequencies --   3133.4760              3145.4339              3147.8456
 Red. masses --      1.0966                 1.0971                 1.0981
 Frc consts  --      6.3436                 6.3955                 6.4111
 IR Inten    --     35.5253                25.3552                17.9618

 - Thermochemistry -
 -------------------
 Temperature   298.150 Kelvin.  Pressure   1.00000 Atm.
 Atom     1 has atomic number  6 and mass  12.00000

 Molecular mass:   160.10994 amu.
 Principal axes and moments of inertia in atomic units:
                           1         2         3
     Eigenvalues --  1358.431922552.960823374.24100
           X            0.99979   0.01916  -0.00699
           Y           -0.01927   0.99969  -0.01606
           Z            0.00668   0.01620   0.99985
 This molecule is an asymmetric top.
 Rotational symmetry number  1.
 Warning -- assumption of classical behavior for rotation
           may cause significant error
 Rotational temperatures (Kelvin)      0.06376     0.03393     0.02567
 Rotational constants (GHZ):           1.32855     0.70692     0.53486
 Zero-point vibrational energy     627187.8 (Joules/Mol)
                                  149.90149 (Kcal/Mol)
 Warning -- explicit consideration of  18 degrees of freedom as
           vibrations may cause significant error
 Vibrational temperatures:     45.66    49.57    98.44   113.85   137.28
          (Kelvin)            182.56   211.39   253.59   295.55   359.76
                              382.30   435.34   488.79   559.96   589.88
                              690.98   749.34   791.00   926.40  1044.92
                             1105.64  1204.30  1282.60  1384.57  1403.05
                             1414.91  1466.24  1537.93  1573.57  1601.42
                             1649.74  1685.98  1687.55  1715.78  1718.07
                             1741.97  1768.36  1797.06  1811.30  1854.05
                             1891.09  1915.04  1981.99  1985.19  2007.07
                             2031.13  2092.73  2129.37  2164.45  2165.81
                             2169.64  2178.78  2180.46  2184.50  2186.92
                             2208.34  2212.43  2257.00  2601.74  4283.20
                             4302.22  4323.42  4351.14  4353.42  4360.17
                             4378.50  4395.90  4413.65  4422.68  4435.31
                             4441.42  4488.34  4508.37  4525.58  4529.05

 Zero-point correction=                           0.238883 (Hartree/Particle)
 Thermal correction to Energy=                    0.252213
 Thermal correction to Enthalpy=                  0.253158
 Thermal correction to Gibbs Free Energy=         0.197436
 Sum of electronic and zero-point Energies=           -539.919726
 Sum of electronic and thermal Energies=              -539.906395
 Sum of electronic and thermal Enthalpies=            -539.905451
 Sum of electronic and thermal Free Energies=         -539.961173

                     E (Thermal)             CV                S
                      KCal/Mol        Cal/Mol-Kelvin    Cal/Mol-Kelvin
 Total                  158.266             46.251            117.276
 Electronic               0.000              0.000              0.000
 Translational            0.889              2.981             41.121
 Rotational               0.889              2.981             30.838
 Vibrational            156.489             40.289             45.317
 Vibration     1          0.594              1.983              5.718
 Vibration     2          0.594              1.983              5.555
 Vibration     3          0.598              1.969              4.198
 Vibration     4          0.600              1.963              3.912
 Vibration     5          0.603              1.952              3.546
 Vibration     6          0.611              1.926              2.993
 Vibration     7          0.617              1.906              2.712
 Vibration     8          0.628              1.872              2.368
 Vibration     9          0.640              1.832              2.084
 Vibration    10          0.663              1.763              1.730
 Vibration    11          0.672              1.736              1.624
 Vibration    12          0.694              1.669              1.403
 Vibration    13          0.720              1.596              1.213
 Vibration    14          0.757              1.493              1.003
 Vibration    15          0.774              1.449              0.927
 Vibration    16          0.837              1.294              0.709
 Vibration    17          0.876              1.204              0.608
 Vibration    18          0.905              1.140              0.545

 Optimization completed.
    -- Stationary point found.

 1\1\GINC-NODE310\Freq\RB3LYP\6-31G(d)\C8H16O3\VSC10255\08-Dec-2020\0\\
 #N Geom=AllCheck Guess=TCheck SCRF=Check GenChk RB3LYP/6-31G(d) Freq\\
 CID_62319630_JID_1220_neutraal\\0,1\C,1.0330345138,-0.4460973583,0.359
 4918073\O,0.6448515189,-0.758540452,-0.9590696382\C,0.6587793486,-2.15
 40628788,-1.2102922284\C,0.2794974072,-2.3873745847,-2.6684650456\C,1.
 1455107999,-1.6106811194,-3.6704355139\C,2.6616353532,-1.8683692155,-3
 .5418694356\C,2.9963593201,-3.3233357435,-3.8188851586\O,2.860016609,-
 3.8162333715,-4.9235915721\C,3.4235464774,-4.2310113875,-2.6545763211\

 Normal termination of Gaussian 16 at Tue Dec  8 19:37:13 2020.

 ----------------------------------------------------------------------
 # B3LYP/6-311++G(d,p) empiricaldispersion=gd3bj scf=xqc pop=npa geom=c
 heck
 ----------------------------------------------------------------------

 --------------------------------------
 CID_62319630_JID_1220_Energie_neutraal
 --------------------------------------
 Structure from the checkpoint file:  "JID_1220.chk"
 Charge =  0 Multiplicity = 1

 SCF Done:  E(RB3LYP) =  -540.323053912     A.U. after   13 cycles
 Normal termination of Gaussian 16 at Tue Dec  8 19:39:17 2020.

 ----------------------------------------------------------------------
 # B3LYP/6-311++G(d,p) empiricaldispersion=gd3bj scf=xqc pop=npa geom=c
 heck
 ----------------------------------------------------------------------

 ------------------------------------
 CID_62319630_JID_1220_Energie_kation
 ------------------------------------
 Structure from the checkpoint file:  "JID_1220.chk"
 Charge =  1 Multiplicity = 2

 SCF Done:  E(UB3LYP) =  -540.002494069     A.U. after   22 cycles
 Normal termination of Gaussian 16 at Tue Dec  8 19:43:18 2020.
 Gaussian 16:  ES64L-G16RevA.03 25-Dec-2016

 -----------------------------------
 CID_62319630_JID_1220_Energie_anion
 -----------------------------------
 Structure from the checkpoint file:  "JID_1220.chk"
 Charge = -1 Multiplicity = 2

                         Standard orientation:
 ---------------------------------------------------------------------
 Center     Atomic      Atomic             Coordinates (Angstroms)
 Number     Number       Type             X           Y           Z
 ---------------------------------------------------------------------
      1          6           0       -3.271739    1.389562   -0.260240
      2          8           0       -2.697509    0.102263   -0.265738
      3          6           0       -1.801725   -0.094605    0.815744
      4          6           0       -1.194266   -1.487696    0.693901
      5          6           0       -0.531600   -1.762947   -0.663408
      6          6           0        0.560553   -0.747739   -1.061051
      7          6           0        1.716807   -0.772113   -0.077086
      8          8           0        2.450407   -1.737613    0.030411
      9          6           0        1.910807    0.411419    0.883954
     10          8           0        1.323414    1.629542    0.481217
     11          6           0        2.053793    2.276437   -0.546193
     12          1           0       -3.929886    1.456207   -1.130651
     13          1           0       -2.504174    2.177449   -0.328214
     14          1           0       -3.865720    1.567263    0.651183
     15          1           0       -1.020448    0.681357    0.798973
     16          1           0       -2.336355    0.002133    1.776357
     17          1           0       -0.469128   -1.618993    1.508868
     18          1           0       -1.981987   -2.233273    0.855621
     19          1           0       -0.085112   -2.763255   -0.650128
     20          1           0       -1.301975   -1.752266   -1.440055
     21          1           0        0.961964   -1.032562   -2.040416
     22          1           0        0.133967    0.253987   -1.140682
     23          1           0        1.427972    0.135056    1.829944
     24          1           0        2.988007    0.518114    1.080329
     25          1           0        3.080377    2.502207   -0.221141
     26          1           0        2.103577    1.668841   -1.462319
     27          1           0        1.532648    3.210297   -0.768515
 ---------------------------------------------------------------------

 SCF Done:  E(UB3LYP) =  -540.309738887     A.U. after   31 cycles

 The electronic state is 2-A.
 Alpha  occ. eigenvalues --  -19.02822 -19.02171 -18.98501 -10.12333 -10.11435
 Alpha  occ. eigenvalues --  -10.10987 -10.10827 -10.10634 -10.06698 -10.06043
 Alpha  occ. eigenvalues --  -10.05398  -0.94236  -0.93491  -0.91817  -0.69840
 Alpha  occ. eigenvalues --   -0.64364  -0.62716  -0.58005  -0.55472  -0.53256
 Alpha  occ. eigenvalues --   -0.47484  -0.41775  -0.39682  -0.39034  -0.38491
 Alpha  occ. eigenvalues --   -0.37792  -0.36804  -0.35302  -0.33917  -0.32347
 Alpha  occ. eigenvalues --   -0.30982  -0.30007  -0.29195  -0.28283  -0.27313
 Alpha  occ. eigenvalues --   -0.25051  -0.24212  -0.23499  -0.22573  -0.21627
 Alpha  occ. eigenvalues --   -0.21205  -0.18202  -0.15846  -0.12376   0.04851
 Alpha virt. eigenvalues --    0.06644   0.07266   0.08214   0.08910   0.09762
 Alpha virt. eigenvalues --    0.10200   0.10390   0.11149   0.11583   0.12541
 Alpha virt. eigenvalues --    0.13331   0.13722   0.14047   0.14447   0.14570

  Beta  occ. eigenvalues --  -19.02805 -19.02161 -18.98334 -10.12087 -10.11450
  Beta  occ. eigenvalues --  -10.10982 -10.10792 -10.10596 -10.06694 -10.06018
  Beta  occ. eigenvalues --  -10.05407  -0.94173  -0.93478  -0.91483  -0.69782
  Beta  occ. eigenvalues --   -0.64216  -0.62670  -0.57906  -0.55336  -0.53200
  Beta  occ. eigenvalues --   -0.47374  -0.41533  -0.39565  -0.38988  -0.38448
  Beta  occ. eigenvalues --   -0.37687  -0.36735  -0.35234  -0.33785  -0.32278
  Beta  occ. eigenvalues --   -0.30813  -0.29744  -0.29067  -0.28238  -0.27257
  Beta  occ. eigenvalues --   -0.24686  -0.24127  -0.23454  -0.22476  -0.21368
  Beta  occ. eigenvalues --   -0.21004  -0.18127  -0.15827  -0.12248
  Beta virt. eigenvalues --    0.07165   0.08034   0.08300   0.08470   0.09867
  Beta virt. eigenvalues --    0.10238   0.10643   0.11268   0.11432   0.11729
  Beta virt. eigenvalues --    0.12792   0.13561   0.13790   0.14367   0.14626

 Mulliken charges and spin densities:
               1          2
     1  C    0.855994  -1.101079
     2  O   -0.149903   0.047070
     3  C   -0.671320   0.164047
     4  C   -0.164953  -0.019349
     5  C    0.215486  -0.694208
     6  C   -0.034317   0.070661
     7  C   -0.065668   0.150610
     8  O   -0.305905   0.064676
     9  C   -0.412822  -0.059592
    10  O   -0.136687   0.037061
    11  C    0.852641  -1.168457
    12  H   -0.368133   0.507210
    13  H   -0.200526   0.340557
    14  H   -0.284175   0.402365
    15  H    0.449281  -0.226989
    16  H   -0.041601   0.152741
    17  H    0.126177   0.005237
    18  H    0.145709   0.024317
    19  H    0.197264  -0.030767
    20  H   -0.067650   0.243864
    21  H   -0.359836   0.574452
    22  H    0.167806  -0.029654
    23  H    0.185920   0.010345
    24  H    0.028371   0.131323
    25  H   -0.315250   0.442918
    26  H   -0.281148   0.438524
    27  H   -0.364758   0.522116
 Sum of Mulliken charges =  -1.00000   1.00000

 Dipole moment (field-independent basis, Debye):
    X=             -0.7870    Y=             -2.9351    Z=              4.4595  Tot=              5.3964
 Quadrupole moment (field-independent basis, Debye-Ang):
   XX=           -132.0804   YY=           -113.3961   ZZ=            -96.5274
   XY=              6.4938   XZ=              0.8017   YZ=              2.5626

 Summary of Natural Population Analysis:

                                       Natural Population
                Natural  -----------------------------------------------
    Atom  No    Charge         Core      Valence    Rydberg      Total
 -----------------------------------------------------------------------
      C    1   -0.09621      0.99962     2.08710    0.00949     3.09621
      O    2   -0.30110      0.99988     3.29089    0.01033     4.30110
      C    3   -0.01475      0.99958     2.00341    0.01175     3.01475
      C    4   -0.19853      0.99962     2.19034    0.00857     3.19853
      C    5   -0.18447      0.99962     2.17524    0.00960     3.18447
      C    6   -0.24447      0.99958     2.23483    0.01006     3.24447
      C    7    0.30692      0.99967     1.67177    0.02164     2.69308
      O    8   -0.28435      0.99987     3.27768    0.00680     4.28435
      C    9   -0.05636      0.99954     2.04323    0.01359     3.05636
      O   10   -0.29792      0.99989     3.28835    0.00967     4.29792
      C   11   -0.10007      0.99961     2.09063    0.00984     3.10007
      H   12    0.09034      0.00000     0.40816    0.00149     0.40966
      H   13    0.08127      0.00000     0.41696    0.00177     0.41873
      H   14    0.07487      0.00000     0.42321    0.00192     0.42513
      H   15    0.08834      0.00000     0.40933    0.00233     0.41166
      H   16    0.07561      0.00000     0.42317    0.00122     0.42439
      H   17    0.09608      0.00000     0.40299    0.00093     0.40392
      H   18    0.09714      0.00000     0.40185    0.00101     0.40286
      H   19    0.09910      0.00000     0.39988    0.00102     0.40090
      H   20    0.10419      0.00000     0.39436    0.00145     0.39581
      H   21    0.11428      0.00000     0.38381    0.00191     0.38572
      H   22    0.10692      0.00000     0.39071    0.00237     0.39308
      H   23    0.09799      0.00000     0.40090    0.00111     0.40201
      H   24    0.09095      0.00000     0.40761    0.00144     0.40905
      H   25    0.07929      0.00000     0.41903    0.00168     0.42071
      H   26    0.08169      0.00000     0.41635    0.00197     0.41831
      H   27    0.09327      0.00000     0.40533    0.00140     0.40673
 =======================================================================
   * Total *    0.00000     10.99650    32.85712    0.14638    44.00000

 Normal termination of Gaussian 16 at Tue Dec  8 19:49:02 2020.
