 Gaussian 16, Revision A.03,

 -----------------------------------------------------------
 # opt freq B3LYP/6-31G(d) empiricaldispersion=gd3bj scf=xqc
 -----------------------------------------------------------

 -------------------------------
 CID_123566270_JID_3378_neutraal
 -------------------------------
 Symbolic Z-matrix:
 Charge =  0 Multiplicity = 1

 SCF Done:  E(RB3LYP) =  -592.873982612     A.U. after   15 cycles
 SCF Done:  E(RB3LYP) =  -592.877795712     A.U. after   13 cycles
 SCF Done:  E(RB3LYP) =  -592.877535093     A.U. after   13 cycles
 SCF Done:  E(RB3LYP) =  -592.878941084     A.U. after   13 cycles
 SCF Done:  E(RB3LYP) =  -592.879380165     A.U. after   13 cycles
 SCF Done:  E(RB3LYP) =  -592.879692863     A.U. after   14 cycles
 SCF Done:  E(RB3LYP) =  -592.879843592     A.U. after   12 cycles
 SCF Done:  E(RB3LYP) =  -592.879966917     A.U. after   12 cycles
 SCF Done:  E(RB3LYP) =  -592.880039724     A.U. after   13 cycles
 SCF Done:  E(RB3LYP) =  -592.880097174     A.U. after   13 cycles
 SCF Done:  E(RB3LYP) =  -592.881553666     A.U. after   12 cycles
 SCF Done:  E(RB3LYP) =  -592.881620339     A.U. after   12 cycles
 SCF Done:  E(RB3LYP) =  -592.881651408     A.U. after   11 cycles
 SCF Done:  E(RB3LYP) =  -592.881659690     A.U. after   10 cycles
 SCF Done:  E(RB3LYP) =  -592.881660214     A.U. after    8 cycles
 SCF Done:  E(RB3LYP) =  -592.881660263     A.U. after    8 cycles
 Optimization completed.
    -- Stationary point found.
 Normal termination of Gaussian 16 at Wed Dec  9 23:14:01 2020.

 --------------------------------------------------------------------
 #N Geom=AllCheck Guess=TCheck SCRF=Check GenChk RB3LYP/6-31G(d) Freq
 --------------------------------------------------------------------

 Structure from the checkpoint file:  "JID_3378.chk"
 -------------------------------
 CID_123566270_JID_3378_neutraal
 -------------------------------
 Charge =  0 Multiplicity = 1

 SCF Done:  E(RB3LYP) =  -592.881660263     A.U. after    1 cycles

  Exact polarizability: 202.669   9.462 122.795   7.840   4.676  62.206
 Approx polarizability: 337.769  12.699 198.496  14.280   9.144  94.958

                      1                      2                      3
                      A                      A                      A
 Frequencies --     51.2892                60.2117               103.7289
 Red. masses --      7.8088                 3.7708                 3.9507
 Frc consts  --      0.0121                 0.0081                 0.0250
 IR Inten    --      2.3940                 0.5487                 0.2650

                      4                      5                      6
                      A                      A                      A
 Frequencies --    129.4932               157.4609               192.0765
 Red. masses --      2.7049                 2.8379                 4.1351
 Frc consts  --      0.0267                 0.0415                 0.0899
 IR Inten    --      0.2642                 0.9539                 1.9843

                      7                      8                      9
                      A                      A                      A
 Frequencies --    243.3402               252.0601               268.7246
 Red. masses --      2.2782                 1.2674                 4.5420
 Frc consts  --      0.0795                 0.0474                 0.1932
 IR Inten    --      0.5886                 0.4559                 0.5569

                     10                     11                     12
                      A                      A                      A
 Frequencies --    289.6143               371.2895               387.7412
 Red. masses --      3.5948                 4.1550                 5.1968
 Frc consts  --      0.1776                 0.3375                 0.4603
 IR Inten    --      3.4950                 1.4966                 9.8439

                     13                     14                     15
                      A                      A                      A
 Frequencies --    410.2908               432.5529               514.6267
 Red. masses --      4.1061                 3.1520                 2.6767
 Frc consts  --      0.4072                 0.3475                 0.4177
 IR Inten    --      0.1105                 1.7368                 4.9407

                     16                     17                     18
                      A                      A                      A
 Frequencies --    581.6923               592.7569               621.0944
 Red. masses --      4.0090                 5.5875                 1.5098
 Frc consts  --      0.7992                 1.1567                 0.3432
 IR Inten    --     10.4418                 1.2830                44.9498

                     19                     20                     21
                      A                      A                      A
 Frequencies --    636.9930               694.2215               714.7214
 Red. masses --      2.5481                 2.5666                 3.1111
 Frc consts  --      0.6092                 0.7288                 0.9364
 IR Inten    --     14.8138                51.3690                56.9763

                     22                     23                     24
                      A                      A                      A
 Frequencies --    739.3916               767.9157               825.2316
 Red. masses --      1.9470                 2.1722                 5.1709
 Frc consts  --      0.6271                 0.7547                 2.0748
 IR Inten    --     52.1321                 8.2319                 8.2236

                     25                     26                     27
                      A                      A                      A
 Frequencies --    850.0523               935.4983               953.2488
 Red. masses --      3.2840                 1.3627                 1.9970
 Frc consts  --      1.3981                 0.7027                 1.0692
 IR Inten    --      4.0028                36.5484                 8.5296

                     28                     29                     30
                      A                      A                      A
 Frequencies --    959.2515               964.2394               993.4155
 Red. masses --      1.6984                 2.7445                 1.3563
 Frc consts  --      0.9208                 1.5034                 0.7886
 IR Inten    --      5.6014                19.4201                 2.7115

                     31                     32                     33
                      A                      A                      A
 Frequencies --   1003.1696              1029.0282              1048.8538
 Red. masses --      3.1615                 2.7010                 1.7000
 Frc consts  --      1.8745                 1.6851                 1.1018
 IR Inten    --      0.8230                 5.8130                30.4842

                     34                     35                     36
                      A                      A                      A
 Frequencies --   1061.4740              1073.4234              1111.6852
 Red. masses --      1.1212                 2.0581                 1.6824
 Frc consts  --      0.7443                 1.3972                 1.2250
 IR Inten    --     12.2204                21.9942                 2.8777

                     37                     38                     39
                      A                      A                      A
 Frequencies --   1162.9207              1190.0960              1221.8801
 Red. masses --      2.3698                 1.3374                 1.8968
 Frc consts  --      1.8883                 1.1160                 1.6685
 IR Inten    --    193.3517                92.0883               124.5386

                     40                     41                     42
                      A                      A                      A
 Frequencies --   1295.0369              1303.7290              1353.2428
 Red. masses --      1.3174                 2.7822                 1.3106
 Frc consts  --      1.3018                 2.7862                 1.4140
 IR Inten    --      1.6049                 4.7583                 3.5862

                     43                     44                     45
                      A                      A                      A
 Frequencies --   1367.3749              1400.4548              1405.0280
 Red. masses --      1.4970                 2.8142                 1.2878
 Frc consts  --      1.6491                 3.2520                 1.4978
 IR Inten    --      1.5769               102.0081                 0.6247

                     46                     47                     48
                      A                      A                      A
 Frequencies --   1424.8394              1448.3897              1476.6015
 Red. masses --      1.3942                 1.6911                 1.2907
 Frc consts  --      1.6676                 2.0902                 1.6581
 IR Inten    --      9.7698                15.5780                 6.0640

                     49                     50                     51
                      A                      A                      A
 Frequencies --   1519.4149              1528.6111              1570.9957
 Red. masses --      1.0676                 1.0486                 5.8594
 Frc consts  --      1.4522                 1.4436                 8.5202
 IR Inten    --      1.2896                10.5243               112.9739

                     52                     53                     54
                      A                      A                      A
 Frequencies --   1620.4716              1695.8807              1712.1247
 Red. masses --      8.5685                 4.2396                 5.8815
 Frc consts  --     13.2568                 7.1840                10.1580
 IR Inten    --     30.1431                 1.4192                23.9884

                     55                     56                     57
                      A                      A                      A
 Frequencies --   1781.2862              3059.0361              3103.1574
 Red. masses --      8.8715                 1.0355                 1.0839
 Frc consts  --     16.5849                 5.7093                 6.1499
 IR Inten    --    190.7065                37.7632                 1.7761

                     58                     59                     60
                      A                      A                      A
 Frequencies --   3129.5868              3143.2585              3168.1068
 Red. masses --      1.1014                 1.0892                 1.1020
 Frc consts  --      6.3560                 6.3405                 6.5169
 IR Inten    --     19.8688                34.3727                 4.6838

                     61                     62                     63
                      A                      A                      A
 Frequencies --   3181.0732              3182.1864              3212.0544
 Red. masses --      1.0626                 1.0877                 1.0976
 Frc consts  --      6.3354                 6.4894                 6.6721
 IR Inten    --     12.8463                 9.0839                31.2288

                     64                     65                     66
                      A                      A                      A
 Frequencies --   3217.4137              3282.4601              3683.9813
 Red. masses --      1.0898                 1.1103                 1.0638
 Frc consts  --      6.6465                 7.0483                 8.5067
 IR Inten    --      8.1155                 5.7538                68.7913

 - Thermochemistry -
 -------------------
 Temperature   298.150 Kelvin.  Pressure   1.00000 Atm.
 Atom     1 has atomic number  6 and mass  12.00000

 Molecular mass:   177.07898 amu.
 Principal axes and moments of inertia in atomic units:
                           1         2         3
     Eigenvalues --  1351.755682908.385083817.67109
           X            0.99952   0.03107   0.00024
           Y           -0.03107   0.99950  -0.00638
           Z           -0.00044   0.00636   0.99998
 This molecule is an asymmetric top.
 Rotational symmetry number  1.
 Warning -- assumption of classical behavior for rotation
           may cause significant error
 Rotational temperatures (Kelvin)      0.06408     0.02978     0.02269
 Rotational constants (GHZ):           1.33511     0.62053     0.47273
 Zero-point vibrational energy     507590.8 (Joules/Mol)
                                  121.31711 (Kcal/Mol)
 Warning -- explicit consideration of  17 degrees of freedom as
           vibrations may cause significant error
 Vibrational temperatures:     73.79    86.63   149.24   186.31   226.55
          (Kelvin)            276.36   350.11   362.66   386.63   416.69
                              534.20   557.87   590.32   622.35   740.43
                              836.93   852.84   893.62   916.49   998.83
                             1028.32  1063.82  1104.86  1187.32  1223.04
                             1345.97  1371.51  1380.15  1387.33  1429.30
                             1443.34  1480.54  1509.07  1527.22  1544.42
                             1599.47  1673.18  1712.28  1758.01  1863.27
                             1875.78  1947.01  1967.35  2014.94  2021.52
                             2050.03  2083.91  2124.50  2186.10  2199.33
                             2260.31  2331.50  2439.99  2463.37  2562.87
                             4401.27  4464.75  4502.78  4522.45  4558.20
                             4576.85  4578.46  4621.43  4629.14  4722.73
                             5300.43

 Zero-point correction=                           0.193331 (Hartree/Particle)
 Thermal correction to Energy=                    0.205455
 Thermal correction to Enthalpy=                  0.206399
 Thermal correction to Gibbs Free Energy=         0.154861
 Sum of electronic and zero-point Energies=           -592.688329
 Sum of electronic and thermal Energies=              -592.676205
 Sum of electronic and thermal Enthalpies=            -592.675261
 Sum of electronic and thermal Free Energies=         -592.726799

                     E (Thermal)             CV                S
                      KCal/Mol        Cal/Mol-Kelvin    Cal/Mol-Kelvin
 Total                  128.925             45.962            108.471
 Electronic               0.000              0.000              0.000
 Translational            0.889              2.981             41.421
 Rotational               0.889              2.981             31.085
 Vibrational            127.147             40.000             35.964
 Vibration     1          0.596              1.977              4.767
 Vibration     2          0.597              1.973              4.450
 Vibration     3          0.605              1.946              3.383
 Vibration     4          0.612              1.924              2.954
 Vibration     5          0.621              1.894              2.580
 Vibration     6          0.634              1.851              2.208
 Vibration     7          0.659              1.774              1.778
 Vibration     8          0.664              1.759              1.716
 Vibration     9          0.673              1.731              1.604
 Vibration    10          0.686              1.693              1.476
 Vibration    11          0.743              1.531              1.074
 Vibration    12          0.756              1.496              1.009
 Vibration    13          0.774              1.448              0.926
 Vibration    14          0.793              1.399              0.850
 Vibration    15          0.870              1.218              0.623
 Vibration    16          0.938              1.071              0.482
 Vibration    17          0.950              1.047              0.462

 Optimization completed.
    -- Stationary point found.
 Normal termination of Gaussian 16 at Wed Dec  9 23:19:43 2020.

 ----------------------------------------------------------------------
 # B3LYP/6-311++G(d,p) empiricaldispersion=gd3bj scf=xqc pop=npa geom=c
 heck
 ----------------------------------------------------------------------

 ---------------------------------------
 CID_123566270_JID_3378_Energie_neutraal
 ---------------------------------------
 Structure from the checkpoint file:  "JID_3378.chk"
 Charge =  0 Multiplicity = 1

 SCF Done:  E(RB3LYP) =  -593.053223151     A.U. after   16 cycles
 Normal termination of Gaussian 16 at Wed Dec  9 23:22:20 2020.

 ----------------------------------------------------------------------
 # B3LYP/6-311++G(d,p) empiricaldispersion=gd3bj scf=xqc pop=npa geom=c
 heck
 ----------------------------------------------------------------------

 -------------------------------------
 CID_123566270_JID_3378_Energie_kation
 -------------------------------------
 Structure from the checkpoint file:  "JID_3378.chk"
 Charge =  1 Multiplicity = 2

 SCF Done:  E(UB3LYP) =  -592.769440775     A.U. after   21 cycles
 Normal termination of Gaussian 16 at Wed Dec  9 23:27:06 2020.
 Gaussian 16:  ES64L-G16RevA.03 25-Dec-2016

 ----------------------------------------------------------------------
 # B3LYP/6-311++G(d,p) empiricaldispersion=gd3bj scf=xqc pop=npa geom=c
 heck
 ----------------------------------------------------------------------

 ------------------------------------
 CID_123566270_JID_3378_Energie_anion
 ------------------------------------
 Structure from the checkpoint file:  "JID_3378.chk"
 Charge = -1 Multiplicity = 2

                         Standard orientation:
 ---------------------------------------------------------------------
 Center     Atomic      Atomic             Coordinates (Angstroms)
 Number     Number       Type             X           Y           Z
 ---------------------------------------------------------------------
      1          6           0       -1.507246   -1.574366    1.344285
      2          6           0       -1.261332   -0.945229   -0.054806
      3          6           0       -2.588536   -0.644167   -0.692461
      4          6           0       -3.082687    0.603823   -0.700383
      5          6           0       -2.276075    1.655575   -0.101584
      6          7           0       -1.037114    1.530498    0.248644
      7          6           0       -0.401100    0.301632    0.069315
      8          6           0        0.979793    0.312466    0.053842
      9          6           0        1.700300    1.565381    0.297894
     10          6           0        3.022489    1.792903    0.332782
     11          6           0        1.697414   -0.959082   -0.213137
     12          8           0        1.302737   -2.082760    0.057022
     13          8           0        2.887310   -0.791523   -0.845117
     14          1           0       -2.151816   -2.455983    1.256390
     15          1           0       -1.994817   -0.853865    2.008346
     16          1           0       -0.550566   -1.879584    1.771990
     17          1           0       -0.731921   -1.699300   -0.641379
     18          1           0       -3.162767   -1.485939   -1.073040
     19          1           0       -4.062918    0.845393   -1.099655
     20          1           0       -2.731870    2.632992    0.065600
     21          1           0        1.031918    2.391932    0.512664
     22          1           0        3.384167    2.787838    0.576482
     23          1           0        3.767580    1.037416    0.120959
     24          1           0        3.244306   -1.693728   -0.948602
 ---------------------------------------------------------------------

 SCF Done:  E(UB3LYP) =  -593.090384172     A.U. after   23 cycles

 The electronic state is 2-A.
 Alpha  occ. eigenvalues --  -19.03129 -18.96207 -14.13708 -10.15287 -10.05575
 Alpha  occ. eigenvalues --  -10.03948 -10.03644 -10.02605 -10.02388 -10.02372
 Alpha  occ. eigenvalues --  -10.02264 -10.02015 -10.00977  -0.96996  -0.87270
 Alpha  occ. eigenvalues --   -0.77923  -0.66383  -0.65973  -0.61333  -0.57459
 Alpha  occ. eigenvalues --   -0.53308  -0.49195  -0.46745  -0.44443  -0.40867
 Alpha  occ. eigenvalues --   -0.36568  -0.35820  -0.34064  -0.32710  -0.31442
 Alpha  occ. eigenvalues --   -0.30431  -0.29621  -0.28408  -0.27458  -0.26261
 Alpha  occ. eigenvalues --   -0.25308  -0.23992  -0.22506  -0.21614  -0.20584
 Alpha  occ. eigenvalues --   -0.19760  -0.18462  -0.16840  -0.14022  -0.12562
 Alpha  occ. eigenvalues --   -0.09575  -0.06773   0.02158
 Alpha virt. eigenvalues --    0.09045   0.09391   0.10323   0.10751   0.11348
 Alpha virt. eigenvalues --    0.12144   0.12472   0.13202   0.13717   0.14058
 Alpha virt. eigenvalues --    0.14300   0.15200   0.15753   0.17145   0.18290

  Beta  occ. eigenvalues --  -19.03104 -18.96066 -14.13650 -10.15216 -10.05358
  Beta  occ. eigenvalues --  -10.03685 -10.03477 -10.02634 -10.02400 -10.02272
  Beta  occ. eigenvalues --  -10.01913 -10.01871 -10.00877  -0.96878  -0.87071
  Beta  occ. eigenvalues --   -0.77424  -0.66036  -0.65534  -0.61006  -0.57213
  Beta  occ. eigenvalues --   -0.52770  -0.49030  -0.46146  -0.44114  -0.40626
  Beta  occ. eigenvalues --   -0.36323  -0.35676  -0.33823  -0.32457  -0.31118
  Beta  occ. eigenvalues --   -0.30224  -0.29358  -0.28095  -0.27300  -0.26034
  Beta  occ. eigenvalues --   -0.24847  -0.23666  -0.22289  -0.21177  -0.20100
  Beta  occ. eigenvalues --   -0.19208  -0.17912  -0.15907  -0.13802  -0.11706
  Beta  occ. eigenvalues --   -0.09165  -0.05437
  Beta virt. eigenvalues --    0.08141   0.09036   0.09382   0.10314   0.10745
  Beta virt. eigenvalues --    0.11353   0.12379   0.13259   0.13594   0.14052
  Beta virt. eigenvalues --    0.14181   0.14269   0.15192   0.15758   0.17183

 Mulliken charges and spin densities:
               1          2
     1  C   -0.660027   0.017040
     2  C    0.549845  -0.118847
     3  C   -0.382124   0.321715
     4  C   -0.189617  -0.019412
     5  C   -0.253872   0.353130
     6  N   -0.004699   0.002421
     7  C   -0.544473   0.195569
     8  C    0.637886   0.089098
     9  C    0.095205  -0.059363
    10  C   -0.834137   0.101749
    11  C   -0.494616   0.078022
    12  O   -0.324207   0.045734
    13  O   -0.175537   0.003838
    14  H    0.095935   0.005276
    15  H    0.138079   0.003504
    16  H    0.146018   0.011970
    17  H    0.192490   0.015652
    18  H    0.129358  -0.022181
    19  H    0.100355   0.008947
    20  H    0.115153  -0.029472
    21  H    0.206442   0.000622
    22  H    0.090388  -0.004908
    23  H    0.108970  -0.002934
    24  H    0.257184   0.002830
 Sum of Mulliken charges =  -1.00000   1.00000

 Dipole moment (field-independent basis, Debye):
    X=             -0.0449    Y=             -1.9793    Z=             -0.6385  Tot=              2.0803
 Quadrupole moment (field-independent basis, Debye-Ang):
   XX=           -101.3133   YY=            -96.6702   ZZ=            -88.1584
   XY=             -2.9384   XZ=             -1.2232   YZ=              2.4462

 Summary of Natural Population Analysis:

                                       Natural Population
                Natural  -----------------------------------------------
    Atom  No    Charge         Core      Valence    Rydberg      Total
 -----------------------------------------------------------------------
      C    1   -0.25914      0.99964     2.25495    0.00455     3.25914
      C    2   -0.16242      0.99955     2.15181    0.01106     3.16242
      C    3    0.04021      0.99955     1.95056    0.00969     2.95979
      C    4   -0.18353      0.99953     2.17471    0.00929     3.18353
      C    5    0.15158      0.99963     1.83335    0.01544     2.84842
      N    6   -0.26345      0.99967     2.75278    0.01100     3.76345
      C    7    0.17996      0.99947     1.80649    0.01408     2.82004
      C    8   -0.09946      0.99937     2.08595    0.01414     3.09946
      C    9   -0.09622      0.99957     2.08643    0.01023     3.09622
      C   10   -0.19852      0.99960     2.19138    0.00754     3.19852
      C   11    0.40494      0.99966     1.57060    0.02481     2.59506
      O   12   -0.32280      0.99987     3.31616    0.00677     4.32280
      O   13   -0.34986      0.99988     3.34259    0.00740     4.34986
      H   14    0.08758      0.00000     0.41145    0.00098     0.41242
      H   15    0.09346      0.00000     0.40558    0.00095     0.40654
      H   16    0.10686      0.00000     0.39227    0.00087     0.39314
      H   17    0.12114      0.00000     0.37723    0.00163     0.37886
      H   18    0.08260      0.00000     0.41637    0.00102     0.41740
      H   19    0.09139      0.00000     0.40721    0.00140     0.40861
      H   20    0.06807      0.00000     0.43051    0.00142     0.43193
      H   21    0.10781      0.00000     0.38989    0.00230     0.39219
      H   22    0.08005      0.00000     0.41882    0.00113     0.41995
      H   23    0.09152      0.00000     0.40730    0.00118     0.40848
      H   24    0.22824      0.00000     0.26695    0.00481     0.27176
 =======================================================================
   * Total *    0.00000     12.99497    33.84134    0.16369    47.00000

 Normal termination of Gaussian 16 at Wed Dec  9 23:32:20 2020.
