 Gaussian 16, Revision A.03,

 -----------------------------------------------------------
 # opt freq B3LYP/6-31G(d) empiricaldispersion=gd3bj scf=xqc
 -----------------------------------------------------------

 ---------------------------
 CID_537791_JID_638_neutraal
 ---------------------------
 Symbolic Z-matrix:
 Charge =  0 Multiplicity = 1

 SCF Done:  E(RB3LYP) =  -464.954299903     A.U. after   14 cycles
 SCF Done:  E(RB3LYP) =  -464.957942981     A.U. after   13 cycles
 SCF Done:  E(RB3LYP) =  -464.957283310     A.U. after   14 cycles
 SCF Done:  E(RB3LYP) =  -464.959220126     A.U. after   12 cycles
 SCF Done:  E(RB3LYP) =  -464.960366053     A.U. after   12 cycles
 SCF Done:  E(RB3LYP) =  -464.960815032     A.U. after   13 cycles
 SCF Done:  E(RB3LYP) =  -464.961310588     A.U. after   13 cycles
 SCF Done:  E(RB3LYP) =  -464.961499727     A.U. after   11 cycles
 SCF Done:  E(RB3LYP) =  -464.961558552     A.U. after   11 cycles
 SCF Done:  E(RB3LYP) =  -464.961599988     A.U. after   11 cycles
 SCF Done:  E(RB3LYP) =  -464.961716618     A.U. after    8 cycles
 SCF Done:  E(RB3LYP) =  -464.961716742     A.U. after    8 cycles
 SCF Done:  E(RB3LYP) =  -464.961716840     A.U. after    8 cycles
 SCF Done:  E(RB3LYP) =  -464.961716877     A.U. after    7 cycles
 SCF Done:  E(RB3LYP) =  -464.961716898     A.U. after    7 cycles
 Optimization completed.
    -- Stationary point found.

 1\1\GINC-NODE313\FOpt\RB3LYP\6-31G(d)\C8H16O2\VSC10255\08-Dec-2020\0\\
 # opt freq B3LYP/6-31G(d) empiricaldispersion=gd3bj scf=xqc\\CID_53779
 1_JID_638_neutraal\\0,1\C,0.6183570057,0.3937694496,-0.0853628672\C,-0
 .1873547448,0.2102137772,-1.3764603593\C,0.3192704535,-0.9276680451,-2
 .2737257063\C,0.2030567516,-2.3278256434,-1.6712824773\O,-1.1635350479
 ,-2.7247465246,-1.5171290889\C,-1.7138227797,-2.6466689602,-0.21342665
 31\C,-1.5140072944,-3.9349654543,0.5893157937\C,-0.1671308479,-4.06416
 41969,1.291883035\O,0.5402539903,-3.1004541919,1.5269166478\C,0.235089

 Normal termination of Gaussian 16 at Tue Dec  8 12:41:35 2020.

 --------------------------------------------------------------------
 #N Geom=AllCheck Guess=TCheck SCRF=Check GenChk RB3LYP/6-31G(d) Freq
 --------------------------------------------------------------------

 Structure from the checkpoint file:  "JID_638.chk"
 ---------------------------
 CID_537791_JID_638_neutraal
 ---------------------------
 Charge =  0 Multiplicity = 1

 SCF Done:  E(RB3LYP) =  -464.961716898     A.U. after    1 cycles

  Exact polarizability: 103.217   4.140  84.591   0.500   1.664  82.546
 Approx polarizability: 123.907   9.707 126.100   2.688   3.348 116.416

                      1                      2                      3
                      A                      A                      A
 Frequencies --     26.3773                36.4776                60.3946
 Red. masses --      4.1063                 3.3074                 3.3322
 Frc consts  --      0.0017                 0.0026                 0.0072
 IR Inten    --      3.4522                 1.4984                 3.5020

                      4                      5                      6
                      A                      A                      A
 Frequencies --     86.1618               121.1736               135.6882
 Red. masses --      3.0389                 2.2399                 1.3531
 Frc consts  --      0.0133                 0.0194                 0.0147
 IR Inten    --      1.2769                 3.4136                 0.7211

                      7                      8                      9
                      A                      A                      A
 Frequencies --    172.5525               216.5853               248.1754
 Red. masses --      1.5897                 3.5867                 2.5043
 Frc consts  --      0.0279                 0.0991                 0.0909
 IR Inten    --      0.3312                 2.7184                 2.2289

                     10                     11                     12
                      A                      A                      A
 Frequencies --    266.4009               324.7875               386.0697
 Red. masses --      1.3157                 2.0574                 2.2470
 Frc consts  --      0.0550                 0.1279                 0.1973
 IR Inten    --      0.3184                 0.4833                 2.2012

                     13                     14                     15
                      A                      A                      A
 Frequencies --    400.6239               458.0440               480.6608
 Red. masses --      1.9806                 1.9948                 2.2867
 Frc consts  --      0.1873                 0.2466                 0.3113
 IR Inten    --      1.9584                 9.9296                 5.8562

                     16                     17                     18
                      A                      A                      A
 Frequencies --    513.3794               598.0909               744.1294
 Red. masses --      2.5481                 3.4793                 2.0921
 Frc consts  --      0.3957                 0.7333                 0.6825
 IR Inten    --      9.5567                 4.5578                 3.5907

                     19                     20                     21
                      A                      A                      A
 Frequencies --    761.5270               810.7965               827.7314
 Red. masses --      1.5507                 2.4066                 2.1977
 Frc consts  --      0.5299                 0.9322                 0.8871
 IR Inten    --      4.2967                 2.9878                 2.0684

                     22                     23                     24
                      A                      A                      A
 Frequencies --    863.9143               926.1169               957.3406
 Red. masses --      1.5426                 1.6252                 1.8507
 Frc consts  --      0.6784                 0.8213                 0.9993
 IR Inten    --      4.0727                 4.0071                 7.6358

                     25                     26                     27
                      A                      A                      A
 Frequencies --    966.4778               999.8509              1006.1243
 Red. masses --      1.8834                 1.5050                 2.2732
 Frc consts  --      1.0365                 0.8865                 1.3558
 IR Inten    --      1.2151                 3.2681                 5.0177

                     28                     29                     30
                      A                      A                      A
 Frequencies --   1050.5938              1085.8752              1101.9652
 Red. masses --      1.7733                 1.9226                 2.3042
 Frc consts  --      1.1532                 1.3357                 1.6486
 IR Inten    --     12.3694                 4.1010                22.6960

                     31                     32                     33
                      A                      A                      A
 Frequencies --   1133.6810              1156.7978              1175.9494
 Red. masses --      2.2262                 2.3509                 2.5579
 Frc consts  --      1.6857                 1.8535                 2.0840
 IR Inten    --     51.4091                46.2637                87.8474

                     34                     35                     36
                      A                      A                      A
 Frequencies --   1201.0775              1243.8231              1276.5614
 Red. masses --      2.3112                 1.2362                 1.3011
 Frc consts  --      1.9644                 1.1268                 1.2492
 IR Inten    --     54.8571                 2.4772                 2.5127

                     37                     38                     39
                      A                      A                      A
 Frequencies --   1297.9996              1334.2873              1353.1523
 Red. masses --      1.2837                 1.2524                 1.1423
 Frc consts  --      1.2742                 1.3137                 1.2324
 IR Inten    --     12.1284                14.8179                 6.5618

                     40                     41                     42
                      A                      A                      A
 Frequencies --   1388.8200              1399.0688              1409.2442
 Red. masses --      1.3595                 1.3610                 1.3988
 Frc consts  --      1.5450                 1.5696                 1.6367
 IR Inten    --      4.0601                 5.5682                 8.6817

                     43                     44                     45
                      A                      A                      A
 Frequencies --   1415.1580              1419.6300              1449.4593
 Red. masses --      1.4522                 1.3144                 1.2759
 Frc consts  --      1.7135                 1.5607                 1.5793
 IR Inten    --     44.7060                21.9781                 1.1081

                     46                     47                     48
                      A                      A                      A
 Frequencies --   1452.7961              1467.9542              1493.5155
 Red. masses --      1.2395                 1.0904                 1.0546
 Frc consts  --      1.5413                 1.3844                 1.3860
 IR Inten    --      9.2292                13.2119                13.4517

                     49                     50                     51
                      A                      A                      A
 Frequencies --   1502.7241              1504.2634              1515.9414
 Red. masses --      1.0912                 1.0516                 1.0835
 Frc consts  --      1.4518                 1.4020                 1.4670
 IR Inten    --      1.6098                 9.5034                 3.4080

                     52                     53                     54
                      A                      A                      A
 Frequencies --   1527.1906              1531.0677              1545.2484
 Red. masses --      1.0578                 1.0681                 1.0738
 Frc consts  --      1.4536                 1.4751                 1.5106
 IR Inten    --      1.4655                 5.6929                 1.7886

                     55                     56                     57
                      A                      A                      A
 Frequencies --   1551.4222              1808.4421              3017.3712
 Red. masses --      1.0656                 9.9117                 1.0688
 Frc consts  --      1.5111                19.0989                 5.7331
 IR Inten    --      2.5998               146.7196                12.9536

                     58                     59                     60
                      A                      A                      A
 Frequencies --   3022.5579              3040.4927              3044.1254
 Red. masses --      1.0645                 1.0628                 1.0391
 Frc consts  --      5.7297                 5.7887                 5.6732
 IR Inten    --     16.8214                28.7743                28.4834

                     61                     62                     63
                      A                      A                      A
 Frequencies --   3049.2346              3051.3837              3063.6803
 Red. masses --      1.0388                 1.0662                 1.0596
 Frc consts  --      5.6908                 5.8490                 5.8599
 IR Inten    --      3.0663                73.5904                17.7063

                     64                     65                     66
                      A                      A                      A
 Frequencies --   3069.8258              3075.9005              3085.6509
 Red. masses --      1.0962                 1.0997                 1.0920
 Frc consts  --      6.0868                 6.1302                 6.1256
 IR Inten    --     32.9609                46.1821                10.9268

                     67                     68                     69
                      A                      A                      A
 Frequencies --   3106.2340              3107.8871              3109.9877
 Red. masses --      1.1015                 1.0988                 1.1060
 Frc consts  --      6.2618                 6.2532                 6.3025
 IR Inten    --     53.8870                 9.1307                19.5591

                     70                     71                     72
                      A                      A                      A
 Frequencies --   3120.2918              3128.5977              3167.5151
 Red. masses --      1.1009                 1.0987                 1.1023
 Frc consts  --      6.3150                 6.3364                 6.5161
 IR Inten    --     34.9941                16.2636                10.1628

 - Thermochemistry -
 -------------------
 Temperature   298.150 Kelvin.  Pressure   1.00000 Atm.
 Atom     1 has atomic number  6 and mass  12.00000

 Molecular mass:   144.11503 amu.
 Principal axes and moments of inertia in atomic units:
                           1         2         3
     Eigenvalues --   868.465952555.157472874.15811
           X            0.99977   0.02106  -0.00429
           Y           -0.02105   0.99978   0.00155
           Z            0.00432  -0.00146   0.99999
 This molecule is an asymmetric top.
 Rotational symmetry number  1.
 Warning -- assumption of classical behavior for rotation
           may cause significant error
 Rotational temperatures (Kelvin)      0.09973     0.03390     0.03014
 Rotational constants (GHZ):           2.07808     0.70631     0.62792
 Zero-point vibrational energy     612787.7 (Joules/Mol)
                                  146.45977 (Kcal/Mol)
 Warning -- explicit consideration of  17 degrees of freedom as
           vibrations may cause significant error
 Vibrational temperatures:     37.95    52.48    86.89   123.97   174.34
          (Kelvin)            195.23   248.26   311.62   357.07   383.29
                              467.30   555.47   576.41   659.02   691.56
                              738.64   860.52  1070.64  1095.67  1166.56
                             1190.92  1242.98  1332.48  1377.40  1390.55
                             1438.56  1447.59  1511.57  1562.33  1585.48
                             1631.11  1664.37  1691.93  1728.08  1789.58
                             1836.69  1867.53  1919.74  1946.88  1998.20
                             2012.95  2027.59  2036.10  2042.53  2085.45
                             2090.25  2112.06  2148.84  2162.08  2164.30
                             2181.10  2197.29  2202.86  2223.27  2232.15
                             2601.94  4341.32  4348.79  4374.59  4379.82
                             4387.17  4390.26  4407.95  4416.79  4425.53
                             4439.56  4469.18  4471.56  4474.58  4489.40
                             4501.35  4557.35

 Zero-point correction=                           0.233398 (Hartree/Particle)
 Thermal correction to Energy=                    0.245812
 Thermal correction to Enthalpy=                  0.246756
 Thermal correction to Gibbs Free Energy=         0.193253
 Sum of electronic and zero-point Energies=           -464.728318
 Sum of electronic and thermal Energies=              -464.715905
 Sum of electronic and thermal Enthalpies=            -464.714961
 Sum of electronic and thermal Free Energies=         -464.768464

                     E (Thermal)             CV                S
                      KCal/Mol        Cal/Mol-Kelvin    Cal/Mol-Kelvin
 Total                  154.249             43.612            112.607
 Electronic               0.000              0.000              0.000
 Translational            0.889              2.981             40.807
 Rotational               0.889              2.981             30.235
 Vibrational            152.472             37.651             41.565
 Vibration     1          0.593              1.985              6.085
 Vibration     2          0.594              1.982              5.442
 Vibration     3          0.597              1.973              4.444
 Vibration     4          0.601              1.959              3.745
 Vibration     5          0.609              1.932              3.082
 Vibration     6          0.614              1.918              2.864
 Vibration     7          0.626              1.876              2.407
 Vibration     8          0.645              1.816              1.987
 Vibration     9          0.662              1.766              1.744
 Vibration    10          0.672              1.735              1.619
 Vibration    11          0.709              1.626              1.286
 Vibration    12          0.755              1.500              1.015
 Vibration    13          0.766              1.469              0.960
 Vibration    14          0.816              1.343              0.772
 Vibration    15          0.837              1.293              0.708
 Vibration    16          0.868              1.220              0.626
 Vibration    17          0.956              1.036              0.453

                           ! Non-Optimized Parameters !

 1\1\GINC-NODE313\Freq\RB3LYP\6-31G(d)\C8H16O2\VSC10255\08-Dec-2020\0\\
 #N Geom=AllCheck Guess=TCheck SCRF=Check GenChk RB3LYP/6-31G(d) Freq\\
 CID_537791_JID_638_neutraal\\0,1\C,0.6183570057,0.3937694496,-0.085362
 8672\C,-0.1873547448,0.2102137772,-1.3764603593\C,0.3192704535,-0.9276
 680451,-2.2737257063\C,0.2030567516,-2.3278256434,-1.6712824773\O,-1.1
 635350479,-2.7247465246,-1.5171290889\C,-1.7138227797,-2.6466689602,-0
 .2134266531\C,-1.5140072944,-3.9349654543,0.5893157937\C,-0.1671308479
 ,-4.0641641969,1.291883035\O,0.5402539903,-3.1004541919,1.5269166478\C

 Normal termination of Gaussian 16 at Tue Dec  8 12:49:34 2020.

 ----------------------------------------------------------------------
 # B3LYP/6-311++G(d,p) empiricaldispersion=gd3bj scf=xqc pop=npa geom=c
 heck
 ----------------------------------------------------------------------

 -----------------------------------
 CID_537791_JID_638_Energie_neutraal
 -----------------------------------
 Structure from the checkpoint file:  "JID_638.chk"
 Charge =  0 Multiplicity = 1

 SCF Done:  E(RB3LYP) =  -465.100383979     A.U. after   13 cycles
 Normal termination of Gaussian 16 at Tue Dec  8 13:04:45 2020.

 ----------------------------------------------------------------------
 # B3LYP/6-311++G(d,p) empiricaldispersion=gd3bj scf=xqc pop=npa geom=c
 heck
 ----------------------------------------------------------------------

 ---------------------------------
 CID_537791_JID_638_Energie_kation
 ---------------------------------
 Structure from the checkpoint file:  "JID_638.chk"
 Charge =  1 Multiplicity = 2

 SCF Done:  E(UB3LYP) =  -464.775371001     A.U. after   20 cycles
 Normal termination of Gaussian 16 at Tue Dec  8 13:09:57 2020.
 Gaussian 16:  ES64L-G16RevA.03 25-Dec-2016

 --------------------------------
 CID_537791_JID_638_Energie_anion
 --------------------------------
 Structure from the checkpoint file:  "JID_638.chk"
 Charge = -1 Multiplicity = 2

                         Standard orientation:
 ---------------------------------------------------------------------
 Center     Atomic      Atomic             Coordinates (Angstroms)
 Number     Number       Type             X           Y           Z
 ---------------------------------------------------------------------
      1          6           0        2.382956    1.704649   -0.432826
      2          6           0        2.852473    0.246478   -0.377249
      3          6           0        2.414855   -0.503953    0.888402
      4          6           0        0.905340   -0.691251    1.040609
      5          8           0        0.378220   -1.567729    0.039204
      6          6           0       -0.296690   -0.966555   -1.052418
      7          6           0       -1.793384   -0.779467   -0.789861
      8          6           0       -2.168071    0.479413   -0.015779
      9          8           0       -1.425109    1.441881    0.061890
     10          6           0       -3.537780    0.481700    0.632731
     11          1           0        1.291038    1.790037   -0.433375
     12          1           0        2.755346    2.202289   -1.335546
     13          1           0        2.755045    2.266686    0.433053
     14          1           0        2.492818   -0.298675   -1.259264
     15          1           0        3.948496    0.220028   -0.435176
     16          1           0        2.882540   -1.496587    0.905068
     17          1           0        2.779472    0.034208    1.776161
     18          1           0        0.695692   -1.168256    2.006194
     19          1           0        0.385616    0.270714    1.025988
     20          1           0        0.148805   -0.004705   -1.328437
     21          1           0       -0.167904   -1.653900   -1.895460
     22          1           0       -2.331344   -0.711685   -1.749184
     23          1           0       -2.191848   -1.666933   -0.283465
     24          1           0       -4.306613    0.138809   -0.069785
     25          1           0       -3.540003   -0.222702    1.474758
     26          1           0       -3.780240    1.481370    0.998067
 ---------------------------------------------------------------------

 SCF Done:  E(UB3LYP) =  -465.086336320     A.U. after   33 cycles
 SCF Done:  E(UB3LYP) =  -465.086336320     a.u. after    1 cycles

 The electronic state is 2-A.
 Alpha  occ. eigenvalues --  -19.01097 -18.99573 -10.14207 -10.10475 -10.10339
 Alpha  occ. eigenvalues --  -10.06552 -10.06365 -10.06043 -10.05849 -10.05589
 Alpha  occ. eigenvalues --   -0.93073  -0.91994  -0.69546  -0.66830  -0.63147
 Alpha  occ. eigenvalues --   -0.60576  -0.55138  -0.50976  -0.46453  -0.41758
 Alpha  occ. eigenvalues --   -0.39357  -0.38047  -0.36483  -0.34861  -0.34181
 Alpha  occ. eigenvalues --   -0.32912  -0.32161  -0.30606  -0.29649  -0.28751
 Alpha  occ. eigenvalues --   -0.28110  -0.26571  -0.26318  -0.24140  -0.23844
 Alpha  occ. eigenvalues --   -0.23426  -0.22426  -0.19845  -0.15011  -0.13791
 Alpha  occ. eigenvalues --    0.04836
 Alpha virt. eigenvalues --    0.06587   0.07513   0.08536   0.08619   0.09249
 Alpha virt. eigenvalues --    0.09949   0.10689   0.10985   0.11466   0.12093
 Alpha virt. eigenvalues --    0.12792   0.12870   0.13769   0.14317   0.15199

  Beta  occ. eigenvalues --  -19.01094 -18.99491 -10.14091 -10.10457 -10.10332
  Beta  occ. eigenvalues --  -10.06541 -10.06356 -10.06017 -10.05811 -10.05578
  Beta  occ. eigenvalues --   -0.92916  -0.91965  -0.69521  -0.66718  -0.63064
  Beta  occ. eigenvalues --   -0.60527  -0.55085  -0.50902  -0.46414  -0.41558
  Beta  occ. eigenvalues --   -0.39310  -0.37978  -0.36426  -0.34731  -0.34069
  Beta  occ. eigenvalues --   -0.32794  -0.32087  -0.30562  -0.29616  -0.28695
  Beta  occ. eigenvalues --   -0.28057  -0.26510  -0.26225  -0.23907  -0.23740
  Beta  occ. eigenvalues --   -0.23402  -0.22371  -0.19811  -0.14980  -0.13720
  Beta virt. eigenvalues --    0.06811   0.07819   0.08307   0.08811   0.09215
  Beta virt. eigenvalues --    0.09760   0.10628   0.11078   0.11449   0.11819
  Beta virt. eigenvalues --    0.12589   0.13054   0.13356   0.14050   0.14389

 Mulliken charges and spin densities:
               1          2
     1  C    0.076407  -0.611066
     2  C   -0.120385  -0.001228
     3  C    0.244962  -0.611574
     4  C   -0.240441  -0.000438
     5  O   -0.075224   0.019671
     6  C   -0.442355   0.177913
     7  C    1.895767  -2.309013
     8  C   -1.611734   2.040210
     9  O   -0.248388  -0.000355
    10  C    1.528788  -2.140337
    11  H    0.003072   0.181843
    12  H   -0.083235   0.208049
    13  H    0.073435   0.038363
    14  H   -0.012169   0.158037
    15  H   -0.176051   0.331718
    16  H    0.054209   0.097492
    17  H   -0.088143   0.196951
    18  H   -0.167069   0.330137
    19  H    0.253638  -0.141346
    20  H    0.306801  -0.169161
    21  H   -0.505517   0.679358
    22  H   -0.663679   0.849278
    23  H    0.006769   0.181858
    24  H   -0.671605   0.848918
    25  H   -0.121285   0.276097
    26  H   -0.216568   0.368628
 Sum of Mulliken charges =  -1.00000   1.00000

 Dipole moment (field-independent basis, Debye):
    X=              5.7180    Y=              0.5021    Z=              3.0636  Tot=              6.5064
 Quadrupole moment (field-independent basis, Debye-Ang):
   XX=           -136.8162   YY=            -96.8855   ZZ=            -96.1631
   XY=             -0.7914   XZ=             -7.6883   YZ=             -3.0126

 Summary of Natural Population Analysis:

                                       Natural Population
                Natural  -----------------------------------------------
    Atom  No    Charge         Core      Valence    Rydberg      Total
 -----------------------------------------------------------------------
      C    1   -0.29201      0.99966     2.28759    0.00476     3.29201
      C    2   -0.19435      0.99964     2.18631    0.00840     3.19435
      C    3   -0.19793      0.99962     2.19043    0.00787     3.19793
      C    4   -0.01606      0.99955     2.00365    0.01286     3.01606
      O    5   -0.30891      0.99989     3.29922    0.00980     4.30891
      C    6   -0.01059      0.99956     1.99624    0.01479     3.01059
      C    7   -0.25394      0.99958     2.24470    0.00966     3.25394
      C    8    0.31024      0.99968     1.66909    0.02098     2.68976
      O    9   -0.29472      0.99987     3.28809    0.00676     4.29472
      C   10   -0.33381      0.99962     2.32853    0.00566     3.33381
      H   11    0.10808      0.00000     0.39065    0.00127     0.39192
      H   12    0.09626      0.00000     0.40271    0.00103     0.40374
      H   13    0.09218      0.00000     0.40668    0.00114     0.40782
      H   14    0.09694      0.00000     0.40171    0.00136     0.40306
      H   15    0.09301      0.00000     0.40581    0.00118     0.40699
      H   16    0.09730      0.00000     0.40140    0.00131     0.40270
      H   17    0.09253      0.00000     0.40626    0.00122     0.40747
      H   18    0.08432      0.00000     0.41448    0.00120     0.41568
      H   19    0.09394      0.00000     0.40412    0.00194     0.40606
      H   20    0.08786      0.00000     0.41019    0.00196     0.41214
      H   21    0.08940      0.00000     0.40903    0.00156     0.41060
      H   22    0.12184      0.00000     0.37041    0.00776     0.37816
      H   23    0.10796      0.00000     0.39075    0.00129     0.39204
      H   24    0.11529      0.00000     0.37912    0.00559     0.38471
      H   25    0.10812      0.00000     0.39074    0.00114     0.39188
      H   26    0.10704      0.00000     0.39183    0.00112     0.39296
 =======================================================================
   * Total *   -0.00000      9.99668    29.86973    0.13359    40.00000

 Normal termination of Gaussian 16 at Tue Dec  8 13:23:23 2020.
