 Gaussian 16, Revision A.03,

 -----------------------------------------------------------
 # opt freq B3LYP/6-31G(d) empiricaldispersion=gd3bj scf=xqc
 -----------------------------------------------------------

 ------------------------------
 CID_10220395_JID_7819_neutraal
 ------------------------------
 Symbolic Z-matrix:
 Charge =  0 Multiplicity = 1

 SCF Done:  E(RB3LYP) =  -773.647397164     A.U. after   15 cycles
 SCF Done:  E(RB3LYP) =  -773.649529538     A.U. after   11 cycles
 SCF Done:  E(RB3LYP) =  -773.645062960     A.U. after   14 cycles
 SCF Done:  E(RB3LYP) =  -773.648477584     A.U. after   13 cycles
 SCF Done:  E(RB3LYP) =  -773.650245378     A.U. after    9 cycles
 SCF Done:  E(RB3LYP) =  -773.650140162     A.U. after   13 cycles
 SCF Done:  E(RB3LYP) =  -773.650641907     A.U. after   11 cycles
 SCF Done:  E(RB3LYP) =  -773.650628358     A.U. after   12 cycles
 SCF Done:  E(RB3LYP) =  -773.650696886     A.U. after   11 cycles
 SCF Done:  E(RB3LYP) =  -773.650749127     A.U. after   11 cycles
 SCF Done:  E(RB3LYP) =  -773.650762869     A.U. after    8 cycles
 SCF Done:  E(RB3LYP) =  -773.650762940     A.U. after    6 cycles
 SCF Done:  E(RB3LYP) =  -773.650763025     A.U. after    7 cycles
 SCF Done:  E(RB3LYP) =  -773.650763072     A.U. after    7 cycles
 SCF Done:  E(RB3LYP) =  -773.650763125     A.U. after    7 cycles
 SCF Done:  E(RB3LYP) =  -773.650763158     A.U. after    6 cycles
 Optimization completed.
    -- Stationary point found.
 Normal termination of Gaussian 16 at Fri Dec 11 13:18:36 2020.

 --------------------------------------------------------------------
 #N Geom=AllCheck Guess=TCheck SCRF=Check GenChk RB3LYP/6-31G(d) Freq
 --------------------------------------------------------------------

 Structure from the checkpoint file:  "JID_7819.chk"
 ------------------------------
 CID_10220395_JID_7819_neutraal
 ------------------------------
 Charge =  0 Multiplicity = 1

 SCF Done:  E(RB3LYP) =  -773.650763158     A.U. after    1 cycles

  Exact polarizability: 270.510  -7.351 139.657   7.542  11.611 115.973
 Approx polarizability: 349.075  -6.003 196.950  26.578  20.718 182.911

                      1                      2                      3
                      A                      A                      A
 Frequencies --     13.6741                19.6189                36.6707
 Red. masses --      4.2654                 4.8730                 4.7154
 Frc consts  --      0.0005                 0.0011                 0.0037
 IR Inten    --      0.4637                 1.3968                 0.4641

                      4                      5                      6
                      A                      A                      A
 Frequencies --     47.2226                59.1430                82.9061
 Red. masses --      4.4110                 4.7905                 4.7244
 Frc consts  --      0.0058                 0.0099                 0.0191
 IR Inten    --      0.6169                 0.6925                 0.1941

                      7                      8                      9
                      A                      A                      A
 Frequencies --    104.5225               117.4443               143.1438
 Red. masses --      4.0990                 2.3336                 2.7858
 Frc consts  --      0.0264                 0.0190                 0.0336
 IR Inten    --      1.9611                 0.1082                 1.7037

                     10                     11                     12
                      A                      A                      A
 Frequencies --    149.4616               180.5926               199.9595
 Red. masses --      2.6457                 1.9619                 1.2719
 Frc consts  --      0.0348                 0.0377                 0.0300
 IR Inten    --      2.6536                 0.0794                 0.2099

                     13                     14                     15
                      A                      A                      A
 Frequencies --    210.9007               220.7983               235.3227
 Red. masses --      2.0443                 1.5430                 1.7059
 Frc consts  --      0.0536                 0.0443                 0.0557
 IR Inten    --      0.7769                 0.2769                 0.1377

                     16                     17                     18
                      A                      A                      A
 Frequencies --    246.5527               266.4774               276.1863
 Red. masses --      1.9043                 1.9735                 2.5480
 Frc consts  --      0.0682                 0.0826                 0.1145
 IR Inten    --      0.4137                 0.4175                 0.7965

                     19                     20                     21
                      A                      A                      A
 Frequencies --    293.6422               342.5223               349.8151
 Red. masses --      2.5492                 3.0863                 2.4506
 Frc consts  --      0.1295                 0.2133                 0.1767
 IR Inten    --      2.7989                 0.0618                 4.8484

                     22                     23                     24
                      A                      A                      A
 Frequencies --    356.7887               391.4625               427.6673
 Red. masses --      3.1328                 2.2603                 2.5273
 Frc consts  --      0.2350                 0.2041                 0.2723
 IR Inten    --      0.4658                 2.9414                 3.0055

                     25                     26                     27
                      A                      A                      A
 Frequencies --    430.2669               445.0990               496.3080
 Red. masses --      2.1795                 3.1215                 2.6060
 Frc consts  --      0.2377                 0.3644                 0.3782
 IR Inten    --      1.3476                 2.5643                 3.3445

                     28                     29                     30
                      A                      A                      A
 Frequencies --    528.7908               583.6227               587.7350
 Red. masses --      3.0815                 2.4090                 1.4499
 Frc consts  --      0.5077                 0.4834                 0.2951
 IR Inten    --      3.9471                32.5789                69.5833

                     31                     32                     33
                      A                      A                      A
 Frequencies --    603.9335               626.9130               721.5125
 Red. masses --      2.4840                 3.4963                 2.5349
 Frc consts  --      0.5338                 0.8096                 0.7775
 IR Inten    --      3.8586                54.6390                 1.2891

                     34                     35                     36
                      A                      A                      A
 Frequencies --    728.4725               759.3776               842.1224
 Red. masses --      3.2503                 1.4980                 2.3402
 Frc consts  --      1.0162                 0.5090                 0.9778
 IR Inten    --     31.5672                29.1545                 6.6373

                     37                     38                     39
                      A                      A                      A
 Frequencies --    857.2376               873.6783               898.3217
 Red. masses --      2.0389                 2.3680                 2.1954
 Frc consts  --      0.8828                 1.0649                 1.0438
 IR Inten    --      0.9584                18.0682                 7.4233

                     40                     41                     42
                      A                      A                      A
 Frequencies --    913.0976               921.3419               933.3455
 Red. masses --      2.1216                 3.5985                 2.0333
 Frc consts  --      1.0422                 1.7998                 1.0436
 IR Inten    --      4.1388                18.4547                 0.8195

                     43                     44                     45
                      A                      A                      A
 Frequencies --    947.8992               960.9706               983.1181
 Red. masses --      1.3030                 1.8725                 1.4804
 Frc consts  --      0.6898                 1.0188                 0.8430
 IR Inten    --      3.1190                 7.5454                 1.0964

                     46                     47                     48
                      A                      A                      A
 Frequencies --    989.9077              1006.7127              1037.0836
 Red. masses --      1.1505                 1.9668                 2.0080
 Frc consts  --      0.6642                 1.1744                 1.2725
 IR Inten    --      0.3379                 3.9126                16.3001

                     49                     50                     51
                      A                      A                      A
 Frequencies --   1051.8601              1078.4293              1100.0035
 Red. masses --      1.1155                 1.8467                 2.2503
 Frc consts  --      0.7272                 1.2654                 1.6042
 IR Inten    --     48.2480                 3.3239                15.4371

                     52                     53                     54
                      A                      A                      A
 Frequencies --   1112.4255              1139.7956              1150.4013
 Red. masses --      2.8989                 2.9601                 2.0081
 Frc consts  --      2.1136                 2.2657                 1.5658
 IR Inten    --     30.4568                46.6512                 3.1644

                     55                     56                     57
                      A                      A                      A
 Frequencies --   1176.2068              1182.8207              1188.9511
 Red. masses --      1.9633                 2.3695                 1.3854
 Frc consts  --      1.6003                 1.9532                 1.1539
 IR Inten    --     53.0743                38.9768                45.2833

                     58                     59                     60
                      A                      A                      A
 Frequencies --   1194.9208              1207.3357              1218.6476
 Red. masses --      1.6598                 1.7106                 1.3912
 Frc consts  --      1.3963                 1.4691                 1.2173
 IR Inten    --    177.9425                 0.5026                30.7177

                     61                     62                     63
                      A                      A                      A
 Frequencies --   1226.1115              1242.4259              1265.6867
 Red. masses --      1.4539                 1.5743                 1.3130
 Frc consts  --      1.2878                 1.4318                 1.2392
 IR Inten    --     87.0442                10.5343                27.4902

                     64                     65                     66
                      A                      A                      A
 Frequencies --   1292.6950              1318.4768              1333.0412
 Red. masses --      1.2140                 1.3814                 1.4246
 Frc consts  --      1.1952                 1.4148                 1.4915
 IR Inten    --      3.2415                 4.1789                 1.2744

                     67                     68                     69
                      A                      A                      A
 Frequencies --   1348.2167              1352.7528              1363.7863
 Red. masses --      1.3082                 1.2810                 1.2584
 Frc consts  --      1.4011                 1.3811                 1.3790
 IR Inten    --      1.0503                 3.3992                 1.8641

                     70                     71                     72
                      A                      A                      A
 Frequencies --   1369.7700              1375.4168              1387.2585
 Red. masses --      1.2883                 1.5256                 1.7252
 Frc consts  --      1.4242                 1.7004                 1.9561
 IR Inten    --      0.2907                 6.2675               113.3475

                     73                     74                     75
                      A                      A                      A
 Frequencies --   1400.1153              1403.6294              1420.8444
 Red. masses --      1.4262                 1.7440                 1.3716
 Frc consts  --      1.6473                 2.0244                 1.6314
 IR Inten    --     23.8785                55.8439                 1.8864

                     76                     77                     78
                      A                      A                      A
 Frequencies --   1427.5913              1433.6855              1438.3320
 Red. masses --      1.4198                 1.2539                 1.1755
 Frc consts  --      1.7049                 1.5185                 1.4328
 IR Inten    --      1.5527                 1.8705                 3.4658

                     79                     80                     81
                      A                      A                      A
 Frequencies --   1454.9325              1502.9358              1503.5859
 Red. masses --      1.2224                 1.0904                 1.1306
 Frc consts  --      1.5246                 1.4511                 1.5060
 IR Inten    --     10.2505                 6.1421                 5.0000

                     82                     83                     84
                      A                      A                      A
 Frequencies --   1515.8233              1518.5809              1520.3471
 Red. masses --      1.0638                 1.0709                 1.0607
 Frc consts  --      1.4401                 1.4551                 1.4446
 IR Inten    --      4.8935                 5.7031                 6.1236

                     85                     86                     87
                      A                      A                      A
 Frequencies --   1521.9622              1527.8973              1528.8300
 Red. masses --      1.0605                 1.0839                 1.0734
 Frc consts  --      1.4473                 1.4909                 1.4781
 IR Inten    --      7.0629                 3.4508                 9.7868

                     88                     89                     90
                      A                      A                      A
 Frequencies --   1536.5994              1542.4221              1550.5777
 Red. masses --      1.0549                 1.0516                 1.0564
 Frc consts  --      1.4676                 1.4741                 1.4965
 IR Inten    --      2.3630                 5.3733                 4.8469

                     91                     92                     93
                      A                      A                      A
 Frequencies --   1681.6482              1722.0536              1817.1564
 Red. masses --      6.0565                 5.2727                 8.8977
 Frc consts  --     10.0912                 9.2124                17.3106
 IR Inten    --     26.1007               116.8763               534.5542

                     94                     95                     96
                      A                      A                      A
 Frequencies --   3019.6046              3030.3583              3033.9862
 Red. masses --      1.0603                 1.0571                 1.0636
 Frc consts  --      5.6961                 5.7193                 5.7685
 IR Inten    --      9.3332                21.3568                28.8008

                     97                     98                     99
                      A                      A                      A
 Frequencies --   3035.6076              3042.9540              3045.4902
 Red. masses --      1.0718                 1.0700                 1.0431
 Frc consts  --      5.8191                 5.8377                 5.7005
 IR Inten    --     20.7214                22.8192                12.3064

                    100                    101                    102
                      A                      A                      A
 Frequencies --   3050.2694              3052.3302              3058.8114
 Red. masses --      1.0552                 1.0550                 1.0654
 Frc consts  --      5.7845                 5.7912                 5.8733
 IR Inten    --     36.1934                59.3280                36.3998

                    103                    104                    105
                      A                      A                      A
 Frequencies --   3080.6887              3083.0749              3084.8747
 Red. masses --      1.0995                 1.0985                 1.1003
 Frc consts  --      6.1481                 6.1523                 6.1695
 IR Inten    --     47.6890                 7.1798                46.8122

                    106                    107                    108
                      A                      A                      A
 Frequencies --   3094.6689              3105.3136              3106.5815
 Red. masses --      1.0933                 1.1012                 1.0958
 Frc consts  --      6.1693                 6.2565                 6.2307
 IR Inten    --     77.2358                 2.5750                75.1940

                    109                    110                    111
                      A                      A                      A
 Frequencies --   3112.4042              3121.0567              3130.7089
 Red. masses --      1.1003                 1.1009                 1.0999
 Frc consts  --      6.2800                 6.3184                 6.3514
 IR Inten    --     70.1146                33.7276                35.0456

                    112                    113                    114
                      A                      A                      A
 Frequencies --   3145.9946              3151.1087              3156.8009
 Red. masses --      1.0984                 1.0913                 1.0863
 Frc consts  --      6.4052                 6.3843                 6.3783
 IR Inten    --     25.5682                 1.3731                26.1174

                    115                    116                    117
                      A                      A                      A
 Frequencies --   3188.4565              3211.6310              3705.5035
 Red. masses --      1.0902                 1.0894                 1.0642
 Frc consts  --      6.5303                 6.6206                 8.6095
 IR Inten    --      4.0338                 5.8948                74.3868

 - Thermochemistry -
 -------------------
 Temperature   298.150 Kelvin.  Pressure   1.00000 Atm.
 Atom     1 has atomic number  6 and mass  12.00000

 Molecular mass:   240.17254 amu.
 Principal axes and moments of inertia in atomic units:
                           1         2         3
     Eigenvalues --  1486.33346********************
           X            0.99998   0.00500  -0.00312
           Y           -0.00494   0.99983   0.01788
           Z            0.00321  -0.01786   0.99984
 This molecule is an asymmetric top.
 Rotational symmetry number  1.
 Warning -- assumption of classical behavior for rotation
           may cause significant error
 Rotational temperatures (Kelvin)      0.05827     0.00551     0.00528
 Rotational constants (GHZ):           1.21422     0.11479     0.11002
 Zero-point vibrational energy     956681.3 (Joules/Mol)
                                  228.65233 (Kcal/Mol)
 Warning -- explicit consideration of  31 degrees of freedom as
           vibrations may cause significant error
 Vibrational temperatures:     19.67    28.23    52.76    67.94    85.09
          (Kelvin)            119.28   150.38   168.98   205.95   215.04
                              259.83   287.70   303.44   317.68   338.58
                              354.73   383.40   397.37   422.49   492.81
                              503.31   513.34   563.23   615.32   619.06
                              640.40   714.08   760.81   839.70   845.62
                              868.93   901.99  1038.10  1048.11  1092.57
                             1211.63  1233.37  1257.03  1292.48  1313.74
                             1325.61  1342.88  1363.82  1382.62  1414.49
                             1424.26  1448.43  1492.13  1513.39  1551.62
                             1582.66  1600.53  1639.91  1655.17  1692.30
                             1701.82  1710.64  1719.22  1737.09  1753.36
                             1764.10  1787.57  1821.04  1859.90  1896.99
                             1917.95  1939.78  1946.31  1962.18  1970.79
                             1978.92  1995.96  2014.45  2019.51  2044.28
                             2053.99  2062.75  2069.44  2093.32  2162.39
                             2163.32  2180.93  2184.90  2187.44  2189.76
                             2198.30  2199.65  2210.82  2219.20  2230.94
                             2419.52  2477.65  2614.48  4344.54  4360.01
                             4365.23  4367.56  4378.13  4381.78  4388.66
                             4391.62  4400.95  4432.42  4435.86  4438.45
                             4452.54  4467.85  4469.68  4478.06  4490.50
                             4504.39  4526.38  4533.74  4541.93  4587.48
                             4620.82  5331.39

 Zero-point correction=                           0.364381 (Hartree/Particle)
 Thermal correction to Energy=                    0.384314
 Thermal correction to Enthalpy=                  0.385258
 Thermal correction to Gibbs Free Energy=         0.313203
 Sum of electronic and zero-point Energies=           -773.286382
 Sum of electronic and thermal Energies=              -773.266449
 Sum of electronic and thermal Enthalpies=            -773.265505
 Sum of electronic and thermal Free Energies=         -773.337560

                     E (Thermal)             CV                S
                      KCal/Mol        Cal/Mol-Kelvin    Cal/Mol-Kelvin
 Total                  241.161             72.872            151.653
 Electronic               0.000              0.000              0.000
 Translational            0.889              2.981             42.330
 Rotational               0.889              2.981             34.304
 Vibrational            239.383             66.911             75.019
 Vibration     1          0.593              1.986              7.389
 Vibration     2          0.593              1.986              6.672
 Vibration     3          0.594              1.982              5.431
 Vibration     4          0.595              1.979              4.930
 Vibration     5          0.597              1.974              4.486
 Vibration     6          0.600              1.961              3.821
 Vibration     7          0.605              1.946              3.368
 Vibration     8          0.608              1.935              3.142
 Vibration     9          0.616              1.910              2.761
 Vibration    10          0.618              1.903              2.679
 Vibration    11          0.630              1.866              2.322
 Vibration    12          0.638              1.840              2.133
 Vibration    13          0.643              1.824              2.036
 Vibration    14          0.648              1.809              1.953
 Vibration    15          0.655              1.787              1.838
 Vibration    16          0.661              1.768              1.755
 Vibration    17          0.672              1.735              1.619
 Vibration    18          0.678              1.717              1.557
 Vibration    19          0.688              1.686              1.453
 Vibration    20          0.722              1.590              1.200
 Vibration    21          0.727              1.576              1.167
 Vibration    22          0.732              1.561              1.136
 Vibration    23          0.759              1.488              0.995
 Vibration    24          0.789              1.410              0.866
 Vibration    25          0.791              1.404              0.858
 Vibration    26          0.804              1.372              0.811
 Vibration    27          0.852              1.258              0.667
 Vibration    28          0.884              1.186              0.590
 Vibration    29          0.941              1.067              0.479
 Vibration    30          0.945              1.058              0.471
 Vibration    31          0.962              1.023              0.443

 Optimization completed.
    -- Stationary point found.
 Normal termination of Gaussian 16 at Fri Dec 11 13:33:10 2020.

 ----------------------------------------------------------------------
 # B3LYP/6-311++G(d,p) empiricaldispersion=gd3bj scf=xqc pop=npa geom=c
 heck
 ----------------------------------------------------------------------

 --------------------------------------
 CID_10220395_JID_7819_Energie_neutraal
 --------------------------------------
 Structure from the checkpoint file:  "JID_7819.chk"
 Charge =  0 Multiplicity = 1

 SCF Done:  E(RB3LYP) =  -773.883549757     A.U. after   15 cycles
 Normal termination of Gaussian 16 at Fri Dec 11 13:41:15 2020.

 ----------------------------------------------------------------------
 # B3LYP/6-311++G(d,p) empiricaldispersion=gd3bj scf=xqc pop=npa geom=c
 heck
 ----------------------------------------------------------------------

 ------------------------------------
 CID_10220395_JID_7819_Energie_kation
 ------------------------------------
 Structure from the checkpoint file:  "JID_7819.chk"
 Charge =  1 Multiplicity = 2

 SCF Done:  E(UB3LYP) =  -773.576344935     A.U. after   25 cycles
 Normal termination of Gaussian 16 at Fri Dec 11 13:58:46 2020.
 Gaussian 16:  ES64L-G16RevA.03 25-Dec-2016

 ----------------------------------------------------------------------
 # B3LYP/6-311++G(d,p) empiricaldispersion=gd3bj scf=xqc pop=npa geom=c
 heck
 ----------------------------------------------------------------------

 -----------------------------------
 CID_10220395_JID_7819_Energie_anion
 -----------------------------------
 Structure from the checkpoint file:  "JID_7819.chk"
 Charge = -1 Multiplicity = 2

                         Standard orientation:
 ---------------------------------------------------------------------
 Center     Atomic      Atomic             Coordinates (Angstroms)
 Number     Number       Type             X           Y           Z
 ---------------------------------------------------------------------
      1          6           0        4.331241    2.292071   -0.568593
      2          6           0        4.384371    0.766353   -0.392477
      3          6           0        5.839810    0.314640   -0.216543
      4          6           0        3.522694    0.335678    0.812433
      5          6           0        2.014506    0.699651    0.709890
      6          6           0        1.276484    0.669482   -0.646548
      7          6           0        0.783215   -0.679297   -1.188694
      8          6           0       -0.167489   -1.455233   -0.249076
      9          6           0       -1.388808   -0.676908    0.134087
     10          6           0       -2.637896   -0.946791   -0.286319
     11          6           0       -3.790438   -0.158032    0.090592
     12          6           0       -5.049037   -0.410138   -0.322758
     13          6           0       -6.219844    0.389377    0.056618
     14          8           0       -7.356804    0.165112   -0.313955
     15          8           0       -5.925632    1.434985    0.881686
     16          8           0        3.775131   -1.008792    1.234103
     17          6           0        3.503542   -2.063886    0.338813
     18          1           0        4.713020    2.794161    0.329516
     19          1           0        3.318762    2.663374   -0.752048
     20          1           0        4.957465    2.602957   -1.411986
     21          1           0        3.986653    0.305138   -1.307227
     22          1           0        6.270356    0.753298    0.692137
     23          1           0        5.926195   -0.770659   -0.127127
     24          1           0        6.448580    0.640767   -1.067541
     25          1           0        3.901167    0.898252    1.675590
     26          1           0        1.489568    0.084181    1.450445
     27          1           0        1.930852    1.728586    1.080414
     28          1           0        0.402579    1.326318   -0.548158
     29          1           0        1.899013    1.136879   -1.417004
     30          1           0        0.250477   -0.489754   -2.129225
     31          1           0        1.629729   -1.325647   -1.441481
     32          1           0       -0.465536   -2.389181   -0.740422
     33          1           0        0.375480   -1.738121    0.663256
     34          1           0       -1.239491    0.179155    0.792622
     35          1           0       -2.810979   -1.799318   -0.943510
     36          1           0       -3.616339    0.690423    0.749278
     37          1           0       -5.273783   -1.244725   -0.980039
     38          1           0       -6.778986    1.872985    1.052659
     39          1           0        2.432111   -2.291147    0.275175
     40          1           0        3.881939   -1.874852   -0.675050
     41          1           0        4.015511   -2.945312    0.736511
 ---------------------------------------------------------------------

 SCF Done:  E(UB3LYP) =  -773.899837408     A.U. after   29 cycles

 The electronic state is 2-A.
 Alpha  occ. eigenvalues --  -19.03766 -19.02390 -18.94962 -10.13849 -10.13632
 Alpha  occ. eigenvalues --  -10.12522 -10.09880 -10.08846 -10.08294 -10.07997
 Alpha  occ. eigenvalues --  -10.07234 -10.06387 -10.05802 -10.03008 -10.02514
 Alpha  occ. eigenvalues --  -10.02185 -10.01189  -0.95808  -0.94882  -0.86389
 Alpha  occ. eigenvalues --   -0.73632  -0.70565  -0.67520  -0.65487  -0.62880
 Alpha  occ. eigenvalues --   -0.61175  -0.59627  -0.56594  -0.53973  -0.50903
 Alpha  occ. eigenvalues --   -0.48229  -0.45830  -0.43280  -0.42142  -0.41904
 Alpha  occ. eigenvalues --   -0.39310  -0.38266  -0.37694  -0.35446  -0.35366
 Alpha  occ. eigenvalues --   -0.34092  -0.33751  -0.33137  -0.32435  -0.31935
 Alpha  occ. eigenvalues --   -0.31165  -0.30668  -0.30234  -0.29990  -0.28656
 Alpha  occ. eigenvalues --   -0.27808  -0.26772  -0.26404  -0.25711  -0.25263
 Alpha  occ. eigenvalues --   -0.24522  -0.23307  -0.22864  -0.22311  -0.21276
 Alpha  occ. eigenvalues --   -0.20837  -0.18768  -0.18053  -0.17359  -0.13163
 Alpha  occ. eigenvalues --   -0.09952   0.03471
 Alpha virt. eigenvalues --    0.05030   0.06439   0.06962   0.07421   0.08820
 Alpha virt. eigenvalues --    0.09031   0.09285   0.09622   0.09876   0.10102
 Alpha virt. eigenvalues --    0.11409   0.11918   0.12046   0.12279   0.12660

  Beta  occ. eigenvalues --  -19.03764 -19.02353 -18.94684 -10.13848 -10.13464
  Beta  occ. eigenvalues --  -10.12502 -10.09873 -10.08839 -10.08285 -10.07995
  Beta  occ. eigenvalues --  -10.07224 -10.06335 -10.05834 -10.03043 -10.02100
  Beta  occ. eigenvalues --  -10.01872 -10.01033  -0.95593  -0.94877  -0.85995
  Beta  occ. eigenvalues --   -0.73617  -0.70420  -0.67172  -0.65226  -0.62613
  Beta  occ. eigenvalues --   -0.61112  -0.59405  -0.56470  -0.53844  -0.50509
  Beta  occ. eigenvalues --   -0.48062  -0.45750  -0.42858  -0.41901  -0.41826
  Beta  occ. eigenvalues --   -0.39282  -0.38242  -0.37662  -0.35331  -0.35247
  Beta  occ. eigenvalues --   -0.33923  -0.33698  -0.32904  -0.32346  -0.31902
  Beta  occ. eigenvalues --   -0.31148  -0.30587  -0.29890  -0.29271  -0.28543
  Beta  occ. eigenvalues --   -0.27755  -0.26692  -0.26332  -0.25614  -0.25151
  Beta  occ. eigenvalues --   -0.24364  -0.23172  -0.22744  -0.22203  -0.21228
  Beta  occ. eigenvalues --   -0.20657  -0.17720  -0.17365  -0.16615  -0.12882
  Beta  occ. eigenvalues --   -0.08044
  Beta virt. eigenvalues --    0.05114   0.06470   0.06973   0.07333   0.08780
  Beta virt. eigenvalues --    0.08957   0.09277   0.09530   0.09597   0.09849
  Beta virt. eigenvalues --    0.10039   0.11336   0.11878   0.12003   0.12185

 Mulliken charges and spin densities:
               1          2
     1  C   -0.414250  -0.262054
     2  C    0.035483   0.233494
     3  C   -0.245661  -0.298175
     4  C   -0.045266  -0.065041
     5  C   -0.604936  -0.076350
     6  C   -0.354981   0.042258
     7  C    0.297032  -0.298290
     8  C   -0.194229   0.162490
     9  C    0.114881   0.233352
    10  C   -0.459179  -0.075226
    11  C   -0.434309   0.259973
    12  C   -0.137280   0.036523
    13  C   -0.054833   0.161661
    14  O   -0.417924   0.089335
    15  O   -0.241750   0.008070
    16  O   -0.100482   0.010632
    17  C   -0.106511  -0.275110
    18  H    0.106585   0.028887
    19  H    0.118349   0.021142
    20  H    0.035111   0.105173
    21  H    0.088123   0.084956
    22  H    0.103123   0.032955
    23  H    0.070207   0.067096
    24  H   -0.011335   0.143212
    25  H    0.165870   0.036291
    26  H    0.247303  -0.009695
    27  H    0.132762   0.005680
    28  H    0.149075   0.012792
    29  H    0.037474   0.096149
    30  H    0.131305   0.028048
    31  H   -0.032344   0.125229
    32  H    0.112113   0.051576
    33  H    0.064076   0.022470
    34  H    0.098991  -0.009971
    35  H    0.047275  -0.001632
    36  H    0.130531  -0.016103
    37  H    0.137458  -0.012128
    38  H    0.257218  -0.000281
    39  H    0.142077   0.045297
    40  H   -0.027390   0.166480
    41  H    0.060237   0.088833
 Sum of Mulliken charges =  -1.00000   1.00000

 Dipole moment (field-independent basis, Debye):
    X=             12.5325    Y=              1.7767    Z=              0.8460  Tot=             12.6861
 Quadrupole moment (field-independent basis, Debye-Ang):
   XX=           -261.6939   YY=           -118.5148   ZZ=           -122.7498
   XY=             -1.6954   XZ=             -6.2087   YZ=              4.3450

 Summary of Natural Population Analysis:

                                       Natural Population
                Natural  -----------------------------------------------
    Atom  No    Charge         Core      Valence    Rydberg      Total
 -----------------------------------------------------------------------
      C    1   -0.28389      0.99965     2.27934    0.00490     3.28389
      C    2   -0.13211      0.99959     2.12307    0.00945     3.13211
      C    3   -0.28308      0.99965     2.27748    0.00595     3.28308
      C    4    0.07588      0.99951     1.91050    0.01410     2.92412
      C    5   -0.20749      0.99960     2.19986    0.00803     3.20749
      C    6   -0.19836      0.99962     2.18938    0.00936     3.19836
      C    7   -0.18265      0.99962     2.17487    0.00817     3.18265
      C    8   -0.21218      0.99962     2.20223    0.01033     3.21218
      C    9    0.00063      0.99954     1.99145    0.00838     2.99937
      C   10   -0.12797      0.99951     2.11960    0.00886     3.12797
      C   11   -0.01684      0.99954     2.00791    0.00939     3.01684
      C   12   -0.14090      0.99949     2.13163    0.00978     3.14090
      C   13    0.39996      0.99968     1.57563    0.02472     2.60004
      O   14   -0.31045      0.99987     3.30277    0.00781     4.31045
      O   15   -0.35939      0.99988     3.35333    0.00617     4.35939
      O   16   -0.30576      0.99988     3.29589    0.00999     4.30576
      C   17   -0.10456      0.99960     2.09439    0.01057     3.10456
      H   18    0.09490      0.00000     0.40417    0.00093     0.40510
      H   19    0.10246      0.00000     0.39676    0.00078     0.39754
      H   20    0.09888      0.00000     0.40026    0.00086     0.40112
      H   21    0.09764      0.00000     0.40033    0.00203     0.40236
      H   22    0.09554      0.00000     0.40350    0.00097     0.40446
      H   23    0.10414      0.00000     0.39497    0.00089     0.39586
      H   24    0.09587      0.00000     0.40325    0.00088     0.40413
      H   25    0.08749      0.00000     0.41128    0.00123     0.41251
      H   26    0.10736      0.00000     0.39142    0.00122     0.39264
      H   27    0.09922      0.00000     0.39988    0.00090     0.40078
      H   28    0.10382      0.00000     0.39521    0.00098     0.39618
      H   29    0.09430      0.00000     0.40464    0.00106     0.40570
      H   30    0.09766      0.00000     0.40129    0.00105     0.40234
      H   31    0.09042      0.00000     0.40817    0.00141     0.40958
      H   32    0.09757      0.00000     0.40134    0.00110     0.40243
      H   33    0.09548      0.00000     0.40323    0.00129     0.40452
      H   34    0.07933      0.00000     0.41926    0.00140     0.42067
      H   35    0.08438      0.00000     0.41404    0.00158     0.41562
      H   36    0.09111      0.00000     0.40719    0.00171     0.40889
      H   37    0.09134      0.00000     0.40722    0.00144     0.40866
      H   38    0.22986      0.00000     0.26679    0.00335     0.27014
      H   39    0.08512      0.00000     0.41355    0.00133     0.41488
      H   40    0.07826      0.00000     0.42059    0.00115     0.42174
      H   41    0.08703      0.00000     0.41218    0.00080     0.41297
 =======================================================================
   * Total *   -0.00000     16.99387    48.80986    0.19627    66.00000

 Normal termination of Gaussian 16 at Fri Dec 11 14:18:48 2020.
