 Gaussian 16, Revision A.03,

 -----------------------------------------------------------
 # opt freq B3LYP/6-31G(d) empiricaldispersion=gd3bj scf=xqc
 -----------------------------------------------------------

 ------------------------------
 CID_147051147_JID_651_neutraal
 ------------------------------
 Symbolic Z-matrix:
 Charge =  0 Multiplicity = 1

 SCF Done:  E(RB3LYP) =  -407.995220730     A.U. after   13 cycles
 SCF Done:  E(RB3LYP) =  -407.998262069     A.U. after   11 cycles
 SCF Done:  E(RB3LYP) =  -407.998706254     A.U. after   11 cycles
 SCF Done:  E(RB3LYP) =  -407.998792151     A.U. after   10 cycles
 SCF Done:  E(RB3LYP) =  -407.998828369     A.U. after   10 cycles
 SCF Done:  E(RB3LYP) =  -407.998842095     A.U. after   10 cycles
 SCF Done:  E(RB3LYP) =  -407.998845471     A.U. after    8 cycles
 SCF Done:  E(RB3LYP) =  -407.998845727     A.U. after    7 cycles
 SCF Done:  E(RB3LYP) =  -407.998845793     A.U. after    6 cycles
 Optimization completed.
    -- Stationary point found.

 1\1\GINC-NODE310\FOpt\RB3LYP\6-31G(d)\C9H17N1\VSC10255\08-Dec-2020\0\\
 # opt freq B3LYP/6-31G(d) empiricaldispersion=gd3bj scf=xqc\\CID_14705
 1147_JID_651_neutraal\\0,1\C,0.9876911411,0.0912028472,-0.1636820818\C
 ,0.221093577,-0.9875115878,-0.934895465\C,1.1318513239,-2.0830512069,-
 1.5105058492\C,1.7192932552,-2.9750923901,-0.3945419331\C,0.8331637538
 ,-4.2046194968,-0.4723471329\N,0.119580639,-4.2991021523,-1.5264722533
 \C,0.4016523401,-3.1443617349,-2.4138938938\C,-0.9123928473,-2.6800603
 835,-3.0464127479\C,1.3517596458,-3.6418664786,-3.5170787476\C,0.82498

 Normal termination of Gaussian 16 at Tue Dec  8 12:18:44 2020.

 --------------------------------------------------------------------
 #N Geom=AllCheck Guess=TCheck SCRF=Check GenChk RB3LYP/6-31G(d) Freq
 --------------------------------------------------------------------

 Structure from the checkpoint file:  "JID_651.chk"
 ------------------------------
 CID_147051147_JID_651_neutraal
 ------------------------------
 Charge =  0 Multiplicity = 1

 SCF Done:  E(RB3LYP) =  -407.998845793     A.U. after    1 cycles

  Exact polarizability: 100.706  -2.811 109.096  -0.803  -1.955  84.034
 Approx polarizability: 129.841  -2.560 155.421  -3.909  -6.752 125.922

                      1                      2                      3
                      A                      A                      A
 Frequencies --     68.3524               123.0316               132.0114
 Red. masses --      2.8729                 1.7461                 1.9383
 Frc consts  --      0.0079                 0.0156                 0.0199
 IR Inten    --      0.6611                 0.5495                 0.9305

                      4                      5                      6
                      A                      A                      A
 Frequencies --    174.2156               203.8317               233.7738
 Red. masses --      1.1869                 2.6304                 1.2265
 Frc consts  --      0.0212                 0.0644                 0.0395
 IR Inten    --      0.0431                 0.3199                 0.0454

                      7                      8                      9
                      A                      A                      A
 Frequencies --    253.4269               264.9114               299.7907
 Red. masses --      1.0355                 1.7471                 1.3575
 Frc consts  --      0.0392                 0.0722                 0.0719
 IR Inten    --      0.0976                 0.3752                 0.2217

                     10                     11                     12
                      A                      A                      A
 Frequencies --    313.5741               342.4362               358.3285
 Red. masses --      1.9584                 2.8638                 2.6279
 Frc consts  --      0.1135                 0.1979                 0.1988
 IR Inten    --      0.8377                 0.2006                 1.5870

                     13                     14                     15
                      A                      A                      A
 Frequencies --    383.2835               431.3582               485.8788
 Red. masses --      2.5700                 2.2037                 2.2844
 Frc consts  --      0.2224                 0.2416                 0.3177
 IR Inten    --      1.4220                 0.1069                 2.0388

                     16                     17                     18
                      A                      A                      A
 Frequencies --    558.8040               599.1639               640.7142
 Red. masses --      3.6375                 3.6488                 3.2262
 Frc consts  --      0.6692                 0.7718                 0.7803
 IR Inten    --      4.9079                 1.4020                 2.5485

                     19                     20                     21
                      A                      A                      A
 Frequencies --    786.0546               826.0504               856.1907
 Red. masses --      1.6368                 1.8036                 3.0677
 Frc consts  --      0.5959                 0.7251                 1.3250
 IR Inten    --      1.3293                 0.8948                 4.0898

                     22                     23                     24
                      A                      A                      A
 Frequencies --    876.9507               895.6173               948.5282
 Red. masses --      2.5552                 2.0052                 1.6359
 Frc consts  --      1.1578                 0.9477                 0.8672
 IR Inten    --      0.6641                 5.6495                 0.8991

                     25                     26                     27
                      A                      A                      A
 Frequencies --    963.8577               974.3163               981.4042
 Red. masses --      1.7906                 1.7711                 1.9525
 Frc consts  --      0.9801                 0.9906                 1.1080
 IR Inten    --      0.4624                 2.0613                 2.6187

                     28                     29                     30
                      A                      A                      A
 Frequencies --   1024.9952              1041.0774              1051.7556
 Red. masses --      1.3399                 1.3204                 1.8060
 Frc consts  --      0.8294                 0.8432                 1.1771
 IR Inten    --      2.3380                 0.4262                 1.0957

                     31                     32                     33
                      A                      A                      A
 Frequencies --   1074.8607              1110.0556              1141.2926
 Red. masses --      2.0527                 1.6481                 1.8514
 Frc consts  --      1.3973                 1.1966                 1.4209
 IR Inten    --      0.6364                 1.1531                 0.2471

                     34                     35                     36
                      A                      A                      A
 Frequencies --   1195.5109              1197.3788              1232.4696
 Red. masses --      2.1179                 1.8368                 1.9474
 Frc consts  --      1.7834                 1.5516                 1.7429
 IR Inten    --     10.9806                 6.7650                16.1697

                     37                     38                     39
                      A                      A                      A
 Frequencies --   1246.1906              1272.4648              1304.5357
 Red. masses --      2.0219                 2.0494                 1.6579
 Frc consts  --      1.8500                 1.9551                 1.6624
 IR Inten    --      7.7954                 9.8198                12.3845

                     40                     41                     42
                      A                      A                      A
 Frequencies --   1320.2699              1356.1817              1370.1311
 Red. masses --      1.5410                 1.9998                 1.2891
 Frc consts  --      1.5826                 2.1670                 1.4258
 IR Inten    --      5.0458                23.7982                 0.7174

                     43                     44                     45
                      A                      A                      A
 Frequencies --   1409.2617              1422.9862              1432.8584
 Red. masses --      1.4651                 1.2563                 1.3727
 Frc consts  --      1.7144                 1.4988                 1.6605
 IR Inten    --      0.6615                 6.3572                10.8011

                     46                     47                     48
                      A                      A                      A
 Frequencies --   1443.0407              1443.8304              1503.8851
 Red. masses --      1.2588                 1.2463                 1.0712
 Frc consts  --      1.5444                 1.5308                 1.4274
 IR Inten    --      0.1627                 5.9493                 0.6667

                     49                     50                     51
                      A                      A                      A
 Frequencies --   1505.3721              1509.5414              1511.5834
 Red. masses --      1.0683                 1.0465                 1.0554
 Frc consts  --      1.4263                 1.4050                 1.4208
 IR Inten    --     12.1877                 8.6678                 1.6949

                     52                     53                     54
                      A                      A                      A
 Frequencies --   1515.8134              1524.5036              1528.9498
 Red. masses --      1.0592                 1.0570                 1.0580
 Frc consts  --      1.4340                 1.4474                 1.4572
 IR Inten    --      2.1658                 1.5074                 2.3191

                     55                     56                     57
                      A                      A                      A
 Frequencies --   1531.9099              1536.9581              1543.8112
 Red. masses --      1.0456                 1.0595                 1.0589
 Frc consts  --      1.4457                 1.4746                 1.4870
 IR Inten    --      8.3187                 4.1286                 4.4598

                     58                     59                     60
                      A                      A                      A
 Frequencies --   1738.5725              3033.0358              3038.0759
 Red. masses --      8.8917                 1.0677                 1.0591
 Frc consts  --     15.8350                 5.7870                 5.7593
 IR Inten    --     60.3301                13.3637                 0.8013

                     61                     62                     63
                      A                      A                      A
 Frequencies --   3042.1025              3044.6426              3045.9276
 Red. masses --      1.0469                 1.0388                 1.0377
 Frc consts  --      5.7085                 5.6734                 5.6721
 IR Inten    --     32.9115                20.2201                16.6022

                     64                     65                     66
                      A                      A                      A
 Frequencies --   3055.6552              3057.3300              3083.5470
 Red. masses --      1.0479                 1.0652                 1.0973
 Frc consts  --      5.7645                 5.8662                 6.1472
 IR Inten    --     40.0330                34.2243                15.9843

                     67                     68                     69
                      A                      A                      A
 Frequencies --   3084.6403              3090.2163              3110.8387
 Red. masses --      1.0951                 1.0993                 1.1021
 Frc consts  --      6.1391                 6.1850                 6.2838
 IR Inten    --      7.1330                24.1558                46.2788

                     70                     71                     72
                      A                      A                      A
 Frequencies --   3113.5330              3116.4768              3122.3941
 Red. masses --      1.1025                 1.1013                 1.1015
 Frc consts  --      6.2973                 6.3022                 6.3272
 IR Inten    --     27.5948                50.9508                18.3850

                     73                     74                     75
                      A                      A                      A
 Frequencies --   3129.4933              3136.8716              3154.9118
 Red. masses --      1.1017                 1.1021                 1.0999
 Frc consts  --      6.3571                 6.3894                 6.4502
 IR Inten    --     42.4722                30.2084                11.7769

 - Thermochemistry -
 -------------------
 Temperature   298.150 Kelvin.  Pressure   1.00000 Atm.
 Atom     1 has atomic number  6 and mass  12.00000

 Molecular mass:   139.13610 amu.
 Principal axes and moments of inertia in atomic units:
                           1         2         3
     Eigenvalues --  1210.207461526.512092191.87571
           X            0.99996  -0.00320   0.00788
           Y            0.00319   0.99999   0.00127
           Z           -0.00789  -0.00124   0.99997
 This molecule is an asymmetric top.
 Rotational symmetry number  1.
 Warning -- assumption of classical behavior for rotation
           may cause significant error
 Rotational temperatures (Kelvin)      0.07157     0.05674     0.03952
 Rotational constants (GHZ):           1.49127     1.18226     0.82338
 Zero-point vibrational energy     648840.1 (Joules/Mol)
                                  155.07651 (Kcal/Mol)
 Warning -- explicit consideration of  17 degrees of freedom as
           vibrations may cause significant error
 Vibrational temperatures:     98.34   177.02   189.94   250.66   293.27
          (Kelvin)            336.35   364.62   381.15   431.33   451.16
                              492.69   515.55   551.46   620.63   699.07
                              803.99   862.06   921.84  1130.96  1188.50
                             1231.87  1261.74  1288.59  1364.72  1386.78
                             1401.82  1412.02  1474.74  1497.88  1513.24
                             1546.48  1597.12  1642.07  1720.07  1722.76
                             1773.25  1792.99  1830.79  1876.94  1899.57
                             1951.24  1971.31  2027.61  2047.36  2061.56
                             2076.21  2077.35  2163.76  2165.89  2171.89
                             2174.83  2180.92  2193.42  2199.82  2204.08
                             2211.34  2221.20  2501.42  4363.86  4371.11
                             4376.91  4380.56  4382.41  4396.41  4398.82
                             4436.54  4438.11  4446.13  4475.80  4479.68
                             4483.92  4492.43  4502.64  4513.26  4539.21

 Zero-point correction=                           0.247130 (Hartree/Particle)
 Thermal correction to Energy=                    0.258470
 Thermal correction to Enthalpy=                  0.259415
 Thermal correction to Gibbs Free Energy=         0.211168
 Sum of electronic and zero-point Energies=           -407.751716
 Sum of electronic and thermal Energies=              -407.740375
 Sum of electronic and thermal Enthalpies=            -407.739431
 Sum of electronic and thermal Free Energies=         -407.787677

                     E (Thermal)             CV                S
                      KCal/Mol        Cal/Mol-Kelvin    Cal/Mol-Kelvin
 Total                  162.193             43.577            101.543
 Electronic               0.000              0.000              0.000
 Translational            0.889              2.981             40.703
 Rotational               0.889              2.981             29.783
 Vibrational            160.415             37.615             31.057
 Vibration     1          0.598              1.969              4.200
 Vibration     2          0.610              1.930              3.052
 Vibration     3          0.612              1.921              2.917
 Vibration     4          0.627              1.874              2.390
 Vibration     5          0.640              1.834              2.098
 Vibration     6          0.654              1.789              1.850
 Vibration     7          0.665              1.757              1.707
 Vibration     8          0.671              1.737              1.629
 Vibration     9          0.692              1.674              1.418
 Vibration    10          0.701              1.648              1.343
 Vibration    11          0.722              1.591              1.201
 Vibration    12          0.733              1.558              1.129
 Vibration    13          0.752              1.506              1.026
 Vibration    14          0.792              1.402              0.854
 Vibration    15          0.842              1.281              0.694
 Vibration    16          0.914              1.120              0.526
 Vibration    17          0.957              1.034              0.451

                           ! Non-Optimized Parameters !

 1\1\GINC-NODE310\Freq\RB3LYP\6-31G(d)\C9H17N1\VSC10255\08-Dec-2020\0\\
 #N Geom=AllCheck Guess=TCheck SCRF=Check GenChk RB3LYP/6-31G(d) Freq\\
 CID_147051147_JID_651_neutraal\\0,1\C,0.9876911411,0.0912028472,-0.163
 6820818\C,0.221093577,-0.9875115878,-0.934895465\C,1.1318513239,-2.083
 0512069,-1.5105058492\C,1.7192932552,-2.9750923901,-0.3945419331\C,0.8
 331637538,-4.2046194968,-0.4723471329\N,0.119580639,-4.2991021523,-1.5
 264722533\C,0.4016523401,-3.1443617349,-2.4138938938\C,-0.9123928473,-
 2.6800603835,-3.0464127479\C,1.3517596458,-3.6418664786,-3.5170787476\

 Normal termination of Gaussian 16 at Tue Dec  8 12:25:36 2020.

 ----------------------------------------------------------------------
 # B3LYP/6-311++G(d,p) empiricaldispersion=gd3bj scf=xqc pop=npa geom=c
 heck
 ----------------------------------------------------------------------

 --------------------------------------
 CID_147051147_JID_651_Energie_neutraal
 --------------------------------------
 Structure from the checkpoint file:  "JID_651.chk"
 Charge =  0 Multiplicity = 1

 SCF Done:  E(RB3LYP) =  -408.110477985     A.U. after   13 cycles
 Normal termination of Gaussian 16 at Tue Dec  8 12:28:01 2020.

 ----------------------------------------------------------------------
 # B3LYP/6-311++G(d,p) empiricaldispersion=gd3bj scf=xqc pop=npa geom=c
 heck
 ----------------------------------------------------------------------

 ------------------------------------
 CID_147051147_JID_651_Energie_kation
 ------------------------------------
 Structure from the checkpoint file:  "JID_651.chk"
 Charge =  1 Multiplicity = 2

 SCF Done:  E(UB3LYP) =  -407.781483573     A.U. after   23 cycles
 Normal termination of Gaussian 16 at Tue Dec  8 12:40:20 2020.
 Gaussian 16:  ES64L-G16RevA.03 25-Dec-2016

 -----------------------------------
 CID_147051147_JID_651_Energie_anion
 -----------------------------------
 Structure from the checkpoint file:  "JID_651.chk"
 Charge = -1 Multiplicity = 2

                         Standard orientation:
 ---------------------------------------------------------------------
 Center     Atomic      Atomic             Coordinates (Angstroms)
 Number     Number       Type             X           Y           Z
 ---------------------------------------------------------------------
      1          6           0       -2.971809   -1.157408    0.070475
      2          6           0       -1.889866   -0.233457   -0.496783
      3          6           0       -0.763135    0.065577    0.504251
      4          6           0        0.112869   -1.180861    0.759618
      5          6           0        1.326404   -0.898105   -0.106637
      6          7           0        1.432487    0.303289   -0.524616
      7          6           0        0.305328    1.108005    0.006846
      8          6           0       -0.169038    2.068591   -1.086141
      9          6           0        0.847876    1.917163    1.197702
     10          6           0        2.340443   -1.955705   -0.420173
     11          1           0       -2.569321   -2.134028    0.362080
     12          1           0       -3.763429   -1.334572   -0.665999
     13          1           0       -3.435735   -0.714093    0.960176
     14          1           0       -1.461456   -0.675934   -1.406892
     15          1           0       -2.362548    0.705566   -0.805256
     16          1           0       -1.223041    0.423782    1.433384
     17          1           0        0.419919   -1.278636    1.810249
     18          1           0       -0.376152   -2.124938    0.493057
     19          1           0       -1.012844    2.676909   -0.740862
     20          1           0        0.649902    2.741241   -1.359595
     21          1           0       -0.473912    1.531296   -1.988480
     22          1           0        1.160217    1.254897    2.013189
     23          1           0        1.717089    2.507307    0.890571
     24          1           0        0.081579    2.599123    1.584074
     25          1           0        2.774978   -2.360718    0.503241
     26          1           0        1.872893   -2.798598   -0.945377
     27          1           0        3.140010   -1.544427   -1.040200
 ---------------------------------------------------------------------

 SCF Done:  E(UB3LYP) =  -408.094105114     A.U. after   31 cycles

 The electronic state is 2-A.
 Alpha  occ. eigenvalues --  -14.18458 -10.10364 -10.09656 -10.06536 -10.06203
 Alpha  occ. eigenvalues --  -10.06193 -10.05777 -10.05268 -10.05232 -10.05067
 Alpha  occ. eigenvalues --   -0.83114  -0.69616  -0.67442  -0.62442  -0.61273
 Alpha  occ. eigenvalues --   -0.58233  -0.54119  -0.49023  -0.44979  -0.40721
 Alpha  occ. eigenvalues --   -0.37092  -0.36447  -0.34215  -0.33156  -0.31871
 Alpha  occ. eigenvalues --   -0.31174  -0.30389  -0.29728  -0.28451  -0.27900
 Alpha  occ. eigenvalues --   -0.25992  -0.25233  -0.25045  -0.24698  -0.22012
 Alpha  occ. eigenvalues --   -0.21795  -0.20800  -0.16607  -0.14930   0.04739
 Alpha virt. eigenvalues --    0.07171   0.07444   0.08219   0.09665   0.09730
 Alpha virt. eigenvalues --    0.10070   0.10366   0.10892   0.11234   0.12426
 Alpha virt. eigenvalues --    0.12548   0.13145   0.13182   0.13560   0.14454

  Beta  occ. eigenvalues --  -14.18448 -10.10364 -10.09654 -10.06525 -10.06163
  Beta  occ. eigenvalues --  -10.06159 -10.05760 -10.05244 -10.05219 -10.05028
  Beta  occ. eigenvalues --   -0.83099  -0.69589  -0.67411  -0.62392  -0.61222
  Beta  occ. eigenvalues --   -0.58192  -0.54047  -0.48953  -0.44928  -0.40684
  Beta  occ. eigenvalues --   -0.37038  -0.36408  -0.34183  -0.33117  -0.31837
  Beta  occ. eigenvalues --   -0.31133  -0.30351  -0.29691  -0.28417  -0.27862
  Beta  occ. eigenvalues --   -0.25939  -0.25198  -0.25014  -0.24665  -0.21980
  Beta  occ. eigenvalues --   -0.21756  -0.20770  -0.16579  -0.14914
  Beta virt. eigenvalues --    0.07049   0.08095   0.08175   0.08714   0.10134
  Beta virt. eigenvalues --    0.10356   0.10582   0.10733   0.11400   0.11543
  Beta virt. eigenvalues --    0.12790   0.12975   0.13435   0.13646   0.13998

 Mulliken charges and spin densities:
               1          2
     1  C    1.279997  -1.909070
     2  C   -1.353930   0.848601
     3  C   -0.745087   1.328702
     4  C    2.138557  -2.849704
     5  C   -1.980663   2.144049
     6  N    0.029365   0.083013
     7  C   -0.915261   0.771185
     8  C   -0.027099  -0.349349
     9  C    0.976978  -1.557239
    10  C    1.990228  -2.548050
    11  H   -0.306447   0.432746
    12  H   -0.383760   0.517662
    13  H   -0.366004   0.501873
    14  H   -0.071305   0.233824
    15  H    0.038719   0.102988
    16  H   -0.005885   0.249197
    17  H   -0.323872   0.513298
    18  H    0.198948  -0.037438
    19  H   -0.118319   0.262857
    20  H    0.093376   0.051548
    21  H   -0.051306   0.204485
    22  H   -0.186323   0.344051
    23  H    0.060219   0.088212
    24  H   -0.254688   0.385193
    25  H   -0.306944   0.471039
    26  H   -0.305914   0.464312
    27  H   -0.103580   0.252017
 Sum of Mulliken charges =  -1.00000   1.00000

 Dipole moment (field-independent basis, Debye):
    X=              1.2193    Y=              2.7361    Z=             -1.6694  Tot=              3.4293
 Quadrupole moment (field-independent basis, Debye-Ang):
   XX=           -120.2771   YY=           -109.9828   ZZ=           -101.1171
   XY=              1.1431   XZ=             -0.2103   YZ=             -0.6209

 Summary of Natural Population Analysis:

                                       Natural Population
                Natural  -----------------------------------------------
    Atom  No    Charge         Core      Valence    Rydberg      Total
 -----------------------------------------------------------------------
      C    1   -0.28119      0.99967     2.27713    0.00439     3.28119
      C    2   -0.19115      0.99962     2.18200    0.00953     3.19115
      C    3   -0.10909      0.99956     2.09686    0.01267     3.10909
      C    4   -0.22533      0.99958     2.21597    0.00979     3.22533
      C    5    0.15288      0.99958     1.83178    0.01576     2.84712
      N    6   -0.24636      0.99967     2.73559    0.01111     3.74636
      C    7    0.04777      0.99956     1.93653    0.01614     2.95223
      C    8   -0.28692      0.99961     2.28107    0.00623     3.28692
      C    9   -0.28556      0.99961     2.27858    0.00737     3.28556
      C   10   -0.30686      0.99962     2.30119    0.00605     3.30686
      H   11    0.09635      0.00000     0.40209    0.00156     0.40365
      H   12    0.09844      0.00000     0.40029    0.00127     0.40156
      H   13    0.09610      0.00000     0.40230    0.00160     0.40390
      H   14    0.09479      0.00000     0.40368    0.00153     0.40521
      H   15    0.09843      0.00000     0.40018    0.00139     0.40157
      H   16    0.10071      0.00000     0.39757    0.00173     0.39929
      H   17    0.11199      0.00000     0.38604    0.00197     0.38801
      H   18    0.10764      0.00000     0.39088    0.00149     0.39236
      H   19    0.09904      0.00000     0.39994    0.00102     0.40096
      H   20    0.10169      0.00000     0.39735    0.00096     0.39831
      H   21    0.10280      0.00000     0.39624    0.00097     0.39720
      H   22    0.10145      0.00000     0.39737    0.00118     0.39855
      H   23    0.10079      0.00000     0.39829    0.00092     0.39921
      H   24    0.09907      0.00000     0.39981    0.00113     0.40093
      H   25    0.10814      0.00000     0.39012    0.00175     0.39186
      H   26    0.10668      0.00000     0.39186    0.00146     0.39332
      H   27    0.10771      0.00000     0.39114    0.00116     0.39229
 =======================================================================
   * Total *   -0.00000      9.99607    28.88183    0.12211    39.00000

 Normal termination of Gaussian 16 at Tue Dec  8 12:50:22 2020.
