 Gaussian 16, Revision A.03,

 -----------------------------------------------------------
 # opt freq B3LYP/6-31G(d) empiricaldispersion=gd3bj scf=xqc
 -----------------------------------------------------------

 -------------------------------
 CID_131559062_JID_5917_neutraal
 -------------------------------
 Symbolic Z-matrix:
 Charge =  0 Multiplicity = 1

 SCF Done:  E(RB3LYP) =  -667.703876745     A.U. after   15 cycles
 SCF Done:  E(RB3LYP) =  -667.708651570     A.U. after   12 cycles
 SCF Done:  E(RB3LYP) =  -667.709494944     A.U. after   12 cycles
 SCF Done:  E(RB3LYP) =  -667.709377141     A.U. after   12 cycles
 SCF Done:  E(RB3LYP) =  -667.709674842     A.U. after   11 cycles
 SCF Done:  E(RB3LYP) =  -667.709732123     A.U. after   11 cycles
 SCF Done:  E(RB3LYP) =  -667.709736146     A.U. after    9 cycles
 SCF Done:  E(RB3LYP) =  -667.709736909     A.U. after    8 cycles
 SCF Done:  E(RB3LYP) =  -667.709737087     A.U. after    7 cycles
 Optimization completed.
    -- Stationary point found.
 Normal termination of Gaussian 16 at Thu Dec 10 17:29:24 2020.

 --------------------------------------------------------------------
 #N Geom=AllCheck Guess=TCheck SCRF=Check GenChk RB3LYP/6-31G(d) Freq
 --------------------------------------------------------------------

 Structure from the checkpoint file:  "JID_5917.chk"
 -------------------------------
 CID_131559062_JID_5917_neutraal
 -------------------------------
 Charge =  0 Multiplicity = 1

 SCF Done:  E(RB3LYP) =  -667.709737087     A.U. after    1 cycles

  Exact polarizability: 176.135  -9.419 145.519 -13.970 -12.419  92.240
 Approx polarizability: 258.242 -36.130 260.846 -33.179 -24.824 139.259

                      1                      2                      3
                      A                      A                      A
 Frequencies --     40.8515                52.3121                97.6715
 Red. masses --      4.1645                 3.8040                 3.5649
 Frc consts  --      0.0041                 0.0061                 0.0200
 IR Inten    --      1.5152                 0.5607                 1.6014

                      4                      5                      6
                      A                      A                      A
 Frequencies --    114.6006               123.2496               147.9664
 Red. masses --      1.0870                 2.0621                 4.0266
 Frc consts  --      0.0084                 0.0185                 0.0519
 IR Inten    --      0.5032                 0.6036                 0.8322

                      7                      8                      9
                      A                      A                      A
 Frequencies --    178.8797               205.9725               232.6875
 Red. masses --      2.6673                 3.2957                 3.1707
 Frc consts  --      0.0503                 0.0824                 0.1011
 IR Inten    --      1.1697                 0.4944                 0.1935

                     10                     11                     12
                      A                      A                      A
 Frequencies --    259.2884               264.3874               285.9222
 Red. masses --      2.7768                 1.6995                 3.0726
 Frc consts  --      0.1100                 0.0700                 0.1480
 IR Inten    --      3.2548                 4.9018                 2.5453

                     13                     14                     15
                      A                      A                      A
 Frequencies --    321.1343               346.6962               408.0897
 Red. masses --      6.1232                 4.0299                 2.9401
 Frc consts  --      0.3721                 0.2854                 0.2885
 IR Inten    --      3.3792                 3.1013                 2.6681

                     16                     17                     18
                      A                      A                      A
 Frequencies --    527.5586               535.9126               543.3804
 Red. masses --      3.3922                 5.1941                 3.6941
 Frc consts  --      0.5563                 0.8789                 0.6426
 IR Inten    --      0.5846                 2.9885                 0.4606

                     19                     20                     21
                      A                      A                      A
 Frequencies --    591.3333               598.3281               611.6540
 Red. masses --      3.3545                 3.4706                 1.4343
 Frc consts  --      0.6911                 0.7320                 0.3161
 IR Inten    --      3.7276                12.8210                60.9688

                     22                     23                     24
                      A                      A                      A
 Frequencies --    637.4443               666.6787               713.0155
 Red. masses --      4.7277                 3.9604                 4.5595
 Frc consts  --      1.1318                 1.0371                 1.3657
 IR Inten    --      1.9300                17.4400                 3.4989

                     25                     26                     27
                      A                      A                      A
 Frequencies --    729.0039               765.3281               777.3666
 Red. masses --      2.1678                 2.4466                 1.7645
 Frc consts  --      0.6788                 0.8443                 0.6282
 IR Inten    --     18.3323                15.3458                11.3975

                     28                     29                     30
                      A                      A                      A
 Frequencies --    789.3936               854.7399               881.6415
 Red. masses --      1.7472                 1.4239                 1.5235
 Frc consts  --      0.6415                 0.6129                 0.6977
 IR Inten    --     44.0736                48.1839                 3.5117

                     31                     32                     33
                      A                      A                      A
 Frequencies --    899.4027               913.2683               922.9299
 Red. masses --      3.9862                 2.0036                 1.2750
 Frc consts  --      1.8999                 0.9846                 0.6399
 IR Inten    --     15.1118                16.9014                 0.8610

                     34                     35                     36
                      A                      A                      A
 Frequencies --    960.8338               997.1342              1006.3161
 Red. masses --      2.5841                 2.1847                 1.7095
 Frc consts  --      1.4056                 1.2798                 1.0200
 IR Inten    --     14.9481                 4.1364                10.7051

                     37                     38                     39
                      A                      A                      A
 Frequencies --   1036.2826              1053.8567              1068.5058
 Red. masses --      2.4569                 1.3822                 1.5439
 Frc consts  --      1.5545                 0.9045                 1.0385
 IR Inten    --     15.3008                22.0364                 2.4841

                     40                     41                     42
                      A                      A                      A
 Frequencies --   1101.7648              1126.9249              1149.2662
 Red. masses --      2.3938                 2.1529                 2.3518
 Frc consts  --      1.7120                 1.6109                 1.8302
 IR Inten    --     64.8038                10.1038                 5.7400

                     43                     44                     45
                      A                      A                      A
 Frequencies --   1155.8078              1175.2539              1186.7332
 Red. masses --      2.2998                 1.8043                 1.7137
 Frc consts  --      1.8102                 1.4683                 1.4220
 IR Inten    --     22.6628                43.3695                13.3013

                     46                     47                     48
                      A                      A                      A
 Frequencies --   1237.8401              1265.4260              1276.0534
 Red. masses --      1.5209                 1.5131                 1.3730
 Frc consts  --      1.3730                 1.4275                 1.3172
 IR Inten    --      1.5845                 3.6432                29.8226

                     49                     50                     51
                      A                      A                      A
 Frequencies --   1313.5273              1321.0837              1349.2065
 Red. masses --      2.3791                 1.8648                 2.8968
 Frc consts  --      2.4185                 1.9175                 3.1069
 IR Inten    --     14.1458                16.6538                12.1513

                     52                     53                     54
                      A                      A                      A
 Frequencies --   1376.5188              1394.4017              1399.8675
 Red. masses --      1.9499                 1.3529                 2.4145
 Frc consts  --      2.1769                 1.5498                 2.7877
 IR Inten    --     75.5710                 9.2105                29.0971

                     55                     56                     57
                      A                      A                      A
 Frequencies --   1435.0936              1440.5247              1467.0045
 Red. masses --      1.6965                 2.7584                 1.2160
 Frc consts  --      2.0586                 3.3724                 1.5419
 IR Inten    --     30.3593                14.1253               114.9925

                     58                     59                     60
                      A                      A                      A
 Frequencies --   1485.8191              1490.9025              1496.4691
 Red. masses --      1.1824                 1.7682                 2.3084
 Frc consts  --      1.5380                 2.3156                 3.0458
 IR Inten    --      7.1954                 6.8197                 1.0448

                     61                     62                     63
                      A                      A                      A
 Frequencies --   1506.8391              1508.9351              1521.1623
 Red. masses --      1.2330                 1.0450                 1.0540
 Frc consts  --      1.6495                 1.4019                 1.4370
 IR Inten    --     33.6519                 7.5024                18.9208

                     64                     65                     66
                      A                      A                      A
 Frequencies --   1533.8803              1537.3648              1545.3811
 Red. masses --      2.3554                 1.2516                 1.0518
 Frc consts  --      3.2652                 1.7428                 1.4800
 IR Inten    --      5.3483                20.1813                11.0064

                     67                     68                     69
                      A                      A                      A
 Frequencies --   1555.5635              1572.1507              1667.0021
 Red. masses --      4.0011                 5.2357                 5.7670
 Frc consts  --      5.7044                 7.6245                 9.4422
 IR Inten    --     21.6022                16.7826                18.2491

                     70                     71                     72
                      A                      A                      A
 Frequencies --   2979.4962              2984.1880              3029.5148
 Red. masses --      1.0615                 1.0657                 1.0851
 Frc consts  --      5.5523                 5.5914                 5.8677
 IR Inten    --     41.1611                90.1828                35.7897

                     73                     74                     75
                      A                      A                      A
 Frequencies --   3048.8608              3083.9477              3085.4415
 Red. masses --      1.0387                 1.0906                 1.0780
 Frc consts  --      5.6889                 6.1115                 6.0466
 IR Inten    --     16.3765                21.8833                58.2084

                     76                     77                     78
                      A                      A                      A
 Frequencies --   3100.3753              3129.0577              3165.0611
 Red. masses --      1.1003                 1.1035                 1.1000
 Frc consts  --      6.2312                 6.3659                 6.4921
 IR Inten    --     15.1816                25.7785                 7.7539

                     79                     80                     81
                      A                      A                      A
 Frequencies --   3206.7471              3256.8027              3266.6757
 Red. masses --      1.0899                 1.0948                 1.0911
 Frc consts  --      6.6033                 6.8420                 6.8604
 IR Inten    --     18.2603                 7.3630                 2.5858

                     82                     83                     84
                      A                      A                      A
 Frequencies --   3280.8751              3489.5705              3569.0738
 Red. masses --      1.1001                 1.0737                 1.0647
 Frc consts  --      6.9770                 7.7034                 7.9911
 IR Inten    --      1.3866                 1.1120               129.0382

 - Thermochemistry -
 -------------------
 Temperature   298.150 Kelvin.  Pressure   1.00000 Atm.
 Atom     1 has atomic number  6 and mass  12.00000

 Molecular mass:   205.12151 amu.
 Principal axes and moments of inertia in atomic units:
                           1         2         3
     Eigenvalues --  1593.906805016.292775389.86760
           X            0.99972   0.02244   0.00724
           Y           -0.02210   0.99878  -0.04425
           Z           -0.00823   0.04407   0.99899
 This molecule is an asymmetric top.
 Rotational symmetry number  1.
 Warning -- assumption of classical behavior for rotation
           may cause significant error
 Rotational temperatures (Kelvin)      0.05434     0.01727     0.01607
 Rotational constants (GHZ):           1.13228     0.35978     0.33484
 Zero-point vibrational energy     666502.3 (Joules/Mol)
                                  159.29786 (Kcal/Mol)
 Warning -- explicit consideration of  21 degrees of freedom as
           vibrations may cause significant error
 Vibrational temperatures:     58.78    75.27   140.53   164.88   177.33
          (Kelvin)            212.89   257.37   296.35   334.79   373.06
                              380.39   411.38   462.04   498.82   587.15
                              759.04   771.06   781.80   850.80   860.86
                              880.03   917.14   959.20  1025.87  1048.87
                             1101.14  1118.46  1135.76  1229.78  1268.49
                             1294.04  1313.99  1327.89  1382.43  1434.65
                             1447.86  1490.98  1516.26  1537.34  1585.19
                             1621.39  1653.54  1662.95  1690.93  1707.44
                             1780.98  1820.67  1835.96  1889.87  1900.74
                             1941.21  1980.50  2006.23  2014.10  2064.78
                             2072.59  2110.69  2137.76  2145.08  2153.09
                             2168.01  2171.02  2188.61  2206.91  2211.93
                             2223.46  2238.11  2261.97  2398.44  4286.83
                             4293.58  4358.80  4386.63  4437.11  4439.26
                             4460.75  4502.02  4553.82  4613.79  4685.81
                             4700.02  4720.45  5020.71  5135.10

 Zero-point correction=                           0.253857 (Hartree/Particle)
 Thermal correction to Energy=                    0.267833
 Thermal correction to Enthalpy=                  0.268777
 Thermal correction to Gibbs Free Energy=         0.212776
 Sum of electronic and zero-point Energies=           -667.455880
 Sum of electronic and thermal Energies=              -667.441904
 Sum of electronic and thermal Enthalpies=            -667.440960
 Sum of electronic and thermal Free Energies=         -667.496961

                     E (Thermal)             CV                S
                      KCal/Mol        Cal/Mol-Kelvin    Cal/Mol-Kelvin
 Total                  168.068             53.535            117.864
 Electronic               0.000              0.000              0.000
 Translational            0.889              2.981             41.860
 Rotational               0.889              2.981             32.133
 Vibrational            166.290             47.573             43.872
 Vibration     1          0.594              1.981              5.217
 Vibration     2          0.596              1.977              4.728
 Vibration     3          0.603              1.951              3.500
 Vibration     4          0.608              1.937              3.189
 Vibration     5          0.610              1.930              3.049
 Vibration     6          0.617              1.905              2.698
 Vibration     7          0.629              1.868              2.340
 Vibration     8          0.640              1.831              2.079
 Vibration     9          0.653              1.791              1.858
 Vibration    10          0.668              1.747              1.667
 Vibration    11          0.671              1.738              1.633
 Vibration    12          0.684              1.700              1.498
 Vibration    13          0.707              1.633              1.304
 Vibration    14          0.725              1.582              1.181
 Vibration    15          0.773              1.453              0.933
 Vibration    16          0.883              1.189              0.593
 Vibration    17          0.891              1.171              0.574
 Vibration    18          0.899              1.154              0.558
 Vibration    19          0.949              1.050              0.465
 Vibration    20          0.956              1.035              0.453
 Vibration    21          0.971              1.007              0.430

                           ! Non-Optimized Parameters !
 Normal termination of Gaussian 16 at Thu Dec 10 17:39:29 2020.

 ----------------------------------------------------------------------
 # B3LYP/6-311++G(d,p) empiricaldispersion=gd3bj scf=xqc pop=npa geom=c
 heck
 ----------------------------------------------------------------------

 ---------------------------------------
 CID_131559062_JID_5917_Energie_neutraal
 ---------------------------------------
 Structure from the checkpoint file:  "JID_5917.chk"
 Charge =  0 Multiplicity = 1

 SCF Done:  E(RB3LYP) =  -667.899581353     A.U. after   15 cycles
 Normal termination of Gaussian 16 at Thu Dec 10 17:44:28 2020.

 ----------------------------------------------------------------------
 # B3LYP/6-311++G(d,p) empiricaldispersion=gd3bj scf=xqc pop=npa geom=c
 heck
 ----------------------------------------------------------------------

 -------------------------------------
 CID_131559062_JID_5917_Energie_kation
 -------------------------------------
 Structure from the checkpoint file:  "JID_5917.chk"
 Charge =  1 Multiplicity = 2

 SCF Done:  E(UB3LYP) =  -667.624817002     A.U. after   23 cycles
 Normal termination of Gaussian 16 at Thu Dec 10 17:54:21 2020.
 Gaussian 16:  ES64L-G16RevA.03 25-Dec-2016

 ----------------------------------------------------------------------
 # B3LYP/6-311++G(d,p) empiricaldispersion=gd3bj scf=xqc pop=npa geom=c
 heck
 ----------------------------------------------------------------------

 ------------------------------------
 CID_131559062_JID_5917_Energie_anion
 ------------------------------------
 Structure from the checkpoint file:  "JID_5917.chk"
 Charge = -1 Multiplicity = 2

                         Standard orientation:
 ---------------------------------------------------------------------
 Center     Atomic      Atomic             Coordinates (Angstroms)
 Number     Number       Type             X           Y           Z
 ---------------------------------------------------------------------
      1          6           0       -4.022442   -0.820320    0.953825
      2          6           0       -2.916447    0.008308    0.361554
      3          7           0       -3.151983    1.280234    0.107890
      4          6           0       -2.134653    2.020065   -0.438991
      5          6           0       -0.897362    1.530216   -0.725922
      6          7           0       -0.639099    0.201419   -0.454770
      7          6           0       -1.661944   -0.605561    0.096372
      8          6           0       -1.133803   -1.887337    0.245545
      9          6           0        0.195872   -1.849335   -0.216917
     10          6           0        0.489983   -0.556403   -0.644817
     11          6           0        1.783495    0.011756   -1.171310
     12          6           0        2.481901    0.893193   -0.112732
     13          7           0        2.968245    0.013401    0.946781
     14          6           0        3.846320    0.670636    1.908346
     15          8           0        2.667116   -1.026471   -1.547879
     16          1           0       -4.905854   -0.195469    1.095887
     17          1           0       -3.721327   -1.244873    1.919384
     18          1           0       -4.277102   -1.660403    0.296125
     19          1           0       -2.358343    3.061999   -0.646235
     20          1           0       -0.100100    2.117030   -1.161677
     21          1           0       -1.664737   -2.743817    0.635252
     22          1           0        0.893356   -2.672778   -0.271566
     23          1           0        1.586679    0.618270   -2.066443
     24          1           0        3.350892    1.373057   -0.577738
     25          1           0        1.810950    1.691184    0.249259
     26          1           0        2.165956   -0.391203    1.427770
     27          1           0        3.392885    1.549770    2.398167
     28          1           0        4.136475   -0.045006    2.683748
     29          1           0        4.757046    1.003176    1.398379
     30          1           0        3.170630   -1.205842   -0.726307
 ---------------------------------------------------------------------

 SCF Done:  E(UB3LYP) =  -667.893949944     A.U. after   33 cycles
 SCF Done:  E(UB3LYP) =  -667.893949944     a.u. after    1 cycles

 The electronic state is 2-A.
 Alpha  occ. eigenvalues --  -19.01180 -14.25592 -14.20620 -14.16725 -10.12769
 Alpha  occ. eigenvalues --  -10.09403 -10.08726 -10.08232 -10.08165 -10.08124
 Alpha  occ. eigenvalues --  -10.07537 -10.07493 -10.05342 -10.04905 -10.04165
 Alpha  occ. eigenvalues --   -0.92394  -0.88892  -0.80804  -0.79730  -0.70533
 Alpha  occ. eigenvalues --   -0.66147  -0.64021  -0.60704  -0.59069  -0.56060
 Alpha  occ. eigenvalues --   -0.51905  -0.50821  -0.48082  -0.45730  -0.42255
 Alpha  occ. eigenvalues --   -0.40264  -0.38556  -0.37257  -0.35692  -0.35510
 Alpha  occ. eigenvalues --   -0.33894  -0.33658  -0.32528  -0.31488  -0.30546
 Alpha  occ. eigenvalues --   -0.30108  -0.29071  -0.27762  -0.27537  -0.27168
 Alpha  occ. eigenvalues --   -0.26073  -0.25191  -0.23681  -0.22272  -0.18474
 Alpha  occ. eigenvalues --   -0.17803  -0.14152  -0.13411  -0.12152  -0.08417
 Alpha  occ. eigenvalues --    0.04609
 Alpha virt. eigenvalues --    0.06390   0.07967   0.08046   0.09066   0.09330
 Alpha virt. eigenvalues --    0.10076   0.10683   0.10949   0.11388   0.11690
 Alpha virt. eigenvalues --    0.12286   0.12432   0.13006   0.13642   0.14540

  Beta  occ. eigenvalues --  -19.01174 -14.25388 -14.20600 -14.16544 -10.12767
  Beta  occ. eigenvalues --  -10.09375 -10.08678 -10.08228 -10.08138 -10.08031
  Beta  occ. eigenvalues --  -10.07525 -10.07203 -10.05369 -10.04887 -10.04084
  Beta  occ. eigenvalues --   -0.92377  -0.88589  -0.80769  -0.79319  -0.70285
  Beta  occ. eigenvalues --   -0.66064  -0.63790  -0.60600  -0.58885  -0.55974
  Beta  occ. eigenvalues --   -0.51762  -0.50688  -0.47881  -0.45548  -0.42123
  Beta  occ. eigenvalues --   -0.40168  -0.38477  -0.37186  -0.35592  -0.35350
  Beta  occ. eigenvalues --   -0.33833  -0.33067  -0.32405  -0.31347  -0.30246
  Beta  occ. eigenvalues --   -0.30023  -0.28951  -0.27719  -0.27469  -0.27103
  Beta  occ. eigenvalues --   -0.26020  -0.25051  -0.23392  -0.21742  -0.17793
  Beta  occ. eigenvalues --   -0.17515  -0.14098  -0.13167  -0.11605  -0.07670
  Beta virt. eigenvalues --    0.07163   0.08013   0.08216   0.09151   0.09324
  Beta virt. eigenvalues --    0.09512   0.10334   0.10949   0.11103   0.11520
  Beta virt. eigenvalues --    0.11846   0.12392   0.12619   0.13054   0.13802

 Mulliken charges and spin densities:
               1          2
     1  C   -0.677038  -0.085606
     2  C   -0.497348   0.196130
     3  N   -0.091341   0.086817
     4  C   -0.302103  -0.037170
     5  C    0.125480   0.126126
     6  N    0.388968   0.025389
     7  C    0.395178  -0.063523
     8  C   -0.304835   0.006214
     9  C   -0.133480   0.018930
    10  C    0.070978  -0.112095
    11  C   -1.015545   0.462155
    12  C    0.359638  -0.672993
    13  N   -0.441434   0.229113
    14  C    1.105426  -1.429157
    15  O   -0.168507  -0.010798
    16  H    0.152024   0.001221
    17  H    0.132310   0.004094
    18  H    0.084781   0.050612
    19  H    0.115173   0.045935
    20  H    0.083045   0.016908
    21  H    0.123614   0.016892
    22  H    0.116993   0.033048
    23  H    0.166920   0.056516
    24  H   -0.100296   0.272281
    25  H    0.010994   0.138162
    26  H    0.225281   0.029772
    27  H   -0.323309   0.459255
    28  H   -0.488752   0.623403
    29  H   -0.372754   0.512287
    30  H    0.259939   0.000083
 Sum of Mulliken charges =  -1.00000   1.00000

 Dipole moment (field-independent basis, Debye):
    X=             -2.7875    Y=             -1.8217    Z=             -2.2642  Tot=              4.0268
 Quadrupole moment (field-independent basis, Debye-Ang):
   XX=           -165.6535   YY=           -114.6342   ZZ=           -119.7792
   XY=              1.0168   XZ=            -11.0665   YZ=             -8.6215

 Summary of Natural Population Analysis:

                                       Natural Population
                Natural  -----------------------------------------------
    Atom  No    Charge         Core      Valence    Rydberg      Total
 -----------------------------------------------------------------------
      C    1   -0.30120      0.99965     2.29624    0.00531     3.30120
      C    2    0.16437      0.99954     1.82281    0.01329     2.83563
      N    3   -0.23497      0.99968     2.72216    0.01312     3.73497
      C    4   -0.02019      0.99958     2.00698    0.01363     3.02019
      C    5    0.01201      0.99955     1.97687    0.01156     2.98799
      N    6   -0.15423      0.99958     2.64585    0.00879     3.65423
      C    7    0.04104      0.99951     1.94949    0.00996     2.95896
      C    8   -0.13609      0.99954     2.12701    0.00955     3.13609
      C    9   -0.12680      0.99953     2.11846    0.00881     3.12680
      C   10    0.04514      0.99952     1.94023    0.01512     2.95486
      C   11    0.05163      0.99953     1.93423    0.01461     2.94837
      C   12   -0.09480      0.99962     2.08417    0.01101     3.09480
      N   13   -0.35638      0.99974     2.84345    0.01318     3.85638
      C   14   -0.17466      0.99966     2.16661    0.00839     3.17466
      O   15   -0.37390      0.99990     3.36788    0.00612     4.37390
      H   16    0.10552      0.00000     0.39348    0.00100     0.39448
      H   17    0.10089      0.00000     0.39794    0.00118     0.39911
      H   18    0.10039      0.00000     0.39805    0.00156     0.39961
      H   19    0.08775      0.00000     0.41100    0.00125     0.41225
      H   20    0.09588      0.00000     0.40286    0.00126     0.40412
      H   21    0.10171      0.00000     0.39744    0.00085     0.39829
      H   22    0.10561      0.00000     0.39346    0.00093     0.39439
      H   23    0.08789      0.00000     0.41013    0.00198     0.41211
      H   24    0.09313      0.00000     0.40560    0.00127     0.40687
      H   25    0.09096      0.00000     0.40747    0.00157     0.40904
      H   26    0.18109      0.00000     0.31559    0.00332     0.31891
      H   27    0.08286      0.00000     0.41516    0.00198     0.41714
      H   28    0.09598      0.00000     0.40248    0.00155     0.40402
      H   29    0.09167      0.00000     0.40647    0.00186     0.40833
      H   30    0.23770      0.00000     0.25896    0.00334     0.26230
 =======================================================================
   * Total *   -0.00000     14.99414    39.81853    0.18734    55.00000

 Normal termination of Gaussian 16 at Thu Dec 10 18:08:22 2020.
