 Gaussian 16, Revision A.03,

 -----------------------------------------------------------
 # opt freq B3LYP/6-31G(d) empiricaldispersion=gd3bj scf=xqc
 -----------------------------------------------------------

 ------------------------------
 CID_82922716_JID_6277_neutraal
 ------------------------------
 Symbolic Z-matrix:
 Charge =  0 Multiplicity = 1

 SCF Done:  E(RB3LYP) =  -690.792436111     A.U. after   14 cycles
 SCF Done:  E(RB3LYP) =  -690.793952048     A.U. after   12 cycles
 SCF Done:  E(RB3LYP) =  -690.792612509     A.U. after   13 cycles
 SCF Done:  E(RB3LYP) =  -690.794090539     A.U. after   12 cycles
 SCF Done:  E(RB3LYP) =  -690.795194926     A.U. after   12 cycles
 SCF Done:  E(RB3LYP) =  -690.795530572     A.U. after   11 cycles
 SCF Done:  E(RB3LYP) =  -690.795600109     A.U. after   11 cycles
 SCF Done:  E(RB3LYP) =  -690.795641073     A.U. after   10 cycles
 SCF Done:  E(RB3LYP) =  -690.795648432     A.U. after   10 cycles
 SCF Done:  E(RB3LYP) =  -690.795654929     A.U. after    9 cycles
 SCF Done:  E(RB3LYP) =  -690.795654726     A.U. after    8 cycles
 SCF Done:  E(RB3LYP) =  -690.795654952     A.U. after    7 cycles
 SCF Done:  E(RB3LYP) =  -690.795655466     A.U. after    7 cycles
 SCF Done:  E(RB3LYP) =  -690.795655518     A.U. after    7 cycles
 Optimization completed.
    -- Stationary point found.
 Normal termination of Gaussian 16 at Thu Dec 10 22:01:27 2020.

 --------------------------------------------------------------------
 #N Geom=AllCheck Guess=TCheck SCRF=Check GenChk RB3LYP/6-31G(d) Freq
 --------------------------------------------------------------------

 Structure from the checkpoint file:  "JID_6277.chk"
 ------------------------------
 CID_82922716_JID_6277_neutraal
 ------------------------------
 Charge =  0 Multiplicity = 1

 SCF Done:  E(RB3LYP) =  -690.795655518     A.U. after    1 cycles

  Exact polarizability: 169.612  -2.509 136.785   4.678  -5.118 132.782
 Approx polarizability: 226.858  -2.293 183.273  -0.207 -14.860 216.270

                      1                      2                      3
                      A                      A                      A
 Frequencies --     15.6872                30.1590                46.2999
 Red. masses --      3.3442                 3.1347                 5.2177
 Frc consts  --      0.0005                 0.0017                 0.0066
 IR Inten    --      0.2852                 0.1186                 1.7317

                      4                      5                      6
                      A                      A                      A
 Frequencies --     63.5646                77.0305                85.0049
 Red. masses --      3.2217                 3.4945                 1.7360
 Frc consts  --      0.0077                 0.0122                 0.0074
 IR Inten    --      0.6395                 1.2671                 0.0760

                      7                      8                      9
                      A                      A                      A
 Frequencies --     93.1081               118.8201               144.3683
 Red. masses --      2.8988                 2.8965                 2.3290
 Frc consts  --      0.0148                 0.0241                 0.0286
 IR Inten    --      0.0511                 0.9588                 1.5345

                     10                     11                     12
                      A                      A                      A
 Frequencies --    160.9491               185.4059               212.6978
 Red. masses --      2.5600                 1.8344                 1.3734
 Frc consts  --      0.0391                 0.0372                 0.0366
 IR Inten    --      1.4475                 1.2825                 0.4290

                     13                     14                     15
                      A                      A                      A
 Frequencies --    228.1512               241.8038               273.3272
 Red. masses --      1.6195                 1.4960                 3.5828
 Frc consts  --      0.0497                 0.0515                 0.1577
 IR Inten    --      0.2013                 0.8102                 0.2048

                     16                     17                     18
                      A                      A                      A
 Frequencies --    286.0545               301.1574               307.9928
 Red. masses --      2.5397                 1.8038                 2.7337
 Frc consts  --      0.1224                 0.0964                 0.1528
 IR Inten    --      2.1505                 1.1783                 0.5848

                     19                     20                     21
                      A                      A                      A
 Frequencies --    352.7405               366.2606               403.8934
 Red. masses --      2.8630                 2.5608                 2.3255
 Frc consts  --      0.2099                 0.2024                 0.2235
 IR Inten    --      0.0446                 0.3238                 0.0594

                     22                     23                     24
                      A                      A                      A
 Frequencies --    417.5003               504.4932               541.8610
 Red. masses --      2.2993                 2.5835                 1.5876
 Frc consts  --      0.2361                 0.3874                 0.2746
 IR Inten    --      0.7362                 8.1952                50.0556

                     25                     26                     27
                      A                      A                      A
 Frequencies --    554.3834               647.3431               680.7118
 Red. masses --      2.2004                 2.1925                 2.7314
 Frc consts  --      0.3984                 0.5413                 0.7457
 IR Inten    --     10.9834                28.0880                31.3820

                     28                     29                     30
                      A                      A                      A
 Frequencies --    693.1898               728.6198               751.8575
 Red. masses --      3.0691                 1.9548                 2.8829
 Frc consts  --      0.8689                 0.6114                 0.9602
 IR Inten    --     33.7278                60.9820                 4.5424

                     31                     32                     33
                      A                      A                      A
 Frequencies --    778.2966               789.1914               798.3428
 Red. masses --      1.2746                 1.2264                 1.2957
 Frc consts  --      0.4549                 0.4500                 0.4866
 IR Inten    --      9.5115                 3.3019                13.9058

                     34                     35                     36
                      A                      A                      A
 Frequencies --    839.7909               892.0613               894.7064
 Red. masses --      2.6680                 1.3835                 2.3482
 Frc consts  --      1.1086                 0.6487                 1.1075
 IR Inten    --      0.2194                 8.9331                 1.1855

                     37                     38                     39
                      A                      A                      A
 Frequencies --    904.4160               914.3469               932.3690
 Red. masses --      1.9931                 1.8531                 1.3458
 Frc consts  --      0.9605                 0.9128                 0.6893
 IR Inten    --      0.6943                 2.3543                 7.9830

                     40                     41                     42
                      A                      A                      A
 Frequencies --    965.0408               985.3764              1007.5554
 Red. masses --      2.3694                 7.4526                 1.7846
 Frc consts  --      1.3001                 4.2635                 1.0674
 IR Inten    --      5.7643                14.7711                 7.8986

                     43                     44                     45
                      A                      A                      A
 Frequencies --   1025.3627              1042.8830              1052.1103
 Red. masses --      1.9550                 1.3382                 2.7143
 Frc consts  --      1.2110                 0.8575                 1.7702
 IR Inten    --     15.8930                 2.7560                 3.1953

                     46                     47                     48
                      A                      A                      A
 Frequencies --   1059.5870              1069.0798              1083.9042
 Red. masses --      2.4808                 1.6566                 2.4839
 Frc consts  --      1.6410                 1.1155                 1.7193
 IR Inten    --     14.3153                 4.2561                 4.0531

                     49                     50                     51
                      A                      A                      A
 Frequencies --   1119.8202              1131.2124              1154.6247
 Red. masses --      3.2246                 2.4989                 2.1754
 Frc consts  --      2.3824                 1.8840                 1.7087
 IR Inten    --     18.1247                 3.4551                 3.3902

                     52                     53                     54
                      A                      A                      A
 Frequencies --   1162.5251              1171.5938              1189.9034
 Red. masses --      1.8805                 2.2982                 1.8567
 Frc consts  --      1.4973                 1.8586                 1.5488
 IR Inten    --     10.2842                18.2672                 0.7934

                     55                     56                     57
                      A                      A                      A
 Frequencies --   1200.4789              1216.9801              1241.7121
 Red. masses --      2.7422                 2.4513                 1.3879
 Frc consts  --      2.3284                 2.1391                 1.2608
 IR Inten    --     15.8927                31.0277                 5.0313

                     58                     59                     60
                      A                      A                      A
 Frequencies --   1257.0537              1285.2991              1296.7609
 Red. masses --      1.5071                 1.2450                 1.3188
 Frc consts  --      1.4031                 1.2118                 1.3066
 IR Inten    --      4.3216                 0.1157                 1.7379

                     61                     62                     63
                      A                      A                      A
 Frequencies --   1310.7242              1316.9196              1327.3848
 Red. masses --      2.1596                 1.4297                 1.1749
 Frc consts  --      2.1860                 1.4609                 1.2197
 IR Inten    --     17.7980                 7.2635                 0.0977

                     64                     65                     66
                      A                      A                      A
 Frequencies --   1335.4889              1346.9460              1369.8519
 Red. masses --      1.2540                 1.2932                 1.2864
 Frc consts  --      1.3178                 1.3824                 1.4222
 IR Inten    --      1.8276                 6.3065                16.6105

                     67                     68                     69
                      A                      A                      A
 Frequencies --   1387.4047              1393.3533              1398.4660
 Red. masses --      1.3483                 1.4083                 1.4427
 Frc consts  --      1.5291                 1.6109                 1.6624
 IR Inten    --      4.9234                 2.8936                 6.7836

                     70                     71                     72
                      A                      A                      A
 Frequencies --   1418.1134              1425.4227              1432.5296
 Red. masses --      1.3838                 1.4757                 1.5446
 Frc consts  --      1.6396                 1.7666                 1.8675
 IR Inten    --      1.2853                 1.7864                 3.8244

                     73                     74                     75
                      A                      A                      A
 Frequencies --   1434.5291              1443.5762              1446.4344
 Red. masses --      2.5502                 1.2579                 1.2861
 Frc consts  --      3.0920                 1.5444                 1.5854
 IR Inten    --      5.0597                 3.1641                 9.1994

                     76                     77                     78
                      A                      A                      A
 Frequencies --   1447.6734              1502.8334              1509.9689
 Red. masses --      1.2955                 2.3921                 1.0983
 Frc consts  --      1.5997                 3.1831                 1.4754
 IR Inten    --      7.2961                68.9385                 1.7519

                     79                     80                     81
                      A                      A                      A
 Frequencies --   1511.5716              1519.1836              1522.6023
 Red. masses --      1.0781                 1.0784                 1.2768
 Frc consts  --      1.4513                 1.4664                 1.7439
 IR Inten    --      1.6632                 1.5652                 6.9543

                     82                     83                     84
                      A                      A                      A
 Frequencies --   1529.3304              1531.3802              1532.5262
 Red. masses --      1.0540                 1.0571                 1.1068
 Frc consts  --      1.4525                 1.4607                 1.5316
 IR Inten    --      2.2319                10.2843                15.8199

                     85                     86                     87
                      A                      A                      A
 Frequencies --   1535.6771              1538.2680              1543.2107
 Red. masses --      1.0533                 1.0704                 1.0840
 Frc consts  --      1.4635                 1.4923                 1.5211
 IR Inten    --      8.2807                13.8227                10.0283

                     88                     89                     90
                      A                      A                      A
 Frequencies --   1547.3226              1551.2438              1598.2159
 Red. masses --      1.0999                 1.1037                 4.1703
 Frc consts  --      1.5516                 1.5649                 6.2760
 IR Inten    --      6.8271                10.4039                23.5243

                     91                     92                     93
                      A                      A                      A
 Frequencies --   2949.7675              2992.5492              3014.7767
 Red. masses --      1.0716                 1.0828                 1.0794
 Frc consts  --      5.4938                 5.7132                 5.7800
 IR Inten    --     66.3001                30.4312                11.3411

                     94                     95                     96
                      A                      A                      A
 Frequencies --   3031.0308              3037.7306              3038.2731
 Red. masses --      1.0618                 1.0771                 1.0746
 Frc consts  --      5.7476                 5.8562                 5.8444
 IR Inten    --     28.2542                 3.8966                46.3862

                     97                     98                     99
                      A                      A                      A
 Frequencies --   3042.9660              3044.9108              3048.2117
 Red. masses --      1.0380                 1.0379                 1.0558
 Frc consts  --      5.6630                 5.6696                 5.7802
 IR Inten    --     17.3624                28.9905                 9.2968

                    100                    101                    102
                      A                      A                      A
 Frequencies --   3051.6011              3054.1572              3064.3667
 Red. masses --      1.0711                 1.0484                 1.0978
 Frc consts  --      5.8768                 5.7616                 6.0737
 IR Inten    --     67.7233                31.6746                36.5508

                    103                    104                    105
                      A                      A                      A
 Frequencies --   3084.5207              3090.2447              3107.1711
 Red. masses --      1.1008                 1.0973                 1.0968
 Frc consts  --      6.1704                 6.1738                 6.2392
 IR Inten    --      6.5991                50.0100                 8.8495

                    106                    107                    108
                      A                      A                      A
 Frequencies --   3109.7603              3111.1881              3114.8988
 Red. masses --      1.1011                 1.1018                 1.1009
 Frc consts  --      6.2740                 6.2834                 6.2936
 IR Inten    --     72.0839                36.4463                46.5563

                    109                    110                    111
                      A                      A                      A
 Frequencies --   3116.9179              3119.4970              3127.8999
 Red. masses --      1.1018                 1.0993                 1.0973
 Frc consts  --      6.3065                 6.3026                 6.3256
 IR Inten    --     49.4053                34.6722                35.5970

                    112                    113                    114
                      A                      A                      A
 Frequencies --   3280.0367              3541.1512              3653.7984
 Red. masses --      1.0972                 1.0737                 1.0816
 Frc consts  --      6.9548                 7.9324                 8.5075
 IR Inten    --      7.9777                 2.5964                56.0061

 - Thermochemistry -
 -------------------
 Temperature   298.150 Kelvin.  Pressure   1.00000 Atm.
 Atom     1 has atomic number  6 and mass  12.00000

 Molecular mass:   224.20010 amu.
 Principal axes and moments of inertia in atomic units:
                           1         2         3
     Eigenvalues --  3226.546734496.464416474.17751
           X            0.99838   0.05684   0.00151
           Y           -0.05683   0.99836  -0.00758
           Z           -0.00193   0.00748   0.99997
 This molecule is an asymmetric top.
 Rotational symmetry number  1.
 Warning -- assumption of classical behavior for rotation
           may cause significant error
 Rotational temperatures (Kelvin)      0.02684     0.01926     0.01338
 Rotational constants (GHZ):           0.55934     0.40137     0.27876
 Zero-point vibrational energy     954096.0 (Joules/Mol)
                                  228.03443 (Kcal/Mol)
 Warning -- explicit consideration of  25 degrees of freedom as
           vibrations may cause significant error
 Vibrational temperatures:     22.57    43.39    66.62    91.46   110.83
          (Kelvin)            122.30   133.96   170.96   207.71   231.57
                              266.76   306.02   328.26   347.90   393.26
                              411.57   433.30   443.13   507.51   526.97
                              581.11   600.69   725.85   779.62   797.63
                              931.38   979.39   997.35  1048.32  1081.76
                             1119.80  1135.47  1148.64  1208.27  1283.48
                             1287.28  1301.25  1315.54  1341.47  1388.48
                             1417.74  1449.65  1475.27  1500.48  1513.75
                             1524.51  1538.17  1559.50  1611.17  1627.56
                             1661.25  1672.61  1685.66  1712.01  1727.22
                             1750.96  1786.55  1808.62  1849.26  1865.75
                             1885.84  1894.75  1909.81  1921.47  1937.95
                             1970.91  1996.17  2004.72  2012.08  2040.35
                             2050.87  2061.09  2063.97  2076.98  2081.10
                             2082.88  2162.24  2172.51  2174.81  2185.77
                             2190.69  2200.37  2203.31  2204.96  2209.50
                             2213.22  2220.34  2226.25  2231.89  2299.48
                             4244.06  4305.61  4337.59  4360.98  4370.62
                             4371.40  4378.15  4380.95  4385.70  4390.57
                             4394.25  4408.94  4437.94  4446.17  4470.53
                             4474.25  4476.31  4481.64  4484.55  4488.26
                             4500.35  4719.24  5094.93  5257.00

 Zero-point correction=                           0.363396 (Hartree/Particle)
 Thermal correction to Energy=                    0.381526
 Thermal correction to Enthalpy=                  0.382470
 Thermal correction to Gibbs Free Energy=         0.315268
 Sum of electronic and zero-point Energies=           -690.432260
 Sum of electronic and thermal Energies=              -690.414129
 Sum of electronic and thermal Enthalpies=            -690.413185
 Sum of electronic and thermal Free Energies=         -690.480387

                     E (Thermal)             CV                S
                      KCal/Mol        Cal/Mol-Kelvin    Cal/Mol-Kelvin
 Total                  239.411             66.522            141.439
 Electronic               0.000              0.000              0.000
 Translational            0.889              2.981             42.125
 Rotational               0.889              2.981             32.907
 Vibrational            237.634             60.560             66.407
 Vibration     1          0.593              1.986              7.117
 Vibration     2          0.594              1.984              5.819
 Vibration     3          0.595              1.979              4.969
 Vibration     4          0.597              1.972              4.343
 Vibration     5          0.599              1.964              3.965
 Vibration     6          0.601              1.960              3.772
 Vibration     7          0.602              1.954              3.594
 Vibration     8          0.609              1.934              3.119
 Vibration     9          0.616              1.909              2.745
 Vibration    10          0.622              1.890              2.539
 Vibration    11          0.631              1.860              2.273
 Vibration    12          0.644              1.822              2.020
 Vibration    13          0.651              1.798              1.893
 Vibration    14          0.658              1.776              1.790
 Vibration    15          0.676              1.723              1.575
 Vibration    16          0.684              1.700              1.497
 Vibration    17          0.693              1.672              1.410
 Vibration    18          0.698              1.659              1.373
 Vibration    19          0.729              1.570              1.154
 Vibration    20          0.739              1.542              1.095
 Vibration    21          0.769              1.462              0.948
 Vibration    22          0.781              1.432              0.901
 Vibration    23          0.860              1.240              0.647
 Vibration    24          0.897              1.158              0.561
 Vibration    25          0.910              1.130              0.535

                           ! Non-Optimized Parameters !
 Normal termination of Gaussian 16 at Thu Dec 10 22:16:38 2020.

 ----------------------------------------------------------------------
 # B3LYP/6-311++G(d,p) empiricaldispersion=gd3bj scf=xqc pop=npa geom=c
 heck
 ----------------------------------------------------------------------

 --------------------------------------
 CID_82922716_JID_6277_Energie_neutraal
 --------------------------------------
 Structure from the checkpoint file:  "JID_6277.chk"
 Charge =  0 Multiplicity = 1

 SCF Done:  E(RB3LYP) =  -690.990406444     A.U. after   14 cycles
 Normal termination of Gaussian 16 at Thu Dec 10 22:23:10 2020.

 ----------------------------------------------------------------------
 # B3LYP/6-311++G(d,p) empiricaldispersion=gd3bj scf=xqc pop=npa geom=c
 heck
 ----------------------------------------------------------------------

 ------------------------------------
 CID_82922716_JID_6277_Energie_kation
 ------------------------------------
 Structure from the checkpoint file:  "JID_6277.chk"
 Charge =  1 Multiplicity = 2

 SCF Done:  E(UB3LYP) =  -690.687479664     A.U. after   24 cycles
 Normal termination of Gaussian 16 at Thu Dec 10 22:40:53 2020.
 Gaussian 16:  ES64L-G16RevA.03 25-Dec-2016

 ----------------------------------------------------------------------
 # B3LYP/6-311++G(d,p) empiricaldispersion=gd3bj scf=xqc pop=npa geom=c
 heck
 ----------------------------------------------------------------------

 -----------------------------------
 CID_82922716_JID_6277_Energie_anion
 -----------------------------------
 Structure from the checkpoint file:  "JID_6277.chk"
 Charge = -1 Multiplicity = 2

                         Standard orientation:
 ---------------------------------------------------------------------
 Center     Atomic      Atomic             Coordinates (Angstroms)
 Number     Number       Type             X           Y           Z
 ---------------------------------------------------------------------
      1          6           0       -3.192919   -2.124770    1.453867
      2          6           0       -3.094511   -2.349151   -0.058724
      3          6           0       -2.183819   -1.341406   -0.763185
      4          7           0       -0.802814   -1.489159   -0.324777
      5          6           0        0.167182   -0.646200   -1.005991
      6          6           0       -0.143259    0.882140   -1.041007
      7          6           0       -0.512247    1.561846    0.291392
      8          6           0        0.652881    1.684629    1.298085
      9          6           0        1.893486    2.426209    0.788982
     10          6           0       -1.162213    2.936802    0.021879
     11          6           0       -2.578030    2.865642   -0.558782
     12          6           0        1.527366   -0.942686   -0.437461
     13          7           0        1.806852   -1.392856    0.777799
     14          6           0        3.171774   -1.432989    0.794636
     15          7           0        3.763027   -1.041731   -0.323556
     16          7           0        2.688493   -0.730487   -1.101348
     17          1           0       -2.232839   -2.297186    1.953546
     18          1           0       -3.918575   -2.808462    1.907347
     19          1           0       -3.512927   -1.099678    1.680526
     20          1           0       -2.723979   -3.361008   -0.261648
     21          1           0       -4.095659   -2.274575   -0.502572
     22          1           0       -2.205920   -1.523647   -1.846572
     23          1           0       -2.593905   -0.325833   -0.609752
     24          1           0       -0.705299   -1.376662    0.680203
     25          1           0        0.185261   -0.968207   -2.059400
     26          1           0        0.706330    1.403112   -1.501791
     27          1           0       -0.978149    1.009384   -1.738239
     28          1           0       -1.277007    0.939822    0.779125
     29          1           0        0.265011    2.208167    2.182623
     30          1           0        0.949182    0.689011    1.638524
     31          1           0        1.650006    3.430503    0.423287
     32          1           0        2.628534    2.536984    1.593373
     33          1           0        2.388409    1.883582   -0.023376
     34          1           0       -1.200060    3.492853    0.967981
     35          1           0       -0.520074    3.523677   -0.649068
     36          1           0       -3.246155    2.308400    0.109314
     37          1           0       -2.999546    3.868317   -0.691388
     38          1           0       -2.601947    2.371168   -1.536261
     39          1           0        3.741587   -1.761620    1.652579
     40          1           0        2.834676   -0.408879   -2.047335
 ---------------------------------------------------------------------

 SCF Done:  E(UB3LYP) =  -690.980940173     A.U. after   30 cycles

 The electronic state is 2-A.
 Alpha  occ. eigenvalues --  -14.29616 -14.24665 -14.21081 -14.20135 -10.14951
 Alpha  occ. eigenvalues --  -10.12697 -10.11939 -10.09552 -10.07660 -10.07580
 Alpha  occ. eigenvalues --  -10.07395 -10.06985 -10.06916 -10.06553 -10.06321
 Alpha  occ. eigenvalues --  -10.06304  -0.98256  -0.82537  -0.79801  -0.74436
 Alpha  occ. eigenvalues --   -0.72235  -0.68797  -0.65557  -0.64166  -0.59885
 Alpha  occ. eigenvalues --   -0.57536  -0.54958  -0.53230  -0.51831  -0.51245
 Alpha  occ. eigenvalues --   -0.48843  -0.45654  -0.44397  -0.39656  -0.38456
 Alpha  occ. eigenvalues --   -0.37858  -0.37621  -0.35885  -0.35032  -0.34889
 Alpha  occ. eigenvalues --   -0.33603  -0.33559  -0.32004  -0.31683  -0.31069
 Alpha  occ. eigenvalues --   -0.29644  -0.28403  -0.27972  -0.27121  -0.26574
 Alpha  occ. eigenvalues --   -0.25635  -0.25132  -0.24925  -0.24379  -0.23515
 Alpha  occ. eigenvalues --   -0.22638  -0.22147  -0.21580  -0.20143  -0.19069
 Alpha  occ. eigenvalues --   -0.17064  -0.13029   0.04102
 Alpha virt. eigenvalues --    0.05966   0.06652   0.07149   0.08270   0.08338
 Alpha virt. eigenvalues --    0.08696   0.08977   0.09447   0.09657   0.10599
 Alpha virt. eigenvalues --    0.10905   0.11114   0.11825   0.12246   0.12521

  Beta  occ. eigenvalues --  -14.29555 -14.24652 -14.21075 -14.20135 -10.14941
  Beta  occ. eigenvalues --  -10.12698 -10.11918 -10.09535 -10.07659 -10.07569
  Beta  occ. eigenvalues --  -10.07383 -10.06973 -10.06889 -10.06550 -10.06293
  Beta  occ. eigenvalues --  -10.06291  -0.98212  -0.82514  -0.79757  -0.74387
  Beta  occ. eigenvalues --   -0.72215  -0.68769  -0.65533  -0.64126  -0.59847
  Beta  occ. eigenvalues --   -0.57499  -0.54885  -0.53190  -0.51783  -0.51185
  Beta  occ. eigenvalues --   -0.48801  -0.45608  -0.44357  -0.39621  -0.38431
  Beta  occ. eigenvalues --   -0.37809  -0.37589  -0.35858  -0.35003  -0.34854
  Beta  occ. eigenvalues --   -0.33571  -0.33535  -0.31985  -0.31662  -0.31027
  Beta  occ. eigenvalues --   -0.29610  -0.28370  -0.27943  -0.27090  -0.26543
  Beta  occ. eigenvalues --   -0.25605  -0.25107  -0.24903  -0.24356  -0.23484
  Beta  occ. eigenvalues --   -0.22608  -0.22124  -0.21554  -0.20090  -0.19056
  Beta  occ. eigenvalues --   -0.17006  -0.13019
  Beta virt. eigenvalues --    0.06101   0.06882   0.07376   0.07586   0.08462
  Beta virt. eigenvalues --    0.08757   0.08926   0.09226   0.09585   0.10213
  Beta virt. eigenvalues --    0.10761   0.11028   0.11514   0.12074   0.12465

 Mulliken charges and spin densities:
               1          2
     1  C   -0.284314  -0.219688
     2  C    0.178153  -0.556688
     3  C   -0.281593   0.055204
     4  N    0.021500   0.021651
     5  C    0.496296  -0.857985
     6  C    0.340943  -0.511694
     7  C    0.660803  -0.392952
     8  C   -0.525120   0.255192
     9  C   -0.489081  -0.210867
    10  C   -1.017537   0.677800
    11  C    0.863020  -1.462304
    12  C    0.068093  -0.678609
    13  N   -0.071416   0.024794
    14  C   -0.094450   0.154745
    15  N   -0.129915   0.074107
    16  N   -0.088451   0.087381
    17  H    0.063157   0.094493
    18  H   -0.074739   0.229287
    19  H    0.015293   0.116318
    20  H    0.129212   0.018053
    21  H   -0.194522   0.340521
    22  H   -0.305944   0.476707
    23  H    0.670040  -0.509589
    24  H    0.299115  -0.171727
    25  H   -0.683197   0.930036
    26  H   -0.441597   0.641019
    27  H    0.147261   0.007856
    28  H    0.288654  -0.097885
    29  H    0.034926   0.119225
    30  H    0.117437   0.036212
    31  H   -0.080769   0.235376
    32  H    0.108105   0.021448
    33  H    0.073028   0.055765
    34  H   -0.016667   0.155317
    35  H    0.143752  -0.017947
    36  H   -0.036078   0.163072
    37  H   -0.348246   0.502866
    38  H   -0.322890   0.466418
    39  H    0.098471   0.056884
    40  H   -0.330733   0.670188
 Sum of Mulliken charges =  -1.00000   1.00000

 Dipole moment (field-independent basis, Debye):
    X=              0.3059    Y=             -0.7112    Z=              6.3437  Tot=              6.3907
 Quadrupole moment (field-independent basis, Debye-Ang):
   XX=           -168.2958   YY=           -150.8540   ZZ=           -149.0513
   XY=              4.2355   XZ=              6.6888   YZ=              1.6852

 Summary of Natural Population Analysis:

                                       Natural Population
                Natural  -----------------------------------------------
    Atom  No    Charge         Core      Valence    Rydberg      Total
 -----------------------------------------------------------------------
      C    1   -0.28855      0.99967     2.28456    0.00433     3.28855
      C    2   -0.19134      0.99964     2.18362    0.00809     3.19134
      C    3   -0.08806      0.99962     2.07736    0.01108     3.08806
      N    4   -0.33870      0.99973     2.82829    0.01068     3.83870
      C    5   -0.02886      0.99955     2.01356    0.01575     3.02886
      C    6   -0.19677      0.99958     2.18524    0.01194     3.19677
      C    7   -0.11390      0.99958     2.10383    0.01049     3.11390
      C    8   -0.19318      0.99961     2.18631    0.00725     3.19318
      C    9   -0.28891      0.99966     2.28435    0.00490     3.28891
      C   10   -0.18705      0.99962     2.17888    0.00855     3.18705
      C   11   -0.28490      0.99966     2.28009    0.00515     3.28490
      C   12    0.20645      0.99960     1.77538    0.01858     2.79355
      N   13   -0.27417      0.99969     2.76632    0.00817     3.77417
      C   14    0.08549      0.99968     1.89695    0.01788     2.91451
      N   15   -0.16079      0.99974     2.64900    0.01204     3.66079
      N   16   -0.17667      0.99964     2.66330    0.01374     3.67667
      H   17    0.09618      0.00000     0.40291    0.00091     0.40382
      H   18    0.09792      0.00000     0.40127    0.00081     0.40208
      H   19    0.09663      0.00000     0.40228    0.00109     0.40337
      H   20    0.09702      0.00000     0.40183    0.00115     0.40298
      H   21    0.09585      0.00000     0.40314    0.00101     0.40415
      H   22    0.09526      0.00000     0.40331    0.00142     0.40474
      H   23    0.08005      0.00000     0.41796    0.00200     0.41995
      H   24    0.17948      0.00000     0.31627    0.00425     0.32052
      H   25    0.10649      0.00000     0.39018    0.00333     0.39351
      H   26    0.10364      0.00000     0.39423    0.00212     0.39636
      H   27    0.10544      0.00000     0.39253    0.00203     0.39456
      H   28    0.09386      0.00000     0.40352    0.00262     0.40614
      H   29    0.09092      0.00000     0.40803    0.00106     0.40908
      H   30    0.10673      0.00000     0.39162    0.00164     0.39327
      H   31    0.09536      0.00000     0.40375    0.00089     0.40464
      H   32    0.09708      0.00000     0.40220    0.00072     0.40292
      H   33    0.09943      0.00000     0.39951    0.00106     0.40057
      H   34    0.09331      0.00000     0.40564    0.00106     0.40669
      H   35    0.09535      0.00000     0.40347    0.00118     0.40465
      H   36    0.09472      0.00000     0.40403    0.00125     0.40528
      H   37    0.09841      0.00000     0.40070    0.00088     0.40159
      H   38    0.09893      0.00000     0.39981    0.00126     0.40107
      H   39    0.09040      0.00000     0.40887    0.00073     0.40960
      H   40    0.21144      0.00000     0.28020    0.00835     0.28856
 =======================================================================
   * Total *    0.00000     15.99427    45.79431    0.21141    62.00000

 Normal termination of Gaussian 16 at Thu Dec 10 23:03:04 2020.
