 Gaussian 16, Revision A.03,

 -----------------------------------------------------------
 # opt freq B3LYP/6-31G(d) empiricaldispersion=gd3bj scf=xqc
 -----------------------------------------------------------

 -----------------------------
 CID_89405332_JID_788_neutraal
 -----------------------------
 Symbolic Z-matrix:
 Charge =  0 Multiplicity = 1

 SCF Done:  E(RB3LYP) =  -441.479643047     A.U. after   15 cycles
 SCF Done:  E(RB3LYP) =  -441.484829733     A.U. after   12 cycles
 SCF Done:  E(RB3LYP) =  -441.485137710     A.U. after   11 cycles
 SCF Done:  E(RB3LYP) =  -441.485197334     A.U. after   11 cycles
 SCF Done:  E(RB3LYP) =  -441.485215103     A.U. after   10 cycles
 SCF Done:  E(RB3LYP) =  -441.485263994     A.U. after   10 cycles
 SCF Done:  E(RB3LYP) =  -441.485393780     A.U. after   12 cycles
 SCF Done:  E(RB3LYP) =  -441.485534494     A.U. after   11 cycles
 SCF Done:  E(RB3LYP) =  -441.485515850     A.U. after   11 cycles
 SCF Done:  E(RB3LYP) =  -441.485702286     A.U. after   11 cycles
 SCF Done:  E(RB3LYP) =  -441.485823318     A.U. after    7 cycles
 SCF Done:  E(RB3LYP) =  -441.485823370     A.U. after    9 cycles
 SCF Done:  E(RB3LYP) =  -441.485823471     A.U. after    9 cycles
 SCF Done:  E(RB3LYP) =  -441.485823851     A.U. after    8 cycles
 SCF Done:  E(RB3LYP) =  -441.485823954     A.U. after    8 cycles
 Optimization completed.
    -- Stationary point found.
 Normal termination of Gaussian 16 at Tue Dec  8 13:11:31 2020.

 --------------------------------------------------------------------
 #N Geom=AllCheck Guess=TCheck SCRF=Check GenChk RB3LYP/6-31G(d) Freq
 --------------------------------------------------------------------

 Structure from the checkpoint file:  "JID_788.chk"
 -----------------------------
 CID_89405332_JID_788_neutraal
 -----------------------------
 Charge =  0 Multiplicity = 1

 SCF Done:  E(RB3LYP) =  -441.485823954     A.U. after    1 cycles

  Exact polarizability: 113.171   4.119  81.814   0.082  -0.302  63.004
 Approx polarizability: 166.810  20.741 127.052   0.080  -0.896  89.254

                      1                      2                      3
                      A                      A                      A
 Frequencies --     45.1059                56.0964               130.0818
 Red. masses --      5.0744                 1.6961                 3.1744
 Frc consts  --      0.0061                 0.0031                 0.0316
 IR Inten    --      2.1223                 1.6537                 1.1028

                      4                      5                      6
                      A                      A                      A
 Frequencies --    165.2346               343.5270               347.5067
 Red. masses --      2.7080                 2.3360                 2.1366
 Frc consts  --      0.0436                 0.1624                 0.1520
 IR Inten    --      2.3253                 1.0835                36.2259

                      7                      8                      9
                      A                      A                      A
 Frequencies --    388.2829               423.2051               500.6621
 Red. masses --      1.5877                 4.6382                 3.1845
 Frc consts  --      0.1410                 0.4894                 0.4703
 IR Inten    --     51.0109                 6.3506                 2.8915

                     10                     11                     12
                      A                      A                      A
 Frequencies --    506.9382               644.5582               650.6881
 Red. masses --      2.9574                 2.7798                 3.1366
 Frc consts  --      0.4478                 0.6804                 0.7825
 IR Inten    --      2.6446                 2.3764                 3.6427

                     13                     14                     15
                      A                      A                      A
 Frequencies --    708.1103               716.6170               807.9931
 Red. masses --      2.4449                 2.6020                 1.7398
 Frc consts  --      0.7223                 0.7873                 0.6692
 IR Inten    --      3.7227                 8.8641                 2.0873

                     16                     17                     18
                      A                      A                      A
 Frequencies --    817.5545               826.7609               878.2090
 Red. masses --      2.0484                 1.6782                 5.3019
 Frc consts  --      0.8067                 0.6759                 2.4092
 IR Inten    --     26.3455                19.7781                 1.3941

                     19                     20                     21
                      A                      A                      A
 Frequencies --    896.1135               935.4521               961.2986
 Red. masses --      2.6710                 2.3470                 1.9673
 Frc consts  --      1.2637                 1.2101                 1.0711
 IR Inten    --      0.2408                 7.1581                 4.7485

                     22                     23                     24
                      A                      A                      A
 Frequencies --    962.8550               972.2390              1026.6090
 Red. masses --      2.0340                 1.4286                 2.4168
 Frc consts  --      1.1110                 0.7956                 1.5007
 IR Inten    --      4.5565                 0.5939                 5.6002

                     25                     26                     27
                      A                      A                      A
 Frequencies --   1047.3900              1062.4937              1111.8593
 Red. masses --      1.6842                 1.6806                 1.0961
 Frc consts  --      1.0886                 1.1178                 0.7983
 IR Inten    --      0.1248                 3.4761                 7.0506

                     28                     29                     30
                      A                      A                      A
 Frequencies --   1128.1545              1137.0915              1230.6681
 Red. masses --      2.0739                 3.6017                 1.7327
 Frc consts  --      1.5551                 2.7437                 1.5462
 IR Inten    --      5.0798                 8.2163                18.9412

                     31                     32                     33
                      A                      A                      A
 Frequencies --   1233.7113              1252.8720              1268.8087
 Red. masses --      1.3872                 1.5835                 1.1875
 Frc consts  --      1.2440                 1.4644                 1.1264
 IR Inten    --      2.5035                20.4033                 0.9603

                     34                     35                     36
                      A                      A                      A
 Frequencies --   1303.2514              1323.9357              1350.2617
 Red. masses --      1.8796                 1.3213                 1.6007
 Frc consts  --      1.8809                 1.3645                 1.7195
 IR Inten    --     19.4003                 0.2860                 8.4649

                     37                     38                     39
                      A                      A                      A
 Frequencies --   1352.2820              1357.0198              1378.5364
 Red. masses --      1.4361                 1.6920                 1.8359
 Frc consts  --      1.5472                 1.8357                 2.0556
 IR Inten    --      4.9665                24.8310                11.9558

                     40                     41                     42
                      A                      A                      A
 Frequencies --   1427.2047              1507.0465              1519.9775
 Red. masses --      2.0815                 1.0849                 1.0866
 Frc consts  --      2.4980                 1.4517                 1.4791
 IR Inten    --     18.9744                 1.7069                 3.9989

                     43                     44                     45
                      A                      A                      A
 Frequencies --   1526.0014              1549.5246              1667.7058
 Red. masses --      1.0813                 1.0994                 6.7187
 Frc consts  --      1.4835                 1.5552                11.0097
 IR Inten    --      1.2829                 0.9662                 1.8530

                     46                     47                     48
                      A                      A                      A
 Frequencies --   1826.8741              3053.8712              3061.3618
 Red. masses --     10.2827                 1.0692                 1.0642
 Frc consts  --     20.2197                 5.8748                 5.8764
 IR Inten    --    530.5732                19.3695                13.1031

                     49                     50                     51
                      A                      A                      A
 Frequencies --   3062.2220              3073.9372              3099.8712
 Red. masses --      1.0669                 1.0646                 1.0994
 Frc consts  --      5.8943                 5.9269                 6.2243
 IR Inten    --     33.7633                42.5751                11.9894

                     52                     53                     54
                      A                      A                      A
 Frequencies --   3118.1199              3127.3539              3132.3422
 Red. masses --      1.0995                 1.1002                 1.1020
 Frc consts  --      6.2985                 6.3400                 6.3702
 IR Inten    --     23.3770                25.9067                40.7053

                     55                     56                     57
                      A                      A                      A
 Frequencies --   3220.2655              3264.2352              3655.9179
 Red. masses --      1.0913                 1.1020                 1.0783
 Frc consts  --      6.6676                 6.9182                 8.4917
 IR Inten    --      6.0702                 3.7525                26.3842

 - Thermochemistry -
 -------------------
 Temperature   298.150 Kelvin.  Pressure   1.00000 Atm.
 Atom     1 has atomic number  6 and mass  12.00000

 Molecular mass:   137.08406 amu.
 Principal axes and moments of inertia in atomic units:
                           1         2         3
     Eigenvalues --   637.024051871.507052027.98004
           X            0.99968  -0.02511   0.00065
           Y            0.02510   0.99968   0.00400
           Z           -0.00075  -0.00398   0.99999
 This molecule is an asymmetric top.
 Rotational symmetry number  1.
 Warning -- assumption of classical behavior for rotation
           may cause significant error
 Rotational temperatures (Kelvin)      0.13597     0.04628     0.04271
 Rotational constants (GHZ):           2.83308     0.96433     0.88992
 Zero-point vibrational energy     473385.5 (Joules/Mol)
                                  113.14184 (Kcal/Mol)
 Warning -- explicit consideration of  10 degrees of freedom as
           vibrations may cause significant error
 Vibrational temperatures:     64.90    80.71   187.16   237.74   494.26
          (Kelvin)            499.98   558.65   608.90   720.34   729.37
                              927.38   936.20  1018.81  1031.05  1162.52
                             1176.28  1189.52  1263.55  1289.31  1345.91
                             1383.09  1385.33  1398.84  1477.06  1506.96
                             1528.69  1599.72  1623.16  1636.02  1770.66
                             1775.04  1802.60  1825.53  1875.09  1904.85
                             1942.73  1945.63  1952.45  1983.41  2053.43
                             2168.30  2186.91  2195.58  2229.42  2399.46
                             2628.46  4393.84  4404.62  4405.85  4422.71
                             4460.02  4486.28  4499.56  4506.74  4633.24
                             4696.51  5260.05

 Zero-point correction=                           0.180303 (Hartree/Particle)
 Thermal correction to Energy=                    0.189177
 Thermal correction to Enthalpy=                  0.190121
 Thermal correction to Gibbs Free Energy=         0.145493
 Sum of electronic and zero-point Energies=           -441.305521
 Sum of electronic and thermal Energies=              -441.296647
 Sum of electronic and thermal Enthalpies=            -441.295703
 Sum of electronic and thermal Free Energies=         -441.340331

                     E (Thermal)             CV                S
                      KCal/Mol        Cal/Mol-Kelvin    Cal/Mol-Kelvin
 Total                  118.710             34.054             93.927
 Electronic               0.000              0.000              0.000
 Translational            0.889              2.981             40.658
 Rotational               0.889              2.981             29.271
 Vibrational            116.933             28.092             23.998
 Vibration     1          0.595              1.979              5.021
 Vibration     2          0.596              1.975              4.590
 Vibration     3          0.612              1.923              2.945
 Vibration     4          0.624              1.885              2.489
 Vibration     5          0.722              1.588              1.196
 Vibration     6          0.725              1.580              1.177
 Vibration     7          0.756              1.495              1.007
 Vibration     8          0.785              1.420              0.881
 Vibration     9          0.856              1.249              0.656
 Vibration    10          0.862              1.235              0.641

                           ! Non-Optimized Parameters !
 Normal termination of Gaussian 16 at Tue Dec  8 13:23:36 2020.

 ----------------------------------------------------------------------
 # B3LYP/6-311++G(d,p) empiricaldispersion=gd3bj scf=xqc pop=npa geom=c
 heck
 ----------------------------------------------------------------------

 -------------------------------------
 CID_89405332_JID_788_Energie_neutraal
 -------------------------------------
 Structure from the checkpoint file:  "JID_788.chk"
 Charge =  0 Multiplicity = 1

 SCF Done:  E(RB3LYP) =  -441.612867431     A.U. after   14 cycles
 Normal termination of Gaussian 16 at Tue Dec  8 13:26:51 2020.

 ----------------------------------------------------------------------
 # B3LYP/6-311++G(d,p) empiricaldispersion=gd3bj scf=xqc pop=npa geom=c
 heck
 ----------------------------------------------------------------------

 -----------------------------------
 CID_89405332_JID_788_Energie_kation
 -----------------------------------
 Structure from the checkpoint file:  "JID_788.chk"
 Charge =  1 Multiplicity = 2

 SCF Done:  E(UB3LYP) =  -441.279147920     A.U. after   30 cycles
 Normal termination of Gaussian 16 at Tue Dec  8 13:36:18 2020.
 Gaussian 16:  ES64L-G16RevA.03 25-Dec-2016

 ----------------------------------------------------------------------
 # B3LYP/6-311++G(d,p) empiricaldispersion=gd3bj scf=xqc pop=npa geom=c
 heck
 ----------------------------------------------------------------------

 ----------------------------------
 CID_89405332_JID_788_Energie_anion
 ----------------------------------
 Structure from the checkpoint file:  "JID_788.chk"
 Charge = -1 Multiplicity = 2

                         Standard orientation:
 ---------------------------------------------------------------------
 Center     Atomic      Atomic             Coordinates (Angstroms)
 Number     Number       Type             X           Y           Z
 ---------------------------------------------------------------------
      1          6           0        2.353506   -0.523352    0.786926
      2          6           0        2.337082   -0.593985   -0.770490
      3          6           0        1.196619    0.347176   -1.221337
      4          6           0        0.243251    0.409747   -0.004115
      5          6           0        1.245308    0.480690    1.171188
      6          6           0       -0.771834    1.521987   -0.047179
      7          6           0       -2.018306    1.040427   -0.024971
      8          6           0       -1.970494   -0.453707    0.025962
      9          8           0       -2.896562   -1.248273    0.019329
     10          7           0       -0.625337   -0.758532    0.081810
     11          1           0        2.136658   -1.507257    1.217012
     12          1           0        3.328044   -0.218375    1.179210
     13          1           0        3.294926   -0.298743   -1.208705
     14          1           0        2.143536   -1.618484   -1.106927
     15          1           0        1.586635    1.354343   -1.411311
     16          1           0        0.676474    0.014703   -2.123635
     17          1           0        0.761163    0.261723    2.126270
     18          1           0        1.652599    1.497962    1.223174
     19          1           0       -0.465593    2.562104   -0.086111
     20          1           0       -2.952623    1.586180   -0.047041
     21          1           0       -0.302746   -1.712145    0.014848
 ---------------------------------------------------------------------

 SCF Done:  E(UB3LYP) =  -441.601978783     A.U. after   33 cycles
 SCF Done:  E(UB3LYP) =  -441.601978783     a.u. after    1 cycles

 The electronic state is 2-A.
 Alpha  occ. eigenvalues --  -18.96689 -14.21201 -10.14761 -10.10946 -10.06553
 Alpha  occ. eigenvalues --  -10.06141 -10.05892 -10.05697 -10.05661 -10.05640
 Alpha  occ. eigenvalues --   -0.91636  -0.83050  -0.71741  -0.67256  -0.60606
 Alpha  occ. eigenvalues --   -0.60220  -0.50474  -0.47394  -0.46315  -0.45999
 Alpha  occ. eigenvalues --   -0.38759  -0.35704  -0.35273  -0.33444  -0.32456
 Alpha  occ. eigenvalues --   -0.31075  -0.29412  -0.29210  -0.25081  -0.24630
 Alpha  occ. eigenvalues --   -0.23774  -0.23408  -0.23259  -0.21452  -0.15896
 Alpha  occ. eigenvalues --   -0.14089  -0.13804   0.04869
 Alpha virt. eigenvalues --    0.07032   0.07849   0.08575   0.09153   0.10159
 Alpha virt. eigenvalues --    0.10778   0.11573   0.11972   0.12052   0.13688
 Alpha virt. eigenvalues --    0.14492   0.15567   0.16205   0.16847   0.18112

  Beta  occ. eigenvalues --  -18.96621 -14.21171 -10.14711 -10.10960 -10.06396
  Beta  occ. eigenvalues --  -10.06122 -10.05868 -10.05650 -10.05614 -10.05587
  Beta  occ. eigenvalues --   -0.91517  -0.82972  -0.71680  -0.67043  -0.60529
  Beta  occ. eigenvalues --   -0.60115  -0.50237  -0.47309  -0.46201  -0.45853
  Beta  occ. eigenvalues --   -0.38691  -0.35636  -0.35163  -0.33303  -0.32383
  Beta  occ. eigenvalues --   -0.30977  -0.29308  -0.29005  -0.25018  -0.24428
  Beta  occ. eigenvalues --   -0.23697  -0.23348  -0.23151  -0.21393  -0.15305
  Beta  occ. eigenvalues --   -0.13932  -0.13652
  Beta virt. eigenvalues --    0.07556   0.08220   0.08686   0.09344   0.09718
  Beta virt. eigenvalues --    0.10652   0.11218   0.12048   0.12285   0.12499
  Beta virt. eigenvalues --    0.14175   0.15061   0.15634   0.16277   0.16893

 Mulliken charges and spin densities:
               1          2
     1  C    0.388899  -0.749419
     2  C    0.604150  -0.957569
     3  C    0.569254  -1.119314
     4  C    0.440986  -0.372630
     5  C    0.170060  -0.655263
     6  C   -1.643757   1.951006
     7  C    1.947079  -2.083696
     8  C   -0.580764   0.618823
     9  O   -0.399406   0.010408
    10  N   -0.207341   0.174809
    11  H   -0.054469   0.195417
    12  H   -0.444674   0.604816
    13  H   -0.530438   0.689394
    14  H   -0.124068   0.265901
    15  H   -0.559467   0.734665
    16  H    0.077612   0.094673
    17  H    0.186329  -0.022295
    18  H   -0.199600   0.349809
    19  H   -0.960986   1.142275
    20  H    0.070559   0.088723
    21  H    0.250041   0.039469
 Sum of Mulliken charges =  -1.00000   1.00000

 Dipole moment (field-independent basis, Debye):
    X=             -2.5661    Y=             -1.9685    Z=              1.8611  Tot=              3.7314
 Quadrupole moment (field-independent basis, Debye-Ang):
   XX=           -124.0988   YY=            -96.3812   ZZ=            -83.8972
   XY=            -11.9835   XZ=              3.3137   YZ=              3.7116

 Summary of Natural Population Analysis:

                                       Natural Population
                Natural  -----------------------------------------------
    Atom  No    Charge         Core      Valence    Rydberg      Total
 -----------------------------------------------------------------------
      C    1   -0.19497      0.99965     2.18678    0.00855     3.19497
      C    2   -0.19415      0.99965     2.18615    0.00835     3.19415
      C    3   -0.18479      0.99959     2.17564    0.00957     3.18479
      C    4    0.04307      0.99955     1.94238    0.01501     2.95693
      C    5   -0.18360      0.99958     2.17511    0.00891     3.18360
      C    6   -0.03461      0.99949     2.02454    0.01057     3.03461
      C    7   -0.14021      0.99948     2.13114    0.00959     3.14021
      C    8    0.33043      0.99967     1.64668    0.02322     2.66957
      O    9   -0.32288      0.99987     3.31735    0.00566     4.32288
      N   10   -0.32925      0.99965     2.82013    0.00948     3.82925
      H   11    0.09357      0.00000     0.40523    0.00120     0.40643
      H   12    0.10401      0.00000     0.39405    0.00195     0.39599
      H   13    0.10438      0.00000     0.39346    0.00217     0.39562
      H   14    0.09402      0.00000     0.40471    0.00127     0.40598
      H   15    0.10547      0.00000     0.39106    0.00347     0.39453
      H   16    0.10411      0.00000     0.39471    0.00118     0.39589
      H   17    0.10207      0.00000     0.39688    0.00105     0.39793
      H   18    0.10078      0.00000     0.39762    0.00160     0.39922
      H   19    0.10296      0.00000     0.39555    0.00149     0.39704
      H   20    0.10261      0.00000     0.39651    0.00087     0.39739
      H   21    0.19698      0.00000     0.30077    0.00225     0.30302
 =======================================================================
   * Total *    0.00000      9.99617    26.87643    0.12739    37.00000

 Normal termination of Gaussian 16 at Tue Dec  8 13:46:13 2020.
