 Gaussian 16, Revision A.03,

 -----------------------------------------------------------
 # opt freq B3LYP/6-31G(d) empiricaldispersion=gd3bj scf=xqc
 -----------------------------------------------------------

 ------------------------------
 CID_57555853_JID_1179_neutraal
 ------------------------------
 Symbolic Z-matrix:
 Charge =  0 Multiplicity = 1

 SCF Done:  E(RB3LYP) =  -916.234528609     A.U. after   14 cycles
 SCF Done:  E(RB3LYP) =  -916.239050011     A.U. after   12 cycles
 SCF Done:  E(RB3LYP) =  -916.239711099     A.U. after   11 cycles
 SCF Done:  E(RB3LYP) =  -916.239970052     A.U. after   12 cycles
 SCF Done:  E(RB3LYP) =  -916.240088520     A.U. after   11 cycles
 SCF Done:  E(RB3LYP) =  -916.240141690     A.U. after   12 cycles
 SCF Done:  E(RB3LYP) =  -916.240212826     A.U. after   11 cycles
 SCF Done:  E(RB3LYP) =  -916.240303289     A.U. after   12 cycles
 SCF Done:  E(RB3LYP) =  -916.240328114     A.U. after   10 cycles
 SCF Done:  E(RB3LYP) =  -916.240390938     A.U. after   11 cycles
 SCF Done:  E(RB3LYP) =  -916.247223388     A.U. after    9 cycles
 SCF Done:  E(RB3LYP) =  -916.247225244     A.U. after    8 cycles
 SCF Done:  E(RB3LYP) =  -916.247225902     A.U. after    8 cycles
 SCF Done:  E(RB3LYP) =  -916.247226065     A.U. after    7 cycles
 SCF Done:  E(RB3LYP) =  -916.247226144     A.U. after    7 cycles
 SCF Done:  E(RB3LYP) =  -916.247226185     A.U. after    7 cycles
 Optimization completed.
    -- Stationary point found.
 Normal termination of Gaussian 16 at Tue Dec  8 19:40:50 2020.

 --------------------------------------------------------------------
 #N Geom=AllCheck Guess=TCheck SCRF=Check GenChk RB3LYP/6-31G(d) Freq
 --------------------------------------------------------------------

 Structure from the checkpoint file:  "JID_1179.chk"
 ------------------------------
 CID_57555853_JID_1179_neutraal
 ------------------------------
 Charge =  0 Multiplicity = 1

 SCF Done:  E(RB3LYP) =  -916.247226185     A.U. after    1 cycles

  Exact polarizability: 108.161   0.951  95.127  -0.008  -0.221  84.684
 Approx polarizability: 134.489   4.472 132.875  -0.075  -4.973 135.010

                      1                      2                      3
                      A                      A                      A
 Frequencies --     28.4945                36.8591                58.9140
 Red. masses --      4.5869                 2.6258                 4.1831
 Frc consts  --      0.0022                 0.0021                 0.0086
 IR Inten    --      3.2433                 0.3365                 2.2937

                      4                      5                      6
                      A                      A                      A
 Frequencies --     76.7521               109.1836               141.5835
 Red. masses --      3.5929                 3.5560                 2.7721
 Frc consts  --      0.0125                 0.0250                 0.0327
 IR Inten    --      3.7043                 2.0513                 2.0980

                      7                      8                      9
                      A                      A                      A
 Frequencies --    178.8427               217.1853               236.2043
 Red. masses --      1.6929                 1.1002                 2.0043
 Frc consts  --      0.0319                 0.0306                 0.0659
 IR Inten    --      1.7567                 0.5347                 3.4666

                     10                     11                     12
                      A                      A                      A
 Frequencies --    275.1611               291.0986               309.6303
 Red. masses --      3.4425                 2.3742                 2.9857
 Frc consts  --      0.1536                 0.1185                 0.1686
 IR Inten    --      1.3388                 1.9893                 2.5380

                     13                     14                     15
                      A                      A                      A
 Frequencies --    333.8325               358.4387               412.3823
 Red. masses --      2.8075                 2.3065                 2.3063
 Frc consts  --      0.1843                 0.1746                 0.2311
 IR Inten    --      2.0056                 5.2820                24.4456

                     16                     17                     18
                      A                      A                      A
 Frequencies --    449.9830               466.1431               501.7928
 Red. masses --      5.0091                 2.4979                 5.2946
 Frc consts  --      0.5976                 0.3198                 0.7855
 IR Inten    --      6.9361                 8.2971                33.6390

                     19                     20                     21
                      A                      A                      A
 Frequencies --    533.8291               608.8988               730.4215
 Red. masses --      2.0357                 3.6279                 3.2900
 Frc consts  --      0.3418                 0.7925                 1.0342
 IR Inten    --     10.0528               116.4017                17.4113

                     22                     23                     24
                      A                      A                      A
 Frequencies --    768.0805               845.7771               867.5982
 Red. masses --      1.3447                 2.6420                 2.3135
 Frc consts  --      0.4674                 1.1135                 1.0260
 IR Inten    --      1.6876                72.2739                 9.2343

                     25                     26                     27
                      A                      A                      A
 Frequencies --    893.8884               928.7719               941.5413
 Red. masses --      2.5652                 2.3326                 1.2543
 Frc consts  --      1.2076                 1.1855                 0.6551
 IR Inten    --      0.2251                58.7928                 6.2455

                     28                     29                     30
                      A                      A                      A
 Frequencies --    974.1267               999.3501              1002.6363
 Red. masses --      1.9724                 1.3427                 1.4273
 Frc consts  --      1.1027                 0.7901                 0.8454
 IR Inten    --     24.9385                 1.1655                30.1990

                     31                     32                     33
                      A                      A                      A
 Frequencies --   1073.8637              1091.1188              1127.9514
 Red. masses --      2.1422                 2.3524                 9.6378
 Frc consts  --      1.4555                 1.6501                 7.2245
 IR Inten    --     15.8791                20.1275               196.8789

                     34                     35                     36
                      A                      A                      A
 Frequencies --   1128.7935              1140.1213              1174.9017
 Red. masses --      2.6840                 2.2101                 3.8677
 Frc consts  --      2.0149                 1.6927                 3.1456
 IR Inten    --     12.7890                33.1979               116.5582

                     37                     38                     39
                      A                      A                      A
 Frequencies --   1194.5855              1277.9289              1285.5858
 Red. masses --      1.8273                 1.2012                 1.2527
 Frc consts  --      1.5364                 1.1558                 1.2198
 IR Inten    --     13.1153                11.6376                17.0496

                     40                     41                     42
                      A                      A                      A
 Frequencies --   1322.4086              1327.3096              1349.2133
 Red. masses --      1.2598                 2.4824                 1.1954
 Frc consts  --      1.2980                 2.5767                 1.2821
 IR Inten    --     14.4823               111.6279                21.7176

                     43                     44                     45
                      A                      A                      A
 Frequencies --   1382.5557              1395.1647              1399.7088
 Red. masses --      1.2191                 1.3333                 1.3888
 Frc consts  --      1.3730                 1.5290                 1.6031
 IR Inten    --     15.2256                 9.5641                87.3996

                     46                     47                     48
                      A                      A                      A
 Frequencies --   1417.7595              1434.2536              1449.8457
 Red. masses --      1.3136                 1.3133                 1.3129
 Frc consts  --      1.5557                 1.5917                 1.6260
 IR Inten    --     20.6668                 6.0387                 6.4256

                     49                     50                     51
                      A                      A                      A
 Frequencies --   1457.1630              1483.8346              1485.0695
 Red. masses --      1.3848                 1.0520                 1.0591
 Frc consts  --      1.7324                 1.3647                 1.3762
 IR Inten    --      9.5370                11.2255                 2.1293

                     52                     53                     54
                      A                      A                      A
 Frequencies --   1501.2373              1509.2715              1518.5689
 Red. masses --      1.0893                 1.0798                 1.0891
 Frc consts  --      1.4465                 1.4492                 1.4797
 IR Inten    --      6.8482                 1.4659                 4.2112

                     55                     56                     57
                      A                      A                      A
 Frequencies --   1525.7768              1540.5880              1556.8674
 Red. masses --      1.0445                 1.0580                 1.0867
 Frc consts  --      1.4327                 1.4795                 1.5519
 IR Inten    --      5.8865                 6.1830                 3.8261

                     58                     59                     60
                      A                      A                      A
 Frequencies --   2962.9118              3022.0849              3041.8246
 Red. masses --      1.0695                 1.0653                 1.0645
 Frc consts  --      5.5320                 5.7322                 5.8029
 IR Inten    --     52.6055                37.9167                12.4887

                     61                     62                     63
                      A                      A                      A
 Frequencies --   3049.3211              3060.5696              3061.6545
 Red. masses --      1.0402                 1.0698                 1.0813
 Frc consts  --      5.6988                 5.9039                 5.9721
 IR Inten    --     27.0659                17.1508                48.9243

                     64                     65                     66
                      A                      A                      A
 Frequencies --   3080.8180              3089.2991              3091.9241
 Red. masses --      1.1004                 1.0974                 1.0297
 Frc consts  --      6.1539                 6.1707                 5.7998
 IR Inten    --     23.0074                48.3589                 0.9059

                     67                     68                     69
                      A                      A                      A
 Frequencies --   3113.2357              3121.9613              3140.1396
 Red. masses --      1.1005                 1.1030                 1.1013
 Frc consts  --      6.2844                 6.3340                 6.3983
 IR Inten    --     49.2920                13.7380                27.4231

                     70                     71                     72
                      A                      A                      A
 Frequencies --   3190.8456              3201.9447              3539.3452
 Red. masses --      1.1063                 1.1077                 1.0756
 Frc consts  --      6.6365                 6.6910                 7.9385
 IR Inten    --      0.6744                 1.0539                31.5839

 - Thermochemistry -
 -------------------
 Temperature   298.150 Kelvin.  Pressure   1.00000 Atm.
 Atom     1 has atomic number  6 and mass  12.00000

 Molecular mass:   181.07727 amu.
 Principal axes and moments of inertia in atomic units:
                           1         2         3
     Eigenvalues --   940.805704107.236424456.76354
           X            0.99995  -0.00928  -0.00284
           Y            0.00936   0.99952   0.02953
           Z            0.00257  -0.02956   0.99956
 This molecule is an asymmetric top.
 Rotational symmetry number  1.
 Warning -- assumption of classical behavior for rotation
           may cause significant error
 Rotational temperatures (Kelvin)      0.09206     0.02109     0.01943
 Rotational constants (GHZ):           1.91829     0.43941     0.40494
 Zero-point vibrational energy     585552.5 (Joules/Mol)
                                  139.95040 (Kcal/Mol)
 Warning -- explicit consideration of  20 degrees of freedom as
           vibrations may cause significant error
 Vibrational temperatures:     41.00    53.03    84.76   110.43   157.09
          (Kelvin)            203.71   257.31   312.48   339.85   395.90
                              418.83   445.49   480.31   515.71   593.33
                              647.43   670.68   721.97   768.06   876.07
                             1050.91  1105.10  1216.88  1248.28  1286.11
                             1336.30  1354.67  1401.55  1437.84  1442.57
                             1545.05  1569.88  1622.87  1624.08  1640.38
                             1690.42  1718.74  1838.65  1849.67  1902.65
                             1909.70  1941.22  1989.19  2007.33  2013.87
                             2039.84  2063.57  2086.00  2096.53  2134.91
                             2136.68  2159.95  2171.51  2184.88  2195.25
                             2216.56  2239.98  4262.97  4348.11  4376.51
                             4387.29  4403.48  4405.04  4432.61  4444.81
                             4448.59  4479.25  4491.81  4517.96  4590.92
                             4606.88  5092.33

 Zero-point correction=                           0.223025 (Hartree/Particle)
 Thermal correction to Energy=                    0.236495
 Thermal correction to Enthalpy=                  0.237439
 Thermal correction to Gibbs Free Energy=         0.181431
 Sum of electronic and zero-point Energies=           -916.024201
 Sum of electronic and thermal Energies=              -916.010731
 Sum of electronic and thermal Enthalpies=            -916.009787
 Sum of electronic and thermal Free Energies=         -916.065795

                     E (Thermal)             CV                S
                      KCal/Mol        Cal/Mol-Kelvin    Cal/Mol-Kelvin
 Total                  148.403             47.921            117.879
 Electronic               0.000              0.000              0.000
 Translational            0.889              2.981             41.488
 Rotational               0.889              2.981             31.222
 Vibrational            146.626             41.959             45.170
 Vibration     1          0.593              1.984              5.932
 Vibration     2          0.594              1.982              5.421
 Vibration     3          0.596              1.974              4.493
 Vibration     4          0.599              1.965              3.972
 Vibration     5          0.606              1.942              3.283
 Vibration     6          0.615              1.912              2.782
 Vibration     7          0.629              1.868              2.340
 Vibration     8          0.646              1.815              1.982
 Vibration     9          0.655              1.785              1.831
 Vibration    10          0.677              1.719              1.564
 Vibration    11          0.687              1.690              1.468
 Vibration    12          0.699              1.655              1.364
 Vibration    13          0.715              1.608              1.241
 Vibration    14          0.733              1.558              1.129
 Vibration    15          0.776              1.443              0.918
 Vibration    16          0.809              1.361              0.796
 Vibration    17          0.824              1.325              0.748
 Vibration    18          0.857              1.246              0.654
 Vibration    19          0.889              1.175              0.579
 Vibration    20          0.968              1.013              0.435

 Optimization completed.
    -- Stationary point found.
 Normal termination of Gaussian 16 at Tue Dec  8 19:46:18 2020.

 ----------------------------------------------------------------------
 # B3LYP/6-311++G(d,p) empiricaldispersion=gd3bj scf=xqc pop=npa geom=c
 heck
 ----------------------------------------------------------------------

 --------------------------------------
 CID_57555853_JID_1179_Energie_neutraal
 --------------------------------------
 Structure from the checkpoint file:  "JID_1179.chk"
 Charge =  0 Multiplicity = 1

 SCF Done:  E(RB3LYP) =  -916.434300647     A.U. after   13 cycles
 Normal termination of Gaussian 16 at Tue Dec  8 19:48:45 2020.

 ----------------------------------------------------------------------
 # B3LYP/6-311++G(d,p) empiricaldispersion=gd3bj scf=xqc pop=npa geom=c
 heck
 ----------------------------------------------------------------------

 ------------------------------------
 CID_57555853_JID_1179_Energie_kation
 ------------------------------------
 Structure from the checkpoint file:  "JID_1179.chk"
 Charge =  1 Multiplicity = 2

 SCF Done:  E(UB3LYP) =  -916.098933235     A.U. after   21 cycles
 Normal termination of Gaussian 16 at Tue Dec  8 19:54:27 2020.
 Gaussian 16:  ES64L-G16RevA.03 25-Dec-2016

 ----------------------------------------------------------------------
 # B3LYP/6-311++G(d,p) empiricaldispersion=gd3bj scf=xqc pop=npa geom=c
 heck
 ----------------------------------------------------------------------

 -----------------------------------
 CID_57555853_JID_1179_Energie_anion
 -----------------------------------
 Structure from the checkpoint file:  "JID_1179.chk"
 Charge = -1 Multiplicity = 2

                         Standard orientation:
 ---------------------------------------------------------------------
 Center     Atomic      Atomic             Coordinates (Angstroms)
 Number     Number       Type             X           Y           Z
 ---------------------------------------------------------------------
      1          6           0       -4.468739    0.469796    0.436619
      2          6           0       -3.420399    0.858825   -0.607555
      3          6           0       -2.003051    0.482282   -0.197301
      4          8           0       -1.939327   -0.931532   -0.061524
      5          6           0       -0.772654   -1.441110    0.551763
      6          6           0        0.377769   -1.693685   -0.419492
      7          7           0        1.011761   -0.455648   -0.919907
      8         16           0        2.204587    0.262531    0.052407
      9          8           0        2.388968   -0.548188    1.260578
     10          8           0        3.324462    0.590074   -0.835873
     11          6           0        1.432465    1.807737    0.549255
     12          1           0       -4.441013   -0.607365    0.623518
     13          1           0       -5.477895    0.736848    0.105152
     14          1           0       -4.281918    0.981160    1.389261
     15          1           0       -3.644083    0.371913   -1.565128
     16          1           0       -3.444847    1.941431   -0.790041
     17          1           0       -1.274472    0.833965   -0.939100
     18          1           0       -1.753107    0.956339    0.768987
     19          1           0       -0.441582   -0.792927    1.377063
     20          1           0       -1.054186   -2.406380    0.988537
     21          1           0        1.111614   -2.353280    0.058855
     22          1           0       -0.024439   -2.203532   -1.299716
     23          1           0        1.422115   -0.565215   -1.844372
     24          1           0        1.196501    2.383793   -0.346289
     25          1           0        0.529439    1.587092    1.118910
     26          1           0        2.156990    2.339303    1.170029
 ---------------------------------------------------------------------

 SCF Done:  E(UB3LYP) =  -916.422967603     A.U. after   25 cycles

 The electronic state is 2-A.
 Alpha  occ. eigenvalues --  -88.96419 -19.02486 -19.02103 -19.01910 -14.24405
 Alpha  occ. eigenvalues --  -10.12448 -10.11457 -10.10964 -10.10428 -10.06581
 Alpha  occ. eigenvalues --  -10.05880  -8.02645  -5.98929  -5.98893  -5.98703
 Alpha  occ. eigenvalues --   -1.02197  -0.93893  -0.91354  -0.82651  -0.69262
 Alpha  occ. eigenvalues --   -0.67574  -0.64389  -0.58396  -0.54101  -0.50106
 Alpha  occ. eigenvalues --   -0.48392  -0.43448  -0.41810  -0.39873  -0.39416
 Alpha  occ. eigenvalues --   -0.37646  -0.36721  -0.35114  -0.34288  -0.33313
 Alpha  occ. eigenvalues --   -0.32881  -0.32069  -0.29856  -0.28847  -0.25974
 Alpha  occ. eigenvalues --   -0.25605  -0.24333  -0.24157  -0.22730  -0.22100
 Alpha  occ. eigenvalues --   -0.21430  -0.21207  -0.19139  -0.15394   0.04414
 Alpha virt. eigenvalues --    0.06672   0.07186   0.07906   0.09332   0.09545
 Alpha virt. eigenvalues --    0.10217   0.10338   0.10924   0.12092   0.12559
 Alpha virt. eigenvalues --    0.12865   0.13569   0.14118   0.14724   0.15337

  Beta  occ. eigenvalues --  -88.96413 -19.02474 -19.02082 -19.01899 -14.24366
  Beta  occ. eigenvalues --  -10.12438 -10.11434 -10.10939 -10.10358 -10.06559
  Beta  occ. eigenvalues --  -10.05861  -8.02636  -5.98924  -5.98887  -5.98696
  Beta  occ. eigenvalues --   -1.02153  -0.93874  -0.91308  -0.82588  -0.69222
  Beta  occ. eigenvalues --   -0.67502  -0.64330  -0.58345  -0.54045  -0.50031
  Beta  occ. eigenvalues --   -0.48315  -0.43391  -0.41756  -0.39822  -0.39386
  Beta  occ. eigenvalues --   -0.37618  -0.36688  -0.35065  -0.34237  -0.33264
  Beta  occ. eigenvalues --   -0.32839  -0.32025  -0.29827  -0.28801  -0.25941
  Beta  occ. eigenvalues --   -0.25562  -0.24300  -0.24111  -0.22713  -0.22046
  Beta  occ. eigenvalues --   -0.21387  -0.21182  -0.19100  -0.15366
  Beta virt. eigenvalues --    0.06810   0.07589   0.07924   0.08393   0.09902
  Beta virt. eigenvalues --    0.10130   0.10435   0.11092   0.11343   0.12569
  Beta virt. eigenvalues --    0.12733   0.13284   0.13684   0.14235   0.14995

 Mulliken charges and spin densities:
               1          2
     1  C    0.046435  -0.544724
     2  C    0.191655  -0.614886
     3  C   -0.111798  -0.031339
     4  O   -0.114485   0.045312
     5  C    0.230010  -0.450826
     6  C    0.067552  -0.486031
     7  N   -0.495816   0.236553
     8  S    0.999962  -0.702264
     9  O   -0.280852   0.054565
    10  O   -0.260133   0.026647
    11  C    0.590105  -1.124568
    12  H    0.139081   0.012634
    13  H   -0.099804   0.230415
    14  H   -0.240557   0.365725
    15  H   -0.087928   0.235919
    16  H   -0.262033   0.403855
    17  H   -0.007240   0.230222
    18  H    0.322854  -0.200542
    19  H    0.125747   0.036961
    20  H   -0.025949   0.181802
    21  H    0.124236   0.075128
    22  H   -0.312488   0.503074
    23  H   -0.150183   0.489376
    24  H   -0.345826   0.577534
    25  H   -0.723627   0.919769
    26  H   -0.318919   0.529689
 Sum of Mulliken charges =  -1.00000   1.00000

 Dipole moment (field-independent basis, Debye):
    X=             -0.1854    Y=             -3.7426    Z=              1.2389  Tot=              3.9466
 Quadrupole moment (field-independent basis, Debye-Ang):
   XX=           -143.1983   YY=           -115.7943   ZZ=           -111.2281
   XY=              4.1630   XZ=              0.2955   YZ=             -2.0475

 Summary of Natural Population Analysis:

                                       Natural Population
                Natural  -----------------------------------------------
    Atom  No    Charge         Core      Valence    Rydberg      Total
 -----------------------------------------------------------------------
      C    1   -0.28632      0.99966     2.28206    0.00460     3.28632
      C    2   -0.19849      0.99964     2.18982    0.00904     3.19849
      C    3   -0.00911      0.99957     1.99612    0.01343     3.00911
      O    4   -0.30503      0.99988     3.29547    0.00968     4.30503
      C    5   -0.01034      0.99957     1.99904    0.01173     3.01034
      C    6   -0.10715      0.99960     2.09443    0.01311     3.10715
      N    7   -0.44209      0.99976     2.92757    0.01476     3.94209
      S    8    1.09099      4.99933     1.81099    0.09869     6.90901
      O    9   -0.46654      0.99991     3.46111    0.00552     4.46654
      O   10   -0.46615      0.99991     3.46043    0.00581     4.46615
      C   11   -0.38665      0.99961     2.37641    0.01063     3.38665
      H   12    0.10076      0.00000     0.39778    0.00146     0.39924
      H   13    0.09526      0.00000     0.40378    0.00096     0.40474
      H   14    0.09529      0.00000     0.40339    0.00131     0.40471
      H   15    0.09600      0.00000     0.40267    0.00133     0.40400
      H   16    0.09972      0.00000     0.39875    0.00152     0.40028
      H   17    0.09013      0.00000     0.40697    0.00290     0.40987
      H   18    0.07370      0.00000     0.42410    0.00219     0.42630
      H   19    0.08359      0.00000     0.41465    0.00176     0.41641
      H   20    0.08919      0.00000     0.40967    0.00114     0.41081
      H   21    0.09936      0.00000     0.39924    0.00140     0.40064
      H   22    0.10494      0.00000     0.39340    0.00167     0.39506
      H   23    0.20402      0.00000     0.29180    0.00419     0.29598
      H   24    0.12152      0.00000     0.37596    0.00252     0.37848
      H   25    0.11626      0.00000     0.38167    0.00207     0.38374
      H   26    0.11714      0.00000     0.38162    0.00124     0.38286
 =======================================================================
   * Total *   -0.00000     14.99643    33.77891    0.22466    49.00000

 Normal termination of Gaussian 16 at Tue Dec  8 20:00:57 2020.
