 Gaussian 16, Revision A.03,

 -----------------------------------------------------------
 # opt freq B3LYP/6-31G(d) empiricaldispersion=gd3bj scf=xqc
 -----------------------------------------------------------

 -------------------------------
 CID_134989069_JID_5976_neutraal
 -------------------------------
 Symbolic Z-matrix:
 Charge =  0 Multiplicity = 1

 SCF Done:  E(RB3LYP) =  -1008.13774137     A.U. after   15 cycles
 SCF Done:  E(RB3LYP) =  -1008.14639310     A.U. after   13 cycles
 SCF Done:  E(RB3LYP) =  -1008.14802020     A.U. after   15 cycles
 SCF Done:  E(RB3LYP) =  -1008.14867251     A.U. after   13 cycles
 SCF Done:  E(RB3LYP) =  -1008.14876282     A.U. after   12 cycles
 SCF Done:  E(RB3LYP) =  -1008.14897919     A.U. after   12 cycles
 SCF Done:  E(RB3LYP) =  -1008.14897886     A.U. after   11 cycles
 SCF Done:  E(RB3LYP) =  -1008.14900991     A.U. after   11 cycles
 SCF Done:  E(RB3LYP) =  -1008.14901530     A.U. after   10 cycles
 SCF Done:  E(RB3LYP) =  -1008.14901558     A.U. after    8 cycles
 SCF Done:  E(RB3LYP) =  -1008.14901561     A.U. after    7 cycles
 Optimization completed.
    -- Stationary point found.
 Normal termination of Gaussian 16 at Thu Dec 10 17:37:37 2020.

 --------------------------------------------------------------------
 #N Geom=AllCheck Guess=TCheck SCRF=Check GenChk RB3LYP/6-31G(d) Freq
 --------------------------------------------------------------------

 Structure from the checkpoint file:  "JID_5976.chk"
 -------------------------------
 CID_134989069_JID_5976_neutraal
 -------------------------------
 Charge =  0 Multiplicity = 1

 SCF Done:  E(RB3LYP) =  -1008.14901561     A.U. after    1 cycles

  Exact polarizability: 183.692  -8.772 142.569  -4.152 -10.538 103.745
 Approx polarizability: 286.404  -8.831 245.731  -9.647 -31.914 181.041

                      1                      2                      3
                      A                      A                      A
 Frequencies --     40.9256                51.4576                72.1638
 Red. masses --      3.7698                 5.3705                 3.4430
 Frc consts  --      0.0037                 0.0084                 0.0106
 IR Inten    --      1.0639                 0.6911                 1.2462

                      4                      5                      6
                      A                      A                      A
 Frequencies --     83.9386               124.7470               155.8449
 Red. masses --      5.8164                 2.0511                 2.8780
 Frc consts  --      0.0241                 0.0188                 0.0412
 IR Inten    --      0.0834                 0.3732                 1.8678

                      7                      8                      9
                      A                      A                      A
 Frequencies --    180.9636               221.0943               242.6772
 Red. masses --      1.9678                 6.4335                 4.2479
 Frc consts  --      0.0380                 0.1853                 0.1474
 IR Inten    --      0.2061                 3.3096                 3.8164

                     10                     11                     12
                      A                      A                      A
 Frequencies --    279.3028               345.0664               392.1536
 Red. masses --      5.1953                 7.9121                 7.4111
 Frc consts  --      0.2388                 0.5551                 0.6715
 IR Inten    --      2.0999                 0.9590                 1.5034

                     13                     14                     15
                      A                      A                      A
 Frequencies --    417.9622               422.0202               490.5732
 Red. masses --      7.0961                 3.3193                 5.6852
 Frc consts  --      0.7304                 0.3483                 0.8061
 IR Inten    --      0.1810                 0.0410                 8.3528

                     16                     17                     18
                      A                      A                      A
 Frequencies --    533.1543               549.4498               609.5056
 Red. masses --      6.3513                 5.8014                 5.4283
 Frc consts  --      1.0637                 1.0319                 1.1882
 IR Inten    --      5.9897                 6.6185                16.3203

                     19                     20                     21
                      A                      A                      A
 Frequencies --    615.6890               634.8912               667.1993
 Red. masses --      5.6093                 6.3322                 8.8735
 Frc consts  --      1.2528                 1.5038                 2.3273
 IR Inten    --      9.5678                 0.0631                 2.9835

                     22                     23                     24
                      A                      A                      A
 Frequencies --    698.6698               708.1380               745.1175
 Red. masses --      6.3748                 1.9281                 3.3220
 Frc consts  --      1.8334                 0.5696                 1.0867
 IR Inten    --      0.3384                29.9145                 1.9960

                     25                     26                     27
                      A                      A                      A
 Frequencies --    762.2122               778.0695               848.1903
 Red. masses --      6.0085                 2.0553                 1.2488
 Frc consts  --      2.0567                 0.7331                 0.5293
 IR Inten    --      1.1671                15.0935                 0.3088

                     28                     29                     30
                      A                      A                      A
 Frequencies --    855.6769               918.7402               926.0403
 Red. masses --      1.3142                 1.7743                 1.4779
 Frc consts  --      0.5669                 0.8824                 0.7467
 IR Inten    --     20.2982                 1.6821                 4.2633

                     31                     32                     33
                      A                      A                      A
 Frequencies --    948.0343               965.2042               994.7269
 Red. masses --      3.4846                 1.3501                 1.1907
 Frc consts  --      1.8452                 0.7411                 0.6942
 IR Inten    --      3.5467                 0.1299                 2.9993

                     34                     35                     36
                      A                      A                      A
 Frequencies --    995.5405              1013.1454              1025.2955
 Red. masses --      1.2493                 1.3286                 6.2842
 Frc consts  --      0.7295                 0.8035                 3.8923
 IR Inten    --      0.5955                20.1284                 3.4073

                     37                     38                     39
                      A                      A                      A
 Frequencies --   1031.4608              1063.9976              1110.5370
 Red. masses --      6.7181                 1.9712                 1.7791
 Frc consts  --      4.2112                 1.3148                 1.2927
 IR Inten    --      9.5710                 8.4002                 5.2151

                     40                     41                     42
                      A                      A                      A
 Frequencies --   1126.5323              1195.2443              1207.9609
 Red. masses --      3.7463                 1.1009                 1.4400
 Frc consts  --      2.8011                 0.9267                 1.2380
 IR Inten    --      7.7892                 0.1256                 5.7287

                     43                     44                     45
                      A                      A                      A
 Frequencies --   1210.8089              1219.5414              1293.3402
 Red. masses --      2.2801                 2.5480                 3.1247
 Frc consts  --      1.9695                 2.2328                 3.0795
 IR Inten    --     23.2208                40.0628                22.1250

                     46                     47                     48
                      A                      A                      A
 Frequencies --   1349.7143              1364.9173              1383.1842
 Red. masses --      2.2158                 2.2589                 1.2614
 Frc consts  --      2.3783                 2.4794                 1.4219
 IR Inten    --      0.5263                 1.9718                 0.3106

                     49                     50                     51
                      A                      A                      A
 Frequencies --   1386.0543              1428.7881              1494.0023
 Red. masses --      1.3610                 2.4420                 1.0822
 Frc consts  --      1.5406                 2.9371                 1.4232
 IR Inten    --      5.3108                50.1217                 8.2555

                     52                     53                     54
                      A                      A                      A
 Frequencies --   1501.1819              1515.8999              1527.0904
 Red. masses --      2.1798                 1.0775                 6.4590
 Frc consts  --      2.8943                 1.4588                 8.8746
 IR Inten    --     21.9402                16.5480               141.6355

                     55                     56                     57
                      A                      A                      A
 Frequencies --   1546.3833              1634.0773              1652.8583
 Red. masses --      2.3007                 7.1655                 6.0006
 Frc consts  --      3.2415                11.2731                 9.6586
 IR Inten    --     20.5476                20.8314                 2.4854

                     58                     59                     60
                      A                      A                      A
 Frequencies --   1660.9043              1777.1865              3077.7126
 Red. masses --      5.6588                11.6448                 1.0295
 Frc consts  --      9.1974                21.6695                 5.7455
 IR Inten    --      2.6124               317.5261                19.4921

                     61                     62                     63
                      A                      A                      A
 Frequencies --   3165.4592              3182.4101              3191.5320
 Red. masses --      1.1058                 1.1071                 1.0911
 Frc consts  --      6.5283                 6.6062                 6.5480
 IR Inten    --      3.1697                 2.2467                11.0259

                     64                     65                     66
                      A                      A                      A
 Frequencies --   3193.0059              3204.1237              3214.0647
 Red. masses --      1.0858                 1.0897                 1.0942
 Frc consts  --      6.5222                 6.5914                 6.6599
 IR Inten    --      0.0967                11.2148                27.2821

                     67                     68                     69
                      A                      A                      A
 Frequencies --   3228.4031              3230.3266              3238.5687
 Red. masses --      1.0939                 1.0956                 1.0925
 Frc consts  --      6.7175                 6.7357                 6.7512
 IR Inten    --      6.2791                 0.4072                 3.4404

 - Thermochemistry -
 -------------------
 Temperature   298.150 Kelvin.  Pressure   1.00000 Atm.
 Atom     1 has atomic number  6 and mass  12.00000

 Molecular mass:   218.05138 amu.
 Principal axes and moments of inertia in atomic units:
                           1         2         3
     Eigenvalues --  2216.264303606.426385013.38027
           X            1.00000  -0.00279  -0.00051
           Y            0.00280   0.99987   0.01564
           Z            0.00047  -0.01564   0.99988
 This molecule is an asymmetric top.
 Rotational symmetry number  1.
 Warning -- assumption of classical behavior for rotation
           may cause significant error
 Rotational temperatures (Kelvin)      0.03908     0.02402     0.01728
 Rotational constants (GHZ):           0.81432     0.50042     0.35998
 Zero-point vibrational energy     501958.2 (Joules/Mol)
                                  119.97088 (Kcal/Mol)
 Warning -- explicit consideration of  19 degrees of freedom as
           vibrations may cause significant error
 Vibrational temperatures:     58.88    74.04   103.83   120.77   179.48
          (Kelvin)            224.23   260.37   318.11   349.16   401.85
                              496.47   564.22   601.35   607.19   705.83
                              767.09   790.54   876.94   885.84   913.47
                              959.95  1005.23  1018.85  1072.06  1096.65
                             1119.47  1220.36  1231.13  1321.86  1332.37
                             1364.01  1388.71  1431.19  1432.36  1457.69
                             1475.17  1484.04  1530.86  1597.82  1620.83
                             1719.69  1737.99  1742.08  1754.65  1860.83
                             1941.94  1963.81  1990.09  1994.22  2055.71
                             2149.54  2159.87  2181.04  2197.14  2224.90
                             2351.07  2378.09  2389.67  2556.97  4428.14
                             4554.39  4578.78  4591.90  4594.02  4610.02
                             4624.32  4644.95  4647.72  4659.58

 Zero-point correction=                           0.191186 (Hartree/Particle)
 Thermal correction to Energy=                    0.204314
 Thermal correction to Enthalpy=                  0.205259
 Thermal correction to Gibbs Free Energy=         0.150290
 Sum of electronic and zero-point Energies=          -1007.957830
 Sum of electronic and thermal Energies=             -1007.944701
 Sum of electronic and thermal Enthalpies=           -1007.943757
 Sum of electronic and thermal Free Energies=        -1007.998726

                     E (Thermal)             CV                S
                      KCal/Mol        Cal/Mol-Kelvin    Cal/Mol-Kelvin
 Total                  128.209             49.627            115.692
 Electronic               0.000              0.000              0.000
 Translational            0.889              2.981             42.042
 Rotational               0.889              2.981             32.061
 Vibrational            126.432             43.665             41.590
 Vibration     1          0.594              1.981              5.214
 Vibration     2          0.596              1.977              4.761
 Vibration     3          0.598              1.967              4.093
 Vibration     4          0.601              1.960              3.797
 Vibration     5          0.610              1.928              3.025
 Vibration     6          0.620              1.896              2.600
 Vibration     7          0.630              1.866              2.318
 Vibration     8          0.648              1.809              1.950
 Vibration     9          0.659              1.775              1.783
 Vibration    10          0.680              1.712              1.538
 Vibration    11          0.723              1.585              1.189
 Vibration    12          0.760              1.487              0.992
 Vibration    13          0.781              1.431              0.899
 Vibration    14          0.784              1.422              0.885
 Vibration    15          0.846              1.271              0.682
 Vibration    16          0.888              1.177              0.580
 Vibration    17          0.905              1.141              0.545
 Vibration    18          0.968              1.012              0.434
 Vibration    19          0.975              0.999              0.423

 Optimization completed.
    -- Stationary point found.
 Normal termination of Gaussian 16 at Thu Dec 10 17:46:43 2020.

 ----------------------------------------------------------------------
 # B3LYP/6-311++G(d,p) empiricaldispersion=gd3bj scf=xqc pop=npa geom=c
 heck
 ----------------------------------------------------------------------

 ---------------------------------------
 CID_134989069_JID_5976_Energie_neutraal
 ---------------------------------------
 Structure from the checkpoint file:  "JID_5976.chk"
 Charge =  0 Multiplicity = 1

 SCF Done:  E(RB3LYP) =  -1008.33732953     A.U. after   17 cycles
 Normal termination of Gaussian 16 at Thu Dec 10 17:51:22 2020.

 ----------------------------------------------------------------------
 # B3LYP/6-311++G(d,p) empiricaldispersion=gd3bj scf=xqc pop=npa geom=c
 heck
 ----------------------------------------------------------------------

 -------------------------------------
 CID_134989069_JID_5976_Energie_kation
 -------------------------------------
 Structure from the checkpoint file:  "JID_5976.chk"
 Charge =  1 Multiplicity = 2

 SCF Done:  E(UB3LYP) =  -1008.03778609     A.U. after   30 cycles
 Normal termination of Gaussian 16 at Thu Dec 10 18:02:11 2020.
 Gaussian 16:  ES64L-G16RevA.03 25-Dec-2016

 ----------------------------------------------------------------------
 # B3LYP/6-311++G(d,p) empiricaldispersion=gd3bj scf=xqc pop=npa geom=c
 heck
 ----------------------------------------------------------------------

 ------------------------------------
 CID_134989069_JID_5976_Energie_anion
 ------------------------------------
 Structure from the checkpoint file:  "JID_5976.chk"
 Charge = -1 Multiplicity = 2

                         Standard orientation:
 ---------------------------------------------------------------------
 Center     Atomic      Atomic             Coordinates (Angstroms)
 Number     Number       Type             X           Y           Z
 ---------------------------------------------------------------------
      1          6           0       -0.296166    2.481712    1.283439
      2         16           0        0.614525    2.325316   -0.300403
      3          6           0        1.361106    0.718251   -0.142923
      4          6           0        2.727262    0.619699   -0.172728
      5          7           0        3.387704   -0.577767   -0.136545
      6          6           0        2.681037   -1.662070   -0.019965
      7          6           0        1.222676   -1.717491    0.065704
      8          8           0        0.568994   -2.741250    0.201477
      9          7           0        0.602282   -0.438039   -0.048593
     10          6           0       -0.837353   -0.425011   -0.100389
     11          6           0       -1.484042   -0.037050   -1.272167
     12          6           0       -2.877690   -0.020534   -1.311481
     13          6           0       -3.615630   -0.406109   -0.191637
     14          6           0       -2.958422   -0.815181    0.970385
     15          6           0       -1.565597   -0.827300    1.019224
     16          1           0       -0.654476    3.513794    1.314481
     17          1           0        0.375824    2.308828    2.126813
     18          1           0       -1.145553    1.798896    1.323923
     19          1           0        3.331386    1.517305   -0.222932
     20          1           0        3.189266   -2.623304    0.017706
     21          1           0       -0.898943    0.253315   -2.137309
     22          1           0       -3.384503    0.288769   -2.220473
     23          1           0       -4.701002   -0.395528   -0.226538
     24          1           0       -3.528637   -1.128896    1.839473
     25          1           0       -1.040707   -1.151098    1.910700
 ---------------------------------------------------------------------

 SCF Done:  E(UB3LYP) =  -1008.36207950     A.U. after   27 cycles

 The electronic state is 2-A.
 Alpha  occ. eigenvalues --  -88.72419 -18.93428 -14.22006 -14.14597 -10.11562
 Alpha  occ. eigenvalues --  -10.09419 -10.08718 -10.07411 -10.06917 -10.06911
 Alpha  occ. eigenvalues --  -10.06696 -10.06392 -10.06248 -10.04909 -10.02934
 Alpha  occ. eigenvalues --   -7.80957  -5.77364  -5.76988  -5.76333  -0.89451
 Alpha  occ. eigenvalues --   -0.82755  -0.77343  -0.73942  -0.67529  -0.64180
 Alpha  occ. eigenvalues --   -0.63704  -0.60276  -0.53918  -0.52253  -0.50343
 Alpha  occ. eigenvalues --   -0.47740  -0.46864  -0.42026  -0.38182  -0.37838
 Alpha  occ. eigenvalues --   -0.35546  -0.33990  -0.32754  -0.31974  -0.31391
 Alpha  occ. eigenvalues --   -0.30494  -0.29405  -0.28657  -0.27117  -0.26029
 Alpha  occ. eigenvalues --   -0.25289  -0.24776  -0.24255  -0.22188  -0.20541
 Alpha  occ. eigenvalues --   -0.18438  -0.15703  -0.14538  -0.14075  -0.11056
 Alpha  occ. eigenvalues --   -0.09080  -0.07814   0.03293
 Alpha virt. eigenvalues --    0.07390   0.08538   0.09100   0.09342   0.09435
 Alpha virt. eigenvalues --    0.10363   0.11032   0.11288   0.12195   0.13139
 Alpha virt. eigenvalues --    0.13352   0.13680   0.14307   0.14636   0.15550

  Beta  occ. eigenvalues --  -88.72419 -18.93306 -14.21731 -14.14180 -10.11531
  Beta  occ. eigenvalues --  -10.09370 -10.08376 -10.07309 -10.06931 -10.06918
  Beta  occ. eigenvalues --  -10.06618 -10.06362 -10.06206 -10.05008 -10.02592
  Beta  occ. eigenvalues --   -7.80955  -5.77361  -5.76999  -5.76324  -0.89146
  Beta  occ. eigenvalues --   -0.82295  -0.76696  -0.73705  -0.67205  -0.64111
  Beta  occ. eigenvalues --   -0.63506  -0.59919  -0.53361  -0.52031  -0.50285
  Beta  occ. eigenvalues --   -0.47539  -0.46506  -0.41845  -0.38044  -0.37491
  Beta  occ. eigenvalues --   -0.35268  -0.33925  -0.32594  -0.31918  -0.31286
  Beta  occ. eigenvalues --   -0.30343  -0.28734  -0.28229  -0.26816  -0.25728
  Beta  occ. eigenvalues --   -0.25179  -0.24608  -0.24020  -0.21620  -0.19439
  Beta  occ. eigenvalues --   -0.16865  -0.15470  -0.13963  -0.13769  -0.10800
  Beta  occ. eigenvalues --   -0.08673  -0.06417
  Beta virt. eigenvalues --    0.07251   0.08109   0.09010   0.09099   0.09460
  Beta virt. eigenvalues --    0.10280   0.10889   0.11220   0.11373   0.12188
  Beta virt. eigenvalues --    0.13078   0.13329   0.13832   0.14630   0.14753

 Mulliken charges and spin densities:
               1          2
     1  C   -0.391464  -0.218434
     2  S   -0.309699   0.124041
     3  C   -0.376150   0.296314
     4  C    0.185750  -0.103065
     5  N   -0.136440   0.187540
     6  C   -0.323623   0.267781
     7  C    0.131111   0.055069
     8  O   -0.360493   0.040579
     9  N    0.630856   0.048117
    10  C   -1.308694   0.090924
    11  C    0.205022   0.007130
    12  C   -0.220962   0.018675
    13  C   -0.380526   0.040236
    14  C   -0.126035  -0.057879
    15  C    0.440073   0.041712
    16  H    0.056308   0.084684
    17  H    0.114726   0.056522
    18  H    0.143179   0.024258
    19  H    0.161667   0.004258
    20  H    0.148501  -0.022715
    21  H    0.150471  -0.001782
    22  H    0.151936   0.001114
    23  H    0.117062  -0.002910
    24  H    0.141872   0.011646
    25  H    0.155551   0.006188
 Sum of Mulliken charges =  -1.00000   1.00000

 Dipole moment (field-independent basis, Debye):
    X=             -5.9738    Y=              3.7452    Z=              0.4596  Tot=              7.0657
 Quadrupole moment (field-independent basis, Debye-Ang):
   XX=           -130.7633   YY=           -127.3489   ZZ=           -100.0755
   XY=              4.2379   XZ=              0.8023   YZ=              0.1577

 Summary of Natural Population Analysis:

                                       Natural Population
                Natural  -----------------------------------------------
    Atom  No    Charge         Core      Valence    Rydberg      Total
 -----------------------------------------------------------------------
      C    1   -0.33958      0.99961     2.33347    0.00649     3.33958
      S    2    0.09741      4.99957     2.88112    0.02190     7.90259
      C    3    0.06813      0.99943     1.91464    0.01780     2.93187
      C    4   -0.05495      0.99949     2.04104    0.01442     3.05495
      N    5   -0.16970      0.99970     2.65695    0.01305     3.66970
      C    6    0.05349      0.99960     1.93157    0.01534     2.94651
      C    7    0.30947      0.99963     1.66894    0.02197     2.69053
      O    8   -0.32323      0.99988     3.31691    0.00644     4.32323
      N    9   -0.21200      0.99957     2.69922    0.01321     3.71200
      C   10    0.09252      0.99946     1.89254    0.01548     2.90748
      C   11   -0.09039      0.99950     2.08261    0.00828     3.09039
      C   12   -0.10897      0.99957     2.10040    0.00901     3.10897
      C   13   -0.09693      0.99957     2.08846    0.00889     3.09693
      C   14   -0.11157      0.99957     2.10334    0.00866     3.11157
      C   15   -0.08555      0.99950     2.07698    0.00907     3.08555
      H   16    0.09806      0.00000     0.40028    0.00166     0.40194
      H   17    0.09941      0.00000     0.39882    0.00177     0.40059
      H   18    0.10525      0.00000     0.39256    0.00219     0.39475
      H   19    0.09062      0.00000     0.40813    0.00126     0.40938
      H   20    0.07915      0.00000     0.41951    0.00134     0.42085
      H   21    0.10719      0.00000     0.39189    0.00093     0.39281
      H   22    0.09530      0.00000     0.40372    0.00099     0.40470
      H   23    0.09305      0.00000     0.40597    0.00098     0.40695
      H   24    0.09511      0.00000     0.40347    0.00141     0.40489
      H   25    0.10871      0.00000     0.39022    0.00107     0.39129
 =======================================================================
   * Total *   -0.00000     18.99366    37.80275    0.20359    57.00000

 Normal termination of Gaussian 16 at Thu Dec 10 18:12:05 2020.
