 Gaussian 16, Revision A.03,

 -----------------------------------------------------------
 # opt freq B3LYP/6-31G(d) empiricaldispersion=gd3bj scf=xqc
 -----------------------------------------------------------

 -------------------------------
 CID_115155735_JID_9161_neutraal
 -------------------------------
 Symbolic Z-matrix:
 Charge =  0 Multiplicity = 1

 SCF Done:  E(RB3LYP) =  -895.623102007     A.U. after   15 cycles
 SCF Done:  E(RB3LYP) =  -895.634149729     A.U. after   13 cycles
 SCF Done:  E(RB3LYP) =  -895.635897721     A.U. after   12 cycles
 SCF Done:  E(RB3LYP) =  -895.634060694     A.U. after   15 cycles
 SCF Done:  E(RB3LYP) =  -895.637432289     A.U. after   13 cycles
 SCF Done:  E(RB3LYP) =  -895.638716128     A.U. after   12 cycles
 SCF Done:  E(RB3LYP) =  -895.640167978     A.U. after   12 cycles
 SCF Done:  E(RB3LYP) =  -895.640858375     A.U. after   13 cycles
 SCF Done:  E(RB3LYP) =  -895.641342922     A.U. after   12 cycles
 SCF Done:  E(RB3LYP) =  -895.641682061     A.U. after   11 cycles
 SCF Done:  E(RB3LYP) =  -895.643543050     A.U. after    9 cycles
 SCF Done:  E(RB3LYP) =  -895.643547632     A.U. after   10 cycles
 SCF Done:  E(RB3LYP) =  -895.643550119     A.U. after    9 cycles
 SCF Done:  E(RB3LYP) =  -895.643551250     A.U. after    9 cycles
 SCF Done:  E(RB3LYP) =  -895.643551404     A.U. after    8 cycles
 Optimization completed.
    -- Stationary point found.
 Normal termination of Gaussian 16 at Mon Dec 14 17:10:35 2020.

 --------------------------------------------------------------------
 #N Geom=AllCheck Guess=TCheck SCRF=Check GenChk RB3LYP/6-31G(d) Freq
 --------------------------------------------------------------------

 Structure from the checkpoint file:  "JID_9161.chk"
 -------------------------------
 CID_115155735_JID_9161_neutraal
 -------------------------------
 Charge =  0 Multiplicity = 1

 SCF Done:  E(RB3LYP) =  -895.643551404     A.U. after    1 cycles

  Exact polarizability: 199.593  22.646 130.960  -7.866  -2.140 137.701
 Approx polarizability: 292.578  45.995 191.288 -19.354  -1.740 246.867

                      1                      2                      3
                      A                      A                      A
 Frequencies --     25.1011                31.0429                49.1611
 Red. masses --      4.3613                 5.8537                 6.1572
 Frc consts  --      0.0016                 0.0033                 0.0088
 IR Inten    --      0.8610                 0.6350                 1.2388

                      4                      5                      6
                      A                      A                      A
 Frequencies --     57.3118                81.2025               103.9907
 Red. masses --      4.3911                 3.8347                 7.7782
 Frc consts  --      0.0085                 0.0149                 0.0496
 IR Inten    --      0.6937                 0.0458                 0.3045

                      7                      8                      9
                      A                      A                      A
 Frequencies --    119.8970               160.3337               169.7807
 Red. masses --      2.7555                 4.4413                 6.8804
 Frc consts  --      0.0233                 0.0673                 0.1169
 IR Inten    --      0.8992                 1.1867                 1.5124

                     10                     11                     12
                      A                      A                      A
 Frequencies --    193.1112               219.4949               253.6311
 Red. masses --      2.8330                 1.7137                 3.5310
 Frc consts  --      0.0622                 0.0486                 0.1338
 IR Inten    --      2.2314                 0.4262                 1.4385

                     13                     14                     15
                      A                      A                      A
 Frequencies --    266.1908               278.7479               297.1961
 Red. masses --      2.9910                 1.7680                 5.2786
 Frc consts  --      0.1249                 0.0809                 0.2747
 IR Inten    --      0.2035                 3.1628                 2.2880

                     16                     17                     18
                      A                      A                      A
 Frequencies --    320.5918               360.1823               374.1793
 Red. masses --      2.5688                 5.4819                 3.5311
 Frc consts  --      0.1556                 0.4190                 0.2913
 IR Inten    --     11.4733                 4.1014                12.4433

                     19                     20                     21
                      A                      A                      A
 Frequencies --    385.1070               419.5881               456.7321
 Red. masses --      1.9153                 2.0274                 1.5528
 Frc consts  --      0.1674                 0.2103                 0.1908
 IR Inten    --      2.7887                26.1966                89.7415

                     22                     23                     24
                      A                      A                      A
 Frequencies --    481.9887               491.9002               509.7624
 Red. masses --      2.6300                 1.4223                 4.3982
 Frc consts  --      0.3600                 0.2028                 0.6734
 IR Inten    --     10.5436                53.4161                17.9274

                     25                     26                     27
                      A                      A                      A
 Frequencies --    573.4124               578.5646               595.0460
 Red. masses --      6.1647                 3.7190                 4.1066
 Frc consts  --      1.1943                 0.7335                 0.8567
 IR Inten    --      8.2985                 3.5127                 4.7476

                     28                     29                     30
                      A                      A                      A
 Frequencies --    601.5890               632.4399               684.6842
 Red. masses --      3.4792                 2.3386                 3.7473
 Frc consts  --      0.7419                 0.5511                 1.0350
 IR Inten    --     12.6979                40.6061                13.1477

                     31                     32                     33
                      A                      A                      A
 Frequencies --    722.0467               728.9361               731.7469
 Red. masses --      3.5237                 2.3779                 2.6798
 Frc consts  --      1.0824                 0.7444                 0.8454
 IR Inten    --     17.4129                25.8680                24.7563

                     34                     35                     36
                      A                      A                      A
 Frequencies --    742.9090               762.0880               786.6465
 Red. masses --     10.0202                 2.2989                 4.1290
 Frc consts  --      3.2584                 0.7866                 1.5054
 IR Inten    --     10.8781                33.7771                 4.8666

                     37                     38                     39
                      A                      A                      A
 Frequencies --    826.7950               833.9176               861.5065
 Red. masses --      1.8572                 2.0845                 1.3802
 Frc consts  --      0.7480                 0.8541                 0.6035
 IR Inten    --     21.7810                13.8821                 9.2157

                     40                     41                     42
                      A                      A                      A
 Frequencies --    875.8129               889.1372               930.3189
 Red. masses --      6.6169                 2.2703                 7.4952
 Frc consts  --      2.9904                 1.0575                 3.8220
 IR Inten    --      1.8245                17.1607                86.1598

                     43                     44                     45
                      A                      A                      A
 Frequencies --    939.0916               940.5151               967.2627
 Red. masses --      1.4412                 1.7222                 2.7793
 Frc consts  --      0.7489                 0.8976                 1.5321
 IR Inten    --      2.9234                 2.8509                19.8894

                     46                     47                     48
                      A                      A                      A
 Frequencies --    980.4091              1021.3395              1036.6182
 Red. masses --      1.9477                 1.9516                 1.5700
 Frc consts  --      1.1030                 1.1994                 0.9940
 IR Inten    --     17.7157                 0.9624                 1.6669

                     49                     50                     51
                      A                      A                      A
 Frequencies --   1094.4126              1107.5441              1133.8464
 Red. masses --      2.4089                 3.5397                 2.5549
 Frc consts  --      1.6999                 2.5582                 1.9353
 IR Inten    --      4.1690                11.0618                19.7325

                     52                     53                     54
                      A                      A                      A
 Frequencies --   1153.0544              1161.2884              1161.9067
 Red. masses --      1.8331                 1.3987                 1.4694
 Frc consts  --      1.4359                 1.1114                 1.1688
 IR Inten    --     30.1612                 6.1858                12.9694

                     55                     56                     57
                      A                      A                      A
 Frequencies --   1190.8140              1195.0786              1228.5940
 Red. masses --      1.8159                 1.8891                 1.4893
 Frc consts  --      1.5172                 1.5896                 1.3245
 IR Inten    --     17.4781                12.1441                 9.4931

                     58                     59                     60
                      A                      A                      A
 Frequencies --   1267.7069              1284.3583              1291.1998
 Red. masses --      1.6336                 1.4350                 2.6868
 Frc consts  --      1.5468                 1.3947                 2.6392
 IR Inten    --     53.5852                 1.1602               117.7929

                     61                     62                     63
                      A                      A                      A
 Frequencies --   1298.0913              1311.3947              1329.8600
 Red. masses --      2.3747                 2.3390                 1.8945
 Frc consts  --      2.3576                 2.3700                 1.9740
 IR Inten    --     42.6121                57.0576                81.1293

                     64                     65                     66
                      A                      A                      A
 Frequencies --   1342.3096              1362.7912              1383.1088
 Red. masses --      1.2496                 1.8700                 1.8863
 Frc consts  --      1.3266                 2.0462                 2.1261
 IR Inten    --      2.9144                29.9335                41.9564

                     67                     68                     69
                      A                      A                      A
 Frequencies --   1401.8737              1406.8370              1430.3779
 Red. masses --      1.4099                 1.3446                 1.7540
 Frc consts  --      1.6325                 1.5679                 2.1144
 IR Inten    --      5.1075                24.2671                14.6147

                     70                     71                     72
                      A                      A                      A
 Frequencies --   1447.5826              1479.0669              1482.2854
 Red. masses --      1.8264                 1.1694                 1.6703
 Frc consts  --      2.2550                 1.5073                 2.1622
 IR Inten    --     16.7712                 2.4981                43.2784

                     73                     74                     75
                      A                      A                      A
 Frequencies --   1498.2297              1504.8278              1514.4023
 Red. masses --      1.1017                 1.0957                 1.1277
 Frc consts  --      1.4571                 1.4620                 1.5238
 IR Inten    --     13.2407                 8.7444                13.7972

                     76                     77                     78
                      A                      A                      A
 Frequencies --   1516.6035              1520.8172              1522.1168
 Red. masses --      3.9379                 1.1503                 1.0915
 Frc consts  --      5.3365                 1.5675                 1.4900
 IR Inten    --    114.4497                12.7027                11.8032

                     79                     80                     81
                      A                      A                      A
 Frequencies --   1526.6384              1544.3747              1550.1428
 Red. masses --      1.1556                 2.6796                 1.0692
 Frc consts  --      1.5868                 3.7655                 1.5137
 IR Inten    --      9.4502                46.2741                 3.3018

                     82                     83                     84
                      A                      A                      A
 Frequencies --   1673.4836              1684.7066              1788.5084
 Red. masses --      7.5303                 7.0781                 8.1212
 Frc consts  --     12.4252                11.8363                15.3056
 IR Inten    --      8.6688                17.1402               327.7427

                     85                     86                     87
                      A                      A                      A
 Frequencies --   1923.4061              2943.5968              3039.4510
 Red. masses --     11.7380                 1.0622                 1.0686
 Frc consts  --     25.5850                 5.4226                 5.8164
 IR Inten    --    910.2759                65.7025                19.3273

                     88                     89                     90
                      A                      A                      A
 Frequencies --   3040.5854              3056.5061              3060.9751
 Red. masses --      1.0691                 1.0606                 1.0657
 Frc consts  --      5.8237                 5.8377                 5.8832
 IR Inten    --     39.3710                35.1913                33.6945

                     91                     92                     93
                      A                      A                      A
 Frequencies --   3065.6592              3093.6716              3101.1147
 Red. masses --      1.0702                 1.1046                 1.0958
 Frc consts  --      5.9261                 6.2288                 6.2090
 IR Inten    --     41.7715                12.7397                12.6840

                     94                     95                     96
                      A                      A                      A
 Frequencies --   3110.9207              3112.4153              3127.8077
 Red. masses --      1.1010                 1.1001                 1.0909
 Frc consts  --      6.2779                 6.2787                 6.2878
 IR Inten    --     28.9823                30.3128                23.1998

                     97                     98                     99
                      A                      A                      A
 Frequencies --   3199.4048              3209.3359              3238.6349
 Red. masses --      1.0911                 1.0890                 1.0941
 Frc consts  --      6.5804                 6.6085                 6.7614
 IR Inten    --      5.5795                 3.1687                 1.1451

                    100                    101                    102
                      A                      A                      A
 Frequencies --   3543.0335              3606.2375              3678.3740
 Red. masses --      1.0736                 1.0767                 1.0803
 Frc consts  --      7.9402                 8.2498                 8.6120
 IR Inten    --     11.9882                24.5551                80.2899

 - Thermochemistry -
 -------------------
 Temperature   298.150 Kelvin.  Pressure   1.00000 Atm.
 Atom     1 has atomic number  6 and mass  12.00000

 Molecular mass:   263.12699 amu.
 Principal axes and moments of inertia in atomic units:
                           1         2         3
     Eigenvalues --  2638.458427342.737958548.12183
           X            0.99997  -0.00730   0.00200
           Y            0.00731   0.99995  -0.00675
           Z           -0.00195   0.00676   0.99998
 This molecule is an asymmetric top.
 Rotational symmetry number  1.
 Warning -- assumption of classical behavior for rotation
           may cause significant error
 Rotational temperatures (Kelvin)      0.03283     0.01180     0.01013
 Rotational constants (GHZ):           0.68401     0.24579     0.21113
 Zero-point vibrational energy     785291.1 (Joules/Mol)
                                  187.68908 (Kcal/Mol)
 Warning -- explicit consideration of  28 degrees of freedom as
           vibrations may cause significant error
 Vibrational temperatures:     36.11    44.66    70.73    82.46   116.83
          (Kelvin)            149.62   172.51   230.68   244.28   277.84
                              315.80   364.92   382.99   401.06   427.60
                              461.26   518.22   538.36   554.08   603.69
                              657.14   693.47   707.73   733.43   825.01
                              832.43   856.14   865.55   909.94   985.11
                             1038.86  1048.78  1052.82  1068.88  1096.47
                             1131.81  1189.57  1199.82  1239.52  1260.10
                             1279.27  1338.52  1351.14  1353.19  1391.68
                             1410.59  1469.48  1491.46  1574.62  1593.51
                             1631.35  1658.99  1670.84  1671.72  1713.32
                             1719.45  1767.67  1823.95  1847.91  1857.75
                             1867.66  1886.80  1913.37  1931.28  1960.75
                             1989.99  2016.98  2024.12  2057.99  2082.75
                             2128.05  2132.68  2155.62  2165.11  2178.89
                             2182.05  2188.12  2189.99  2196.49  2222.01
                             2230.31  2407.77  2423.92  2573.26  2767.35
                             4235.18  4373.09  4374.72  4397.63  4404.06
                             4410.80  4451.10  4461.81  4475.92  4478.07
                             4500.22  4603.23  4617.52  4659.67  5097.63
                             5188.57  5292.36

 Zero-point correction=                           0.299102 (Hartree/Particle)
 Thermal correction to Energy=                    0.316814
 Thermal correction to Enthalpy=                  0.317759
 Thermal correction to Gibbs Free Energy=         0.252189
 Sum of electronic and zero-point Energies=           -895.344450
 Sum of electronic and thermal Energies=              -895.326737
 Sum of electronic and thermal Enthalpies=            -895.325793
 Sum of electronic and thermal Free Energies=         -895.391363

                     E (Thermal)             CV                S
                      KCal/Mol        Cal/Mol-Kelvin    Cal/Mol-Kelvin
 Total                  198.804             67.692            138.003
 Electronic               0.000              0.000              0.000
 Translational            0.889              2.981             42.602
 Rotational               0.889              2.981             33.471
 Vibrational            197.027             61.730             61.931
 Vibration     1          0.593              1.985              6.183
 Vibration     2          0.594              1.983              5.762
 Vibration     3          0.595              1.978              4.851
 Vibration     4          0.596              1.975              4.548
 Vibration     5          0.600              1.962              3.862
 Vibration     6          0.605              1.946              3.378
 Vibration     7          0.609              1.933              3.102
 Vibration     8          0.622              1.891              2.546
 Vibration     9          0.625              1.880              2.438
 Vibration    10          0.635              1.849              2.198
 Vibration    11          0.647              1.811              1.963
 Vibration    12          0.665              1.757              1.705
 Vibration    13          0.672              1.735              1.621
 Vibration    14          0.679              1.713              1.541
 Vibration    15          0.691              1.679              1.433
 Vibration    16          0.706              1.634              1.307
 Vibration    17          0.735              1.554              1.121
 Vibration    18          0.745              1.525              1.063
 Vibration    19          0.754              1.502              1.019
 Vibration    20          0.782              1.428              0.893
 Vibration    21          0.815              1.346              0.776
 Vibration    22          0.838              1.290              0.705
 Vibration    23          0.848              1.268              0.679
 Vibration    24          0.865              1.228              0.634
 Vibration    25          0.930              1.089              0.498
 Vibration    26          0.935              1.078              0.488
 Vibration    27          0.953              1.042              0.458
 Vibration    28          0.960              1.028              0.447

                           ! Non-Optimized Parameters !
 Normal termination of Gaussian 16 at Mon Dec 14 17:31:59 2020.

 ----------------------------------------------------------------------
 # B3LYP/6-311++G(d,p) empiricaldispersion=gd3bj scf=xqc pop=npa geom=c
 heck
 ----------------------------------------------------------------------

 ---------------------------------------
 CID_115155735_JID_9161_Energie_neutraal
 ---------------------------------------
 Structure from the checkpoint file:  "JID_9161.chk"
 Charge =  0 Multiplicity = 1

 SCF Done:  E(RB3LYP) =  -895.902179492     A.U. after   16 cycles
 Normal termination of Gaussian 16 at Mon Dec 14 17:41:39 2020.

 ----------------------------------------------------------------------
 # B3LYP/6-311++G(d,p) empiricaldispersion=gd3bj scf=xqc pop=npa geom=c
 heck
 ----------------------------------------------------------------------

 -------------------------------------
 CID_115155735_JID_9161_Energie_kation
 -------------------------------------
 Structure from the checkpoint file:  "JID_9161.chk"
 Charge =  1 Multiplicity = 2

 SCF Done:  E(UB3LYP) =  -895.610605710     A.U. after   25 cycles
 Normal termination of Gaussian 16 at Mon Dec 14 18:03:51 2020.
 Gaussian 16:  ES64L-G16RevA.03 25-Dec-2016

 ----------------------------------------------------------------------
 # B3LYP/6-311++G(d,p) empiricaldispersion=gd3bj scf=xqc pop=npa geom=c
 heck
 ----------------------------------------------------------------------

 ------------------------------------
 CID_115155735_JID_9161_Energie_anion
 ------------------------------------
 Structure from the checkpoint file:  "JID_9161.chk"
 Charge = -1 Multiplicity = 2

                         Standard orientation:
 ---------------------------------------------------------------------
 Center     Atomic      Atomic             Coordinates (Angstroms)
 Number     Number       Type             X           Y           Z
 ---------------------------------------------------------------------
      1          6           0        0.216438    2.502517   -0.298884
      2          7           0       -0.606626    1.927124    0.751437
      3          6           0       -2.026085    2.265673    0.695529
      4          6           0       -2.783877    1.939192   -0.608134
      5          6           0       -2.625900    0.482098   -1.050890
      6          6           0       -3.241882   -0.498806   -0.059003
      7          8           0       -4.177543   -0.196666    0.670692
      8          7           0       -2.731896   -1.776342   -0.046039
      9          6           0       -1.539541   -2.257063   -0.727431
     10          6           0       -0.234445   -1.677260   -0.200886
     11          6           0        0.743294   -1.243523   -1.110749
     12          6           0        1.910016   -0.700719   -0.593664
     13          6           0        2.105626   -0.589722    0.787321
     14          6           0        1.160599   -1.012677    1.700447
     15          6           0       -0.019287   -1.561668    1.179251
     16          8           0        3.321449    0.005753    1.035793
     17          6           0        3.928886    0.288616   -0.187895
     18          8           0        5.003872    0.809641   -0.307501
     19          7           0        3.049673   -0.149924   -1.167126
     20          1           0        0.125891    3.595181   -0.268961
     21          1           0       -0.029272    2.179551   -1.328172
     22          1           0        1.266522    2.251926   -0.113027
     23          1           0       -0.484555    0.919382    0.780062
     24          1           0       -2.518160    1.746514    1.524356
     25          1           0       -2.123102    3.341986    0.892490
     26          1           0       -3.845744    2.155701   -0.453334
     27          1           0       -2.434785    2.586625   -1.421637
     28          1           0       -3.132533    0.324094   -2.013608
     29          1           0       -1.570026    0.255534   -1.217713
     30          1           0       -3.181042   -2.380803    0.629600
     31          1           0       -1.535677   -3.347091   -0.617374
     32          1           0       -1.616322   -2.060475   -1.802907
     33          1           0        0.576014   -1.313639   -2.181500
     34          1           0        1.320490   -0.904383    2.766818
     35          1           0       -0.799888   -1.878997    1.863020
     36          1           0        3.258854   -0.046887   -2.147960
 ---------------------------------------------------------------------

 SCF Done:  E(UB3LYP) =  -895.902013104     A.U. after   33 cycles
 SCF Done:  E(UB3LYP) =  -895.902013104     a.u. after    1 cycles

 The electronic state is 2-A.
 Alpha  occ. eigenvalues --  -19.10385 -19.02406 -18.99897 -14.28283 -14.24573
 Alpha  occ. eigenvalues --  -14.20239 -10.24557 -10.18379 -10.14772 -10.13963
 Alpha  occ. eigenvalues --  -10.12535 -10.09929 -10.09803 -10.09637 -10.09610
 Alpha  occ. eigenvalues --  -10.09161 -10.09096 -10.08896 -10.07909  -1.05189
 Alpha  occ. eigenvalues --   -0.95949  -0.95013  -0.87259  -0.83554  -0.81128
 Alpha  occ. eigenvalues --   -0.77440  -0.69749  -0.68686  -0.66772  -0.62298
 Alpha  occ. eigenvalues --   -0.60953  -0.57369  -0.57020  -0.54027  -0.53634
 Alpha  occ. eigenvalues --   -0.51236  -0.47017  -0.46501  -0.44209  -0.41700
 Alpha  occ. eigenvalues --   -0.41035  -0.40628  -0.39965  -0.39332  -0.37707
 Alpha  occ. eigenvalues --   -0.37439  -0.36369  -0.35917  -0.34837  -0.33912
 Alpha  occ. eigenvalues --   -0.32973  -0.32452  -0.31732  -0.30471  -0.30273
 Alpha  occ. eigenvalues --   -0.29536  -0.28906  -0.28539  -0.28050  -0.27201
 Alpha  occ. eigenvalues --   -0.26037  -0.25621  -0.25124  -0.23287  -0.21484
 Alpha  occ. eigenvalues --   -0.17421  -0.16866  -0.16612  -0.13894  -0.13112
 Alpha  occ. eigenvalues --    0.03513
 Alpha virt. eigenvalues --    0.05641   0.06076   0.06857   0.07434   0.07863
 Alpha virt. eigenvalues --    0.08670   0.08812   0.09325   0.09503   0.10091
 Alpha virt. eigenvalues --    0.10759   0.11569   0.11852   0.12070   0.12302

  Beta  occ. eigenvalues --  -19.10380 -19.02396 -18.99896 -14.28241 -14.24552
  Beta  occ. eigenvalues --  -14.20238 -10.24545 -10.18379 -10.14705 -10.13981
  Beta  occ. eigenvalues --  -10.12510 -10.09929 -10.09762 -10.09602 -10.09561
  Beta  occ. eigenvalues --  -10.09107 -10.09064 -10.08882 -10.07906  -1.05155
  Beta  occ. eigenvalues --   -0.95927  -0.95008  -0.87210  -0.83509  -0.81124
  Beta  occ. eigenvalues --   -0.77340  -0.69734  -0.68543  -0.66683  -0.62271
  Beta  occ. eigenvalues --   -0.60886  -0.57318  -0.56944  -0.53974  -0.53540
  Beta  occ. eigenvalues --   -0.51213  -0.46955  -0.46417  -0.44156  -0.41655
  Beta  occ. eigenvalues --   -0.40972  -0.40544  -0.39928  -0.39298  -0.37669
  Beta  occ. eigenvalues --   -0.37377  -0.36284  -0.35884  -0.34823  -0.33898
  Beta  occ. eigenvalues --   -0.32923  -0.32426  -0.31690  -0.30400  -0.30225
  Beta  occ. eigenvalues --   -0.29463  -0.28851  -0.28523  -0.27981  -0.27147
  Beta  occ. eigenvalues --   -0.26022  -0.25610  -0.25114  -0.23158  -0.21466
  Beta  occ. eigenvalues --   -0.17348  -0.16837  -0.16257  -0.13718  -0.13074
  Beta virt. eigenvalues --    0.06212   0.06505   0.06651   0.07525   0.07690
  Beta virt. eigenvalues --    0.08078   0.08948   0.09429   0.09531   0.09701
  Beta virt. eigenvalues --    0.10323   0.10942   0.11707   0.12066   0.12321

 Mulliken charges and spin densities:
               1          2
     1  C   -0.377541  -0.071500
     2  N   -0.150085   0.000571
     3  C   -0.420864   0.013893
     4  C   -0.287415  -0.213074
     5  C    0.322294  -0.153997
     6  C   -0.482157   0.170625
     7  O   -0.323423   0.011450
     8  N   -0.232141   0.110714
     9  C    2.499664  -3.144914
    10  C   -0.216693   0.884511
    11  C   -0.004891  -0.568528
    12  C    1.625873  -1.022131
    13  C   -0.400378  -0.186518
    14  C   -1.261030   0.869134
    15  C   -0.834792   0.657094
    16  O   -0.086083  -0.005240
    17  C    0.360327   0.054458
    18  O   -0.365552   0.000638
    19  N   -0.266963   0.003072
    20  H    0.074007   0.066809
    21  H   -0.004968   0.092463
    22  H    0.146689   0.051520
    23  H    0.423147  -0.092292
    24  H    0.168293   0.014372
    25  H    0.143328  -0.003124
    26  H    0.180246  -0.007075
    27  H    0.093365   0.058222
    28  H   -0.078082   0.285469
    29  H    0.776759  -0.525892
    30  H    0.058920   0.254467
    31  H   -0.778235   0.989922
    32  H    0.045190   0.173708
    33  H   -1.256842   1.439860
    34  H    0.086259   0.082403
    35  H    0.029454   0.151042
    36  H   -0.205682   0.557868
 Sum of Mulliken charges =  -1.00000   1.00000

 Dipole moment (field-independent basis, Debye):
    X=             -1.8136    Y=              3.9715    Z=              3.4630  Tot=              5.5726
 Quadrupole moment (field-independent basis, Debye-Ang):
   XX=           -199.2869   YY=           -157.3349   ZZ=           -152.3801
   XY=            -11.4605   XZ=              9.4449   YZ=            -11.2296

 Summary of Natural Population Analysis:

                                       Natural Population
                Natural  -----------------------------------------------
    Atom  No    Charge         Core      Valence    Rydberg      Total
 -----------------------------------------------------------------------
      C    1   -0.18130      0.99966     2.17293    0.00871     3.18130
      N    2   -0.34438      0.99976     2.83400    0.01062     3.84438
      C    3   -0.08844      0.99963     2.07851    0.01030     3.08844
      C    4   -0.20076      0.99963     2.19244    0.00868     3.20076
      C    5   -0.24340      0.99958     2.23584    0.00799     3.24340
      C    6    0.34726      0.99967     1.62978    0.02328     2.65274
      O    7   -0.32786      0.99988     3.32255    0.00544     4.32786
      N    8   -0.31776      0.99968     2.80734    0.01075     3.81776
      C    9   -0.09679      0.99957     2.08396    0.01326     3.09679
      C   10   -0.01750      0.99951     2.00561    0.01238     3.01750
      C   11   -0.10149      0.99946     2.09047    0.01157     3.10149
      C   12    0.05834      0.99944     1.92917    0.01305     2.94166
      C   13    0.14502      0.99932     1.84218    0.01347     2.85498
      C   14   -0.10879      0.99951     2.10017    0.00912     3.10879
      C   15   -0.11497      0.99952     2.10567    0.00979     3.11497
      O   16   -0.25505      0.99985     3.24947    0.00572     4.25505
      C   17    0.45230      0.99971     1.52127    0.02671     2.54770
      O   18   -0.30535      0.99986     3.29953    0.00596     4.30535
      N   19   -0.30479      0.99964     2.79600    0.00916     3.80479
      H   20    0.08812      0.00000     0.41110    0.00078     0.41188
      H   21    0.07868      0.00000     0.42018    0.00114     0.42132
      H   22    0.09559      0.00000     0.40318    0.00123     0.40441
      H   23    0.18059      0.00000     0.31551    0.00390     0.31941
      H   24    0.10022      0.00000     0.39881    0.00097     0.39978
      H   25    0.08716      0.00000     0.41192    0.00092     0.41284
      H   26    0.10631      0.00000     0.39264    0.00105     0.39369
      H   27    0.09544      0.00000     0.40363    0.00092     0.40456
      H   28    0.11355      0.00000     0.38545    0.00100     0.38645
      H   29    0.10934      0.00000     0.38822    0.00244     0.39066
      H   30    0.19583      0.00000     0.30171    0.00246     0.30417
      H   31    0.11378      0.00000     0.38163    0.00459     0.38622
      H   32    0.10034      0.00000     0.39785    0.00181     0.39966
      H   33    0.11155      0.00000     0.38442    0.00403     0.38845
      H   34    0.10886      0.00000     0.39029    0.00085     0.39114
      H   35    0.10510      0.00000     0.39382    0.00107     0.39490
      H   36    0.21524      0.00000     0.27851    0.00624     0.28476
 =======================================================================
   * Total *   -0.00000     18.99287    50.75576    0.25136    70.00000

 Normal termination of Gaussian 16 at Mon Dec 14 18:32:02 2020.
