 Gaussian 16, Revision A.03,

 -----------------------------------------------------------
 # opt freq B3LYP/6-31G(d) empiricaldispersion=gd3bj scf=xqc
 -----------------------------------------------------------

 ------------------------------
 CID_61730643_JID_7570_neutraal
 ------------------------------
 Symbolic Z-matrix:
 Charge =  0 Multiplicity = 1

 SCF Done:  E(RB3LYP) =  -1108.92443346     A.U. after   16 cycles
 SCF Done:  E(RB3LYP) =  -1108.94506955     A.U. after   13 cycles
 SCF Done:  E(RB3LYP) =  -1108.94572235     A.U. after   15 cycles
 SCF Done:  E(RB3LYP) =  -1108.94317002     A.U. after   15 cycles
 SCF Done:  E(RB3LYP) =  -1108.94738290     A.U. after   13 cycles
 SCF Done:  E(RB3LYP) =  -1108.94909308     A.U. after   12 cycles
 SCF Done:  E(RB3LYP) =  -1108.94935270     A.U. after   13 cycles
 SCF Done:  E(RB3LYP) =  -1108.94883620     A.U. after   15 cycles
 SCF Done:  E(RB3LYP) =  -1108.95026897     A.U. after   13 cycles
 SCF Done:  E(RB3LYP) =  -1108.95107912     A.U. after   13 cycles
 SCF Done:  E(RB3LYP) =  -1108.95506783     A.U. after   10 cycles
 SCF Done:  E(RB3LYP) =  -1108.95507129     A.U. after   10 cycles
 SCF Done:  E(RB3LYP) =  -1108.95507295     A.U. after   10 cycles
 SCF Done:  E(RB3LYP) =  -1108.95507326     A.U. after    9 cycles
 SCF Done:  E(RB3LYP) =  -1108.95507356     A.U. after    8 cycles
 Optimization completed.
    -- Stationary point found.
 Normal termination of Gaussian 16 at Fri Dec 11 13:27:05 2020.

 --------------------------------------------------------------------
 #N Geom=AllCheck Guess=TCheck SCRF=Check GenChk RB3LYP/6-31G(d) Freq
 --------------------------------------------------------------------

 Structure from the checkpoint file:  "JID_7570.chk"
 ------------------------------
 CID_61730643_JID_7570_neutraal
 ------------------------------
 Charge =  0 Multiplicity = 1

 SCF Done:  E(RB3LYP) =  -1108.95507356     A.U. after    1 cycles

  Exact polarizability: 161.229 -23.816 202.094 -20.149  -2.485 120.909
 Approx polarizability: 225.118 -51.849 314.155 -41.678  -2.700 199.775

                      1                      2                      3
                      A                      A                      A
 Frequencies --     25.3546                29.0420                41.0127
 Red. masses --      3.9306                 6.1698                 3.8926
 Frc consts  --      0.0015                 0.0031                 0.0039
 IR Inten    --      0.0380                 0.7884                 2.6730

                      4                      5                      6
                      A                      A                      A
 Frequencies --     56.2981                65.2231                75.2264
 Red. masses --      3.5284                 3.7645                 4.7999
 Frc consts  --      0.0066                 0.0094                 0.0160
 IR Inten    --      2.5304                 3.6097                 1.2748

                      7                      8                      9
                      A                      A                      A
 Frequencies --    103.9268               122.5475               150.6108
 Red. masses --      3.5057                 3.7852                 4.0602
 Frc consts  --      0.0223                 0.0335                 0.0543
 IR Inten    --      1.8316                 2.3112                 0.5313

                     10                     11                     12
                      A                      A                      A
 Frequencies --    171.9693               209.1152               225.3986
 Red. masses --      4.3651                 3.1998                 2.4024
 Frc consts  --      0.0761                 0.0824                 0.0719
 IR Inten    --      1.3527                11.0010                 5.3512

                     13                     14                     15
                      A                      A                      A
 Frequencies --    239.5998               275.9670               290.1384
 Red. masses --      3.2333                 2.7963                 2.8957
 Frc consts  --      0.1094                 0.1255                 0.1436
 IR Inten    --      4.7484                 9.4397                 9.7195

                     16                     17                     18
                      A                      A                      A
 Frequencies --    319.4008               385.2356               403.4357
 Red. masses --      1.2875                 6.1863                 3.2445
 Frc consts  --      0.0774                 0.5409                 0.3111
 IR Inten    --     86.0555                 3.7242                 1.6382

                     19                     20                     21
                      A                      A                      A
 Frequencies --    420.7772               451.2171               456.2222
 Red. masses --      4.7699                 4.0085                 4.0539
 Frc consts  --      0.4976                 0.4808                 0.4971
 IR Inten    --      3.4622                 1.1773                 0.4486

                     22                     23                     24
                      A                      A                      A
 Frequencies --    480.2406               512.4495               560.5365
 Red. masses --      4.3440                 4.7925                 6.5150
 Frc consts  --      0.5903                 0.7415                 1.2061
 IR Inten    --      1.1548                 4.3159                15.5369

                     25                     26                     27
                      A                      A                      A
 Frequencies --    612.5036               624.1917               649.7613
 Red. masses --      2.5638                 5.0480                 2.7218
 Frc consts  --      0.5667                 1.1588                 0.6770
 IR Inten    --      4.1721                 3.8821                13.5532

                     28                     29                     30
                      A                      A                      A
 Frequencies --    696.2698               724.9417               765.6666
 Red. masses --      4.3284                 1.6562                 5.1971
 Frc consts  --      1.2363                 0.5128                 1.7951
 IR Inten    --     20.8940                29.4815                 4.7274

                     31                     32                     33
                      A                      A                      A
 Frequencies --    824.4879               831.6095               877.2901
 Red. masses --      3.0155                 2.9597                 3.8638
 Frc consts  --      1.2078                 1.2060                 1.7521
 IR Inten    --      4.9910                 0.4564                22.0014

                     34                     35                     36
                      A                      A                      A
 Frequencies --    892.5162               898.1670               900.8602
 Red. masses --      1.2958                 1.3579                 2.1799
 Frc consts  --      0.6082                 0.6454                 1.0423
 IR Inten    --      0.5439               117.9731                 0.8498

                     37                     38                     39
                      A                      A                      A
 Frequencies --    929.8974               939.6131               944.8798
 Red. masses --      3.6700                 2.5702                 1.8940
 Frc consts  --      1.8697                 1.3370                 0.9963
 IR Inten    --     21.3762                19.1768                 7.8615

                     40                     41                     42
                      A                      A                      A
 Frequencies --    971.8797               993.1022               999.0921
 Red. masses --      2.4492                 1.9641                 1.4323
 Frc consts  --      1.3630                 1.1413                 0.8423
 IR Inten    --      5.5388                17.5382                 3.7375

                     43                     44                     45
                      A                      A                      A
 Frequencies --   1015.6375              1053.4392              1069.1981
 Red. masses --      2.2987                 3.2711                 1.7048
 Frc consts  --      1.3970                 2.1388                 1.1483
 IR Inten    --     13.5650                 5.9274                 4.3204

                     46                     47                     48
                      A                      A                      A
 Frequencies --   1101.7969              1120.0363              1127.8530
 Red. masses --      1.6006                 3.3087                 3.7033
 Frc consts  --      1.1449                 2.4455                 2.7755
 IR Inten    --      3.4367                66.5537                49.6897

                     49                     50                     51
                      A                      A                      A
 Frequencies --   1129.8295              1144.0198              1172.3403
 Red. masses --      3.1745                 3.0730                 2.4276
 Frc consts  --      2.3875                 2.3696                 1.9658
 IR Inten    --    113.9571                31.9452                17.6255

                     52                     53                     54
                      A                      A                      A
 Frequencies --   1184.4292              1209.5681              1220.1214
 Red. masses --      2.1511                 1.1350                 1.3201
 Frc consts  --      1.7780                 0.9784                 1.1579
 IR Inten    --     31.9977                 0.5025                 7.6224

                     55                     56                     57
                      A                      A                      A
 Frequencies --   1250.6029              1263.4816              1289.8620
 Red. masses --      1.2499                 1.2366                 1.5390
 Frc consts  --      1.1518                 1.1631                 1.5086
 IR Inten    --      7.8499                 3.8681                 4.8256

                     58                     59                     60
                      A                      A                      A
 Frequencies --   1293.9457              1305.2995              1324.3406
 Red. masses --      1.4032                 1.2061                 1.2613
 Frc consts  --      1.3842                 1.2107                 1.3034
 IR Inten    --      3.7013                 4.5443                 1.4193

                     61                     62                     63
                      A                      A                      A
 Frequencies --   1328.0985              1351.4215              1381.7326
 Red. masses --      1.2590                 1.1769                 1.2484
 Frc consts  --      1.3084                 1.2664                 1.4043
 IR Inten    --      7.6802                 1.1049                 3.1674

                     64                     65                     66
                      A                      A                      A
 Frequencies --   1392.4450              1409.2730              1420.9396
 Red. masses --      1.2730                 1.6300                 1.7473
 Frc consts  --      1.4543                 1.9074                 2.0786
 IR Inten    --      2.1256                11.9349                 9.9922

                     67                     68                     69
                      A                      A                      A
 Frequencies --   1432.0420              1445.8092              1446.4351
 Red. masses --      1.4165                 1.8505                 1.4101
 Frc consts  --      1.7115                 2.2791                 1.7382
 IR Inten    --      9.8299                62.7253                 8.6587

                     70                     71                     72
                      A                      A                      A
 Frequencies --   1484.2003              1514.5236              1524.4410
 Red. masses --      5.4495                 1.1019                 1.0996
 Frc consts  --      7.0728                 1.4891                 1.5055
 IR Inten    --      1.6447                 8.9184                 1.2148

                     73                     74                     75
                      A                      A                      A
 Frequencies --   1530.2267              1533.9456              1545.7747
 Red. masses --      1.0885                 1.0840                 1.0872
 Frc consts  --      1.5017                 1.5028                 1.5305
 IR Inten    --      0.8156                 1.1886                 2.2466

                     76                     77                     78
                      A                      A                      A
 Frequencies --   1559.0459              1588.6101              1689.7276
 Red. masses --      1.0975                 5.8473                 1.0810
 Frc consts  --      1.5718                 8.6944                 1.8185
 IR Inten    --      0.2620                 4.6943                31.2104

                     79                     80                     81
                      A                      A                      A
 Frequencies --   2358.4045              2948.7490              2981.7864
 Red. masses --     11.9037                 1.0746                 1.0730
 Frc consts  --     39.0093                 5.5052                 5.6206
 IR Inten    --      0.0636                88.3657                93.5320

                     82                     83                     84
                      A                      A                      A
 Frequencies --   3025.3676              3032.2035              3043.5890
 Red. masses --      1.0600                 1.0631                 1.0678
 Frc consts  --      5.7161                 5.7587                 5.8279
 IR Inten    --     46.9827                60.3050                 5.0798

                     85                     86                     87
                      A                      A                      A
 Frequencies --   3044.8571              3050.8551              3061.3330
 Red. masses --      1.0842                 1.0917                 1.0677
 Frc consts  --      5.9222                 5.9867                 5.8957
 IR Inten    --     41.5480                 7.2116                12.9318

                     88                     89                     90
                      A                      A                      A
 Frequencies --   3070.6491              3080.2503              3108.2437
 Red. masses --      1.0913                 1.0992                 1.0914
 Frc consts  --      6.0624                 6.1445                 6.2123
 IR Inten    --     72.0733                19.1380                38.8054

                     91                     92                     93
                      A                      A                      A
 Frequencies --   3112.9976              3120.3885              3234.6382
 Red. masses --      1.1009                 1.1041                 1.0910
 Frc consts  --      6.2859                 6.3338                 6.7255
 IR Inten    --      8.5591                37.6557                 3.3503

                     94                     95                     96
                      A                      A                      A
 Frequencies --   3274.8013              3459.3655              3553.4027
 Red. masses --      1.0977                 1.0494                 1.0940
 Frc consts  --      6.9357                 7.3993                 8.1390
 IR Inten    --      0.5904                14.2542                 2.0368

 - Thermochemistry -
 -------------------
 Temperature   298.150 Kelvin.  Pressure   1.00000 Atm.
 Atom     1 has atomic number  6 and mass  12.00000

 Molecular mass:   251.09800 amu.
 Principal axes and moments of inertia in atomic units:
                           1         2         3
     Eigenvalues --  3945.338725532.440308342.65437
           X            0.99937  -0.03488  -0.00662
           Y            0.03485   0.99938  -0.00546
           Z            0.00680   0.00523   0.99996
 This molecule is an asymmetric top.
 Rotational symmetry number  1.
 Warning -- assumption of classical behavior for rotation
           may cause significant error
 Rotational temperatures (Kelvin)      0.02195     0.01566     0.01038
 Rotational constants (GHZ):           0.45744     0.32621     0.21633
 Zero-point vibrational energy     745058.5 (Joules/Mol)
                                  178.07325 (Kcal/Mol)
 Warning -- explicit consideration of  25 degrees of freedom as
           vibrations may cause significant error
 Vibrational temperatures:     36.48    41.79    59.01    81.00    93.84
          (Kelvin)            108.23   149.53   176.32   216.70   247.43
                              300.87   324.30   344.73   397.05   417.44
                              459.55   554.27   580.45   605.40   649.20
                              656.40   690.96   737.30   806.49   881.26
                              898.07   934.86  1001.78  1043.03  1101.62
                             1186.25  1196.50  1262.22  1284.13  1292.26
                             1296.14  1337.91  1351.89  1359.47  1398.32
                             1428.85  1437.47  1461.28  1515.66  1538.34
                             1585.24  1611.48  1622.73  1625.57  1645.99
                             1686.74  1704.13  1740.30  1755.48  1799.34
                             1817.87  1855.82  1861.70  1878.03  1905.43
                             1910.84  1944.39  1988.00  2003.42  2027.63
                             2044.42  2060.39  2080.20  2081.10  2135.43
                             2179.06  2193.33  2201.65  2207.01  2224.03
                             2243.12  2285.66  2431.14  3393.22  4242.59
                             4290.13  4352.83  4362.66  4379.05  4380.87
                             4389.50  4404.58  4417.98  4431.79  4472.07
                             4478.91  4489.54  4653.92  4711.71  4977.26
                             5112.55

 Zero-point correction=                           0.283778 (Hartree/Particle)
 Thermal correction to Energy=                    0.301046
 Thermal correction to Enthalpy=                  0.301990
 Thermal correction to Gibbs Free Energy=         0.236018
 Sum of electronic and zero-point Energies=          -1108.671296
 Sum of electronic and thermal Energies=             -1108.654028
 Sum of electronic and thermal Enthalpies=           -1108.653084
 Sum of electronic and thermal Free Energies=        -1108.719055

                     E (Thermal)             CV                S
                      KCal/Mol        Cal/Mol-Kelvin    Cal/Mol-Kelvin
 Total                  188.909             63.259            138.849
 Electronic               0.000              0.000              0.000
 Translational            0.889              2.981             42.462
 Rotational               0.889              2.981             33.565
 Vibrational            187.132             57.297             62.822
 Vibration     1          0.593              1.985              6.163
 Vibration     2          0.593              1.984              5.894
 Vibration     3          0.594              1.981              5.210
 Vibration     4          0.596              1.975              4.583
 Vibration     5          0.597              1.971              4.293
 Vibration     6          0.599              1.966              4.012
 Vibration     7          0.605              1.946              3.379
 Vibration     8          0.610              1.930              3.060
 Vibration     9          0.618              1.902              2.664
 Vibration    10          0.626              1.877              2.414
 Vibration    11          0.642              1.827              2.051
 Vibration    12          0.650              1.802              1.915
 Vibration    13          0.657              1.780              1.806
 Vibration    14          0.678              1.718              1.559
 Vibration    15          0.686              1.692              1.473
 Vibration    16          0.705              1.636              1.313
 Vibration    17          0.754              1.502              1.019
 Vibration    18          0.769              1.463              0.950
 Vibration    19          0.783              1.425              0.889
 Vibration    20          0.810              1.358              0.792
 Vibration    21          0.814              1.347              0.777
 Vibration    22          0.837              1.294              0.709
 Vibration    23          0.868              1.222              0.628
 Vibration    24          0.916              1.117              0.523
 Vibration    25          0.972              1.005              0.429

                           ! Non-Optimized Parameters !
 Normal termination of Gaussian 16 at Fri Dec 11 13:40:01 2020.

 ----------------------------------------------------------------------
 # B3LYP/6-311++G(d,p) empiricaldispersion=gd3bj scf=xqc pop=npa geom=c
 heck
 ----------------------------------------------------------------------

 --------------------------------------
 CID_61730643_JID_7570_Energie_neutraal
 --------------------------------------
 Structure from the checkpoint file:  "JID_7570.chk"
 Charge =  0 Multiplicity = 1

 SCF Done:  E(RB3LYP) =  -1109.18763000     A.U. after   16 cycles
 Normal termination of Gaussian 16 at Fri Dec 11 13:46:58 2020.

 ----------------------------------------------------------------------
 # B3LYP/6-311++G(d,p) empiricaldispersion=gd3bj scf=xqc pop=npa geom=c
 heck
 ----------------------------------------------------------------------

 ------------------------------------
 CID_61730643_JID_7570_Energie_kation
 ------------------------------------
 Structure from the checkpoint file:  "JID_7570.chk"
 Charge =  1 Multiplicity = 2

 SCF Done:  E(UB3LYP) =  -1108.89841942     A.U. after   28 cycles
 Normal termination of Gaussian 16 at Fri Dec 11 14:03:38 2020.
 Gaussian 16:  ES64L-G16RevA.03 25-Dec-2016

 ----------------------------------------------------------------------
 # B3LYP/6-311++G(d,p) empiricaldispersion=gd3bj scf=xqc pop=npa geom=c
 heck
 ----------------------------------------------------------------------

 -----------------------------------
 CID_61730643_JID_7570_Energie_anion
 -----------------------------------
 Structure from the checkpoint file:  "JID_7570.chk"
 Charge = -1 Multiplicity = 2

                         Standard orientation:
 ---------------------------------------------------------------------
 Center     Atomic      Atomic             Coordinates (Angstroms)
 Number     Number       Type             X           Y           Z
 ---------------------------------------------------------------------
      1          6           0       -2.768852    0.364585    0.562254
      2          6           0       -4.194616    0.241147    0.026893
      3          8           0       -4.071732   -0.521478   -1.168164
      4          6           0       -2.998520   -1.450041   -1.005316
      5          6           0       -2.195534   -1.033266    0.255397
      6          6           0       -0.692899   -1.112041   -0.002719
      7          8           0        0.107033   -0.969396    1.170238
      8          6           0        0.378213    0.351283    1.617309
      9          6           0        0.977201    1.266261    0.580122
     10          6           0        2.004077    0.994562   -0.308364
     11          6           0        2.339616    2.126567   -1.127947
     12          6           0        1.575615    3.223174   -0.856524
     13         16           0        0.416611    2.902022    0.395830
     14          6           0        2.584219   -0.297546   -0.395760
     15          6           0        2.957630   -1.449024   -0.416673
     16          6           0        3.177374   -2.886939   -0.277753
     17          7           0        1.899849   -3.524258    0.096116
     18          1           0       -2.223880    1.133600    0.001725
     19          1           0       -2.735966    0.620886    1.625399
     20          1           0       -4.842062   -0.273464    0.757333
     21          1           0       -4.659959    1.196837   -0.232079
     22          1           0       -2.383288   -1.409322   -1.913833
     23          1           0       -3.388679   -2.472543   -0.908273
     24          1           0       -2.435136   -1.710372    1.084139
     25          1           0       -0.422887   -2.098501   -0.391535
     26          1           0       -0.402871   -0.369685   -0.758343
     27          1           0       -0.519502    0.821883    2.040993
     28          1           0        1.090670    0.214257    2.438770
     29          1           0        3.117214    2.098817   -1.882016
     30          1           0        1.620657    4.200825   -1.316033
     31          1           0        3.520921   -3.318193   -1.227725
     32          1           0        3.993284   -3.053024    0.449466
     33          1           0        2.081560   -4.463035    0.448618
     34          1           0        1.481651   -2.986853    0.855191
 ---------------------------------------------------------------------

 SCF Done:  E(UB3LYP) =  -1109.18201609     A.U. after   33 cycles
 SCF Done:  E(UB3LYP) =  -1109.18201609     a.u. after    1 cycles

 The electronic state is 2-A.
 Alpha  occ. eigenvalues --  -88.74910 -19.03407 -19.01104 -14.17530 -10.12978
 Alpha  occ. eigenvalues --  -10.12392 -10.11025 -10.10211 -10.09752 -10.08091
 Alpha  occ. eigenvalues --  -10.07810 -10.07261 -10.06291 -10.06220 -10.06013
 Alpha  occ. eigenvalues --  -10.03797 -10.03220  -7.83554  -5.79843  -5.79483
 Alpha  occ. eigenvalues --   -5.79175  -0.95150  -0.92093  -0.76782  -0.76101
 Alpha  occ. eigenvalues --   -0.70503  -0.65931  -0.65331  -0.63701  -0.60940
 Alpha  occ. eigenvalues --   -0.58849  -0.55096  -0.52917  -0.51168  -0.48237
 Alpha  occ. eigenvalues --   -0.45302  -0.44072  -0.41843  -0.40363  -0.39065
 Alpha  occ. eigenvalues --   -0.38567  -0.37338  -0.35937  -0.35602  -0.34178
 Alpha  occ. eigenvalues --   -0.32514  -0.31843  -0.31577  -0.30852  -0.30218
 Alpha  occ. eigenvalues --   -0.28754  -0.27853  -0.27654  -0.26823  -0.26420
 Alpha  occ. eigenvalues --   -0.24986  -0.23759  -0.22881  -0.22738  -0.19949
 Alpha  occ. eigenvalues --   -0.18321  -0.16966  -0.15985  -0.13636  -0.13066
 Alpha  occ. eigenvalues --   -0.12788  -0.09979   0.04764
 Alpha virt. eigenvalues --    0.06648   0.07412   0.08026   0.08763   0.09118
 Alpha virt. eigenvalues --    0.09611   0.09717   0.10545   0.10862   0.11711
 Alpha virt. eigenvalues --    0.11815   0.11870   0.12441   0.12821   0.12832

  Beta  occ. eigenvalues --  -88.74868 -19.03406 -19.01068 -14.17479 -10.12977
  Beta  occ. eigenvalues --  -10.12389 -10.11042 -10.10203 -10.09750 -10.08088
  Beta  occ. eigenvalues --  -10.07809 -10.07102 -10.06175 -10.06054 -10.05886
  Beta  occ. eigenvalues --  -10.03799 -10.03107  -7.83516  -5.79829  -5.79469
  Beta  occ. eigenvalues --   -5.79025  -0.95148  -0.92014  -0.76676  -0.75809
  Beta  occ. eigenvalues --   -0.70488  -0.65900  -0.65115  -0.63416  -0.60729
  Beta  occ. eigenvalues --   -0.58707  -0.54988  -0.52817  -0.51164  -0.48181
  Beta  occ. eigenvalues --   -0.45129  -0.43706  -0.41795  -0.40320  -0.38945
  Beta  occ. eigenvalues --   -0.38495  -0.37179  -0.35903  -0.35562  -0.34037
  Beta  occ. eigenvalues --   -0.32485  -0.31741  -0.31503  -0.30698  -0.30123
  Beta  occ. eigenvalues --   -0.28663  -0.27747  -0.27573  -0.26636  -0.26098
  Beta  occ. eigenvalues --   -0.24789  -0.23671  -0.22835  -0.22551  -0.19860
  Beta  occ. eigenvalues --   -0.17756  -0.16955  -0.15900  -0.13517  -0.12924
  Beta  occ. eigenvalues --   -0.12105  -0.08751
  Beta virt. eigenvalues --    0.06571   0.07826   0.07988   0.08736   0.08924
  Beta virt. eigenvalues --    0.09573   0.09646   0.10034   0.10877   0.11002
  Beta virt. eigenvalues --    0.11758   0.11850   0.11959   0.12554   0.12845

 Mulliken charges and spin densities:
               1          2
     1  C   -0.192500  -0.094875
     2  C   -0.417658  -0.076925
     3  O   -0.137119   0.003371
     4  C   -0.378987  -0.106053
     5  C    0.429997   0.041029
     6  C   -0.587701  -0.081255
     7  O    0.021692   0.004890
     8  C    0.256146  -0.534999
     9  C    0.004508   0.913848
    10  C   -0.962145  -0.154548
    11  C    0.897521  -0.094513
    12  C   -0.604830   0.033381
    13  S   -0.477627   0.215152
    14  C    0.087657  -0.017668
    15  C    0.062715  -0.026024
    16  C    0.131555  -0.702427
    17  N   -0.324898  -0.046454
    18  H    0.181887  -0.008251
    19  H    0.101422   0.021819
    20  H    0.099067   0.030262
    21  H    0.157808  -0.001756
    22  H    0.172222   0.010099
    23  H    0.102351   0.047934
    24  H    0.042132   0.151463
    25  H    0.277796  -0.076776
    26  H    0.125481   0.015942
    27  H    0.127232  -0.006895
    28  H   -0.230583   0.446384
    29  H    0.116722   0.022680
    30  H    0.191481  -0.005176
    31  H    0.057623   0.088288
    32  H   -0.268585   0.412355
    33  H   -0.275462   0.506483
    34  H    0.213079   0.069214
 Sum of Mulliken charges =  -1.00000   1.00000

 Dipole moment (field-independent basis, Debye):
    X=             -5.6598    Y=              4.8996    Z=             -1.3290  Tot=              7.6030
 Quadrupole moment (field-independent basis, Debye-Ang):
   XX=           -157.0187   YY=           -162.0521   ZZ=           -131.4327
   XY=             10.7988   XZ=            -12.1727   YZ=              4.0889

 Summary of Natural Population Analysis:

                                       Natural Population
                Natural  -----------------------------------------------
    Atom  No    Charge         Core      Valence    Rydberg      Total
 -----------------------------------------------------------------------
      C    1   -0.21108      0.99963     2.20184    0.00961     3.21108
      C    2   -0.00660      0.99961     1.99692    0.01007     3.00660
      O    3   -0.30366      0.99989     3.29540    0.00837     4.30366
      C    4   -0.00658      0.99959     1.99617    0.01081     3.00658
      C    5   -0.13809      0.99960     2.12735    0.01115     3.13809
      C    6   -0.01356      0.99952     1.99940    0.01463     3.01356
      O    7   -0.29882      0.99989     3.28760    0.01133     4.29882
      C    8   -0.02339      0.99949     2.00915    0.01474     3.02339
      C    9   -0.03778      0.99946     2.02632    0.01200     3.03778
      C   10   -0.08521      0.99938     2.07514    0.01070     3.08521
      C   11   -0.12048      0.99951     2.11183    0.00915     3.12048
      C   12   -0.17807      0.99954     2.16819    0.01034     3.17807
      S   13    0.20694      4.99939     2.77155    0.02212     7.79306
      C   14   -0.01239      0.99925     2.00420    0.00895     3.01239
      C   15    0.01659      0.99924     1.97714    0.00703     2.98341
      C   16   -0.12302      0.99958     2.11112    0.01231     3.12302
      N   17   -0.42230      0.99978     2.91066    0.01186     3.92230
      H   18    0.10568      0.00000     0.39278    0.00154     0.39432
      H   19    0.10281      0.00000     0.39631    0.00088     0.39719
      H   20    0.07255      0.00000     0.42606    0.00139     0.42745
      H   21    0.08774      0.00000     0.41123    0.00103     0.41226
      H   22    0.08666      0.00000     0.41207    0.00127     0.41334
      H   23    0.08144      0.00000     0.41721    0.00136     0.41856
      H   24    0.09907      0.00000     0.39925    0.00168     0.40093
      H   25    0.10127      0.00000     0.39729    0.00144     0.39873
      H   26    0.08900      0.00000     0.40928    0.00173     0.41100
      H   27    0.07892      0.00000     0.41962    0.00146     0.42108
      H   28    0.10275      0.00000     0.39532    0.00193     0.39725
      H   29    0.10257      0.00000     0.39648    0.00095     0.39743
      H   30    0.10050      0.00000     0.39860    0.00090     0.39950
      H   31    0.09508      0.00000     0.40361    0.00131     0.40492
      H   32    0.09299      0.00000     0.40439    0.00262     0.40701
      H   33    0.17376      0.00000     0.32182    0.00442     0.32624
      H   34    0.18471      0.00000     0.31257    0.00272     0.31529
 =======================================================================
   * Total *    0.00000     20.99235    45.78386    0.22378    67.00000

 Normal termination of Gaussian 16 at Fri Dec 11 14:22:17 2020.
