 Gaussian 16, Revision A.03,

 ----------------------------------------------------------------------
 # opt=(cartesian,calcfc) freq B3LYP/6-31G(d) empiricaldispersion=gd3bj
  scf=xqc
 ----------------------------------------------------------------------

 ------------------------------
 CID_12713373_JID_3121_neutraal
 ------------------------------
 Symbolic Z-matrix:
 Charge =  0 Multiplicity = 1

 SCF Done:  E(RB3LYP) =  -577.906264458     A.U. after   14 cycles
 SCF Done:  E(RB3LYP) =  -577.906471412     A.U. after   10 cycles
 SCF Done:  E(RB3LYP) =  -577.906499222     A.U. after   10 cycles
 SCF Done:  E(RB3LYP) =  -577.906490759     A.U. after   10 cycles
 SCF Done:  E(RB3LYP) =  -577.906506631     A.U. after    9 cycles
 SCF Done:  E(RB3LYP) =  -577.906511437     A.U. after    8 cycles
 SCF Done:  E(RB3LYP) =  -577.906513555     A.U. after    9 cycles
 SCF Done:  E(RB3LYP) =  -577.906514949     A.U. after    9 cycles
 SCF Done:  E(RB3LYP) =  -577.906515213     A.U. after    7 cycles
 SCF Done:  E(RB3LYP) =  -577.906515309     A.U. after    7 cycles
 Optimization completed.
    -- Stationary point found.
 Normal termination of Gaussian 16 at Wed Dec 30 14:22:10 2020.

 --------------------------------------------------------------------
 #N Geom=AllCheck Guess=TCheck SCRF=Check GenChk RB3LYP/6-31G(d) Freq
 --------------------------------------------------------------------

 Structure from the checkpoint file:  "JID_3121.chk"
 ------------------------------
 CID_12713373_JID_3121_neutraal
 ------------------------------
 Charge =  0 Multiplicity = 1

 SCF Done:  E(RB3LYP) =  -577.906515309     A.U. after    1 cycles

  Exact polarizability: 136.232  -1.949 117.998   3.714   1.243  99.154
 Approx polarizability: 172.662  -8.497 178.810   2.114   2.600 145.149

                      1                      2                      3
                      A                      A                      A
 Frequencies --     47.0999                67.2036                84.3140
 Red. masses --      4.2296                 2.9071                 2.9818
 Frc consts  --      0.0055                 0.0077                 0.0125
 IR Inten    --      0.8867                 0.2381                 1.4937

                      4                      5                      6
                      A                      A                      A
 Frequencies --    102.6799               137.1574               172.5003
 Red. masses --      3.0644                 6.9436                 2.7564
 Frc consts  --      0.0190                 0.0770                 0.0483
 IR Inten    --      0.1981                 4.9260                 0.4875

                      7                      8                      9
                      A                      A                      A
 Frequencies --    182.7348               222.4640               251.9908
 Red. masses --      1.4672                 2.4687                 1.9761
 Frc consts  --      0.0289                 0.0720                 0.0739
 IR Inten    --      0.1988                 1.2895                 0.3024

                     10                     11                     12
                      A                      A                      A
 Frequencies --    273.1426               317.9889               342.3575
 Red. masses --      1.8137                 4.2884                 2.0559
 Frc consts  --      0.0797                 0.2555                 0.1420
 IR Inten    --      3.5744                 5.4163                 1.9681

                     13                     14                     15
                      A                      A                      A
 Frequencies --    349.1332               390.9104               420.6686
 Red. masses --      2.5168                 2.3160                 2.0334
 Frc consts  --      0.1807                 0.2085                 0.2120
 IR Inten    --      0.4350                 2.9433                 6.5169

                     16                     17                     18
                      A                      A                      A
 Frequencies --    447.4716               488.7184               503.1329
 Red. masses --      2.5819                 2.1131                 1.6381
 Frc consts  --      0.3046                 0.2974                 0.2443
 IR Inten    --      2.9339                 4.8004                 2.5122

                     19                     20                     21
                      A                      A                      A
 Frequencies --    572.2440               578.6853               696.1619
 Red. masses --      3.3999                 2.7313                 2.6926
 Frc consts  --      0.6560                 0.5389                 0.7689
 IR Inten    --      6.1199                 1.7430                 4.1028

                     22                     23                     24
                      A                      A                      A
 Frequencies --    725.3213               766.2258               803.0165
 Red. masses --      3.4529                 1.5482                 2.3280
 Frc consts  --      1.0703                 0.5355                 0.8845
 IR Inten    --      6.0002                11.2459                33.8206

                     25                     26                     27
                      A                      A                      A
 Frequencies --    822.7415               860.3872               865.8432
 Red. masses --      2.3474                 1.4720                 1.9217
 Frc consts  --      0.9362                 0.6420                 0.8488
 IR Inten    --     16.6855                 2.6687                24.8153

                     28                     29                     30
                      A                      A                      A
 Frequencies --    880.1910               903.3966               953.8979
 Red. masses --      2.2621                 2.3344                 1.7685
 Frc consts  --      1.0326                 1.1225                 0.9481
 IR Inten    --     27.0325                12.4066                 0.4144

                     31                     32                     33
                      A                      A                      A
 Frequencies --    969.1793               994.7939              1005.1990
 Red. masses --      1.5659                 2.1700                 1.8637
 Frc consts  --      0.8666                 1.2653                 1.1095
 IR Inten    --      9.5500                 9.9698                 8.6096

                     34                     35                     36
                      A                      A                      A
 Frequencies --   1029.4199              1043.8933              1064.9317
 Red. masses --      1.8271                 2.1390                 1.7991
 Frc consts  --      1.1408                 1.3733                 1.2021
 IR Inten    --      2.3836                 0.3618                 9.3211

                     37                     38                     39
                      A                      A                      A
 Frequencies --   1103.3194              1113.4099              1115.5999
 Red. masses --      2.1791                 1.9489                 2.0262
 Frc consts  --      1.5629                 1.4235                 1.4858
 IR Inten    --     16.4151                 1.7130                 3.2509

                     40                     41                     42
                      A                      A                      A
 Frequencies --   1147.2908              1172.8139              1179.4891
 Red. masses --      1.8004                 1.4166                 1.5144
 Frc consts  --      1.3963                 1.1480                 1.2413
 IR Inten    --      0.9434                19.8780                13.8405

                     43                     44                     45
                      A                      A                      A
 Frequencies --   1205.6164              1221.7063              1235.5922
 Red. masses --      1.5613                 2.1954                 1.5385
 Frc consts  --      1.3370                 1.9306                 1.3839
 IR Inten    --     13.0267                38.0381                32.3187

                     46                     47                     48
                      A                      A                      A
 Frequencies --   1265.2227              1290.2939              1302.6414
 Red. masses --      1.3866                 1.4755                 1.2669
 Frc consts  --      1.3078                 1.4473                 1.2666
 IR Inten    --     15.1609                 1.5663                11.9453

                     49                     50                     51
                      A                      A                      A
 Frequencies --   1311.1705              1335.3550              1351.2171
 Red. masses --      1.5400                 1.2785                 1.2293
 Frc consts  --      1.5599                 1.3432                 1.3224
 IR Inten    --     19.7385                 1.3068                 9.0495

                     52                     53                     54
                      A                      A                      A
 Frequencies --   1371.1828              1385.3888              1394.9446
 Red. masses --      1.4012                 1.3185                 1.3260
 Frc consts  --      1.5522                 1.4910                 1.5202
 IR Inten    --      4.6932                 6.6320                 9.1492

                     55                     56                     57
                      A                      A                      A
 Frequencies --   1402.7979              1407.5674              1410.5727
 Red. masses --      1.4126                 1.3800                 1.4444
 Frc consts  --      1.6378                 1.6109                 1.6933
 IR Inten    --     17.5538                 8.1952                 2.8112

                     58                     59                     60
                      A                      A                      A
 Frequencies --   1417.8024              1427.8900              1477.5145
 Red. masses --      1.4498                 1.3377                 1.7158
 Frc consts  --      1.7171                 1.6069                 2.2069
 IR Inten    --      2.7130                23.3559                68.5731

                     61                     62                     63
                      A                      A                      A
 Frequencies --   1480.4801              1504.4352              1506.6694
 Red. masses --      1.1860                 1.0965                 1.0924
 Frc consts  --      1.5315                 1.4622                 1.4610
 IR Inten    --      5.2844                 0.5015                 1.0148

                     64                     65                     66
                      A                      A                      A
 Frequencies --   1508.3602              1511.1358              1514.8682
 Red. masses --      1.1298                 1.0859                 1.0893
 Frc consts  --      1.5144                 1.4610                 1.4728
 IR Inten    --     25.5397                 7.5414                 2.8218

                     67                     68                     69
                      A                      A                      A
 Frequencies --   1519.0187              1526.2559              1529.0693
 Red. masses --      1.1094                 1.0787                 1.1215
 Frc consts  --      1.5082                 1.4805                 1.5449
 IR Inten    --     11.4320                 7.6379                13.6137

                     70                     71                     72
                      A                      A                      A
 Frequencies --   1539.9389              1542.8082              1568.9201
 Red. masses --      1.2030                 1.0853                 1.1390
 Frc consts  --      1.6809                 1.5220                 1.6519
 IR Inten    --     34.9292                10.1301                39.9395

                     73                     74                     75
                      A                      A                      A
 Frequencies --   1737.1091              2944.7664              3020.7368
 Red. masses --      8.7520                 1.0618                 1.0676
 Frc consts  --     15.5601                 5.4251                 5.7396
 IR Inten    --    277.1223                89.7018                20.2570

                     76                     77                     78
                      A                      A                      A
 Frequencies --   3023.3467              3034.0981              3035.7123
 Red. masses --      1.0639                 1.0705                 1.0636
 Frc consts  --      5.7294                 5.8065                 5.7748
 IR Inten    --     16.4695                20.5001                47.2934

                     79                     80                     81
                      A                      A                      A
 Frequencies --   3042.0064              3043.6990              3047.6293
 Red. masses --      1.0658                 1.0639                 1.0654
 Frc consts  --      5.8112                 5.8072                 5.8303
 IR Inten    --      7.9093                32.7298                31.7925

                     82                     83                     84
                      A                      A                      A
 Frequencies --   3053.6569              3055.5689              3065.4047
 Red. masses --      1.0741                 1.0727                 1.0984
 Frc consts  --      5.9011                 5.9009                 6.0812
 IR Inten    --     61.9752                50.9468                15.4046

                     85                     86                     87
                      A                      A                      A
 Frequencies --   3073.3519              3082.0285              3084.3150
 Red. masses --      1.0936                 1.0989                 1.1032
 Frc consts  --      6.0858                 6.1499                 6.1835
 IR Inten    --     57.5171               102.4312                31.1635

                     88                     89                     90
                      A                      A                      A
 Frequencies --   3092.4557              3110.7604              3114.1479
 Red. masses --      1.1012                 1.0999                 1.0943
 Frc consts  --      6.2045                 6.2709                 6.2525
 IR Inten    --     51.6524                32.5068                27.8959

                     91                     92                     93
                      A                      A                      A
 Frequencies --   3137.4493              3157.1968              3487.8355
 Red. masses --      1.0945                 1.0926                 1.0752
 Frc consts  --      6.3478                 6.4169                 7.7062
 IR Inten    --     11.1086                 7.6482                69.5210

 - Thermochemistry -
 -------------------
 Temperature   298.150 Kelvin.  Pressure   1.00000 Atm.
 Atom     1 has atomic number  6 and mass  12.00000

 Molecular mass:   184.15756 amu.
 Principal axes and moments of inertia in atomic units:
                           1         2         3
     Eigenvalues --  1418.885443441.796803799.22074
           X            0.99997   0.00402   0.00733
           Y           -0.00423   0.99955   0.02976
           Z           -0.00721  -0.02979   0.99953
 This molecule is an asymmetric top.
 Rotational symmetry number  1.
 Warning -- assumption of classical behavior for rotation
           may cause significant error
 Rotational temperatures (Kelvin)      0.06104     0.02517     0.02280
 Rotational constants (GHZ):           1.27194     0.52436     0.47503
 Zero-point vibrational energy     795988.2 (Joules/Mol)
                                  190.24574 (Kcal/Mol)
 Warning -- explicit consideration of  20 degrees of freedom as
           vibrations may cause significant error
 Vibrational temperatures:     67.77    96.69   121.31   147.73   197.34
          (Kelvin)            248.19   262.91   320.08   362.56   392.99
                              457.52   492.58   502.32   562.43   605.25
                              643.81   703.16   723.90   823.33   832.60
                             1001.62  1043.58  1102.43  1155.36  1183.74
                             1237.91  1245.76  1266.40  1299.79  1372.45
                             1394.43  1431.29  1446.26  1481.11  1501.93
                             1532.20  1587.43  1601.95  1605.10  1650.70
                             1687.42  1697.02  1734.61  1757.76  1777.74
                             1820.37  1856.45  1874.21  1886.48  1921.28
                             1944.10  1972.83  1993.27  2007.01  2018.31
                             2025.18  2029.50  2039.90  2054.42  2125.81
                             2130.08  2164.55  2167.76  2170.19  2174.19
                             2179.56  2185.53  2195.94  2199.99  2215.63
                             2219.76  2257.33  2499.31  4236.86  4346.17
                             4349.92  4365.39  4367.71  4376.77  4379.20
                             4384.86  4393.53  4396.28  4410.43  4421.87
                             4434.35  4437.64  4449.35  4475.69  4480.56
                             4514.09  4542.50  5018.22

 Zero-point correction=                           0.303176 (Hartree/Particle)
 Thermal correction to Energy=                    0.316578
 Thermal correction to Enthalpy=                  0.317522
 Thermal correction to Gibbs Free Energy=         0.263339
 Sum of electronic and zero-point Energies=           -577.603339
 Sum of electronic and thermal Energies=              -577.589937
 Sum of electronic and thermal Enthalpies=            -577.588993
 Sum of electronic and thermal Free Energies=         -577.643176

                     E (Thermal)             CV                S
                      KCal/Mol        Cal/Mol-Kelvin    Cal/Mol-Kelvin
 Total                  198.656             51.568            114.038
 Electronic               0.000              0.000              0.000
 Translational            0.889              2.981             41.538
 Rotational               0.889              2.981             31.296
 Vibrational            196.878             45.607             41.204
 Vibration     1          0.595              1.979              4.936
 Vibration     2          0.598              1.970              4.234
 Vibration     3          0.601              1.960              3.788
 Vibration     4          0.605              1.947              3.403
 Vibration     5          0.614              1.916              2.843
 Vibration     6          0.626              1.876              2.408
 Vibration     7          0.630              1.863              2.300
 Vibration     8          0.648              1.807              1.939
 Vibration     9          0.664              1.759              1.717
 Vibration    10          0.676              1.723              1.576
 Vibration    11          0.704              1.639              1.320
 Vibration    12          0.721              1.591              1.201
 Vibration    13          0.726              1.577              1.170
 Vibration    14          0.759              1.490              0.997
 Vibration    15          0.783              1.425              0.890
 Vibration    16          0.807              1.366              0.803
 Vibration    17          0.845              1.275              0.687
 Vibration    18          0.858              1.243              0.650
 Vibration    19          0.928              1.091              0.500
 Vibration    20          0.935              1.077              0.488

 Optimization completed.
    -- Stationary point found.
 Normal termination of Gaussian 16 at Wed Dec 30 14:31:12 2020.

 ----------------------------------------------------------------------
 # B3LYP/6-311++G(d,p) empiricaldispersion=gd3bj scf=xqc pop=npa geom=c
 heck
 ----------------------------------------------------------------------

 --------------------------------------
 CID_12713373_JID_3121_Energie_neutraal
 --------------------------------------
 Structure from the checkpoint file:  "JID_3121.chk"
 Charge =  0 Multiplicity = 1

 SCF Done:  E(RB3LYP) =  -578.071929769     A.U. after   13 cycles
 Normal termination of Gaussian 16 at Wed Dec 30 14:34:31 2020.

 ----------------------------------------------------------------------
 # B3LYP/6-311++G(d,p) empiricaldispersion=gd3bj scf=xqc pop=npa geom=c
 heck
 ----------------------------------------------------------------------

 ------------------------------------
 CID_12713373_JID_3121_Energie_kation
 ------------------------------------
 Structure from the checkpoint file:  "JID_3121.chk"
 Charge =  1 Multiplicity = 2

 SCF Done:  E(UB3LYP) =  -577.783827876     A.U. after   25 cycles
 Normal termination of Gaussian 16 at Wed Dec 30 14:42:48 2020.
 Gaussian 16:  ES64L-G16RevA.03 25-Dec-2016

 ----------------------------------------------------------------------
 # B3LYP/6-311++G(d,p) empiricaldispersion=gd3bj scf=xqc pop=npa geom=c
 heck
 ----------------------------------------------------------------------

 -----------------------------------
 CID_12713373_JID_3121_Energie_anion
 -----------------------------------
 Structure from the checkpoint file:  "JID_3121.chk"
 Charge = -1 Multiplicity = 2

                         Standard orientation:
 ---------------------------------------------------------------------
 Center     Atomic      Atomic             Coordinates (Angstroms)
 Number     Number       Type             X           Y           Z
 ---------------------------------------------------------------------
      1          6           0       -3.926618    0.471786    0.373616
      2          7           0       -2.589578    0.627333    0.922331
      3          6           0       -1.851095   -0.613747    1.099689
      4          6           0       -1.629995   -1.491879   -0.149981
      5          6           0       -0.943871   -0.762357   -1.311271
      6          7           0        0.397068   -0.266544   -0.990275
      7          6           0        1.478912   -1.248736   -0.895635
      8          6           0        2.025184   -1.477556    0.521552
      9          6           0        3.002460   -0.397502    0.998119
     10          6           0        2.438932    1.027444    1.016238
     11          6           0        1.966989    1.536952   -0.361094
     12          6           0        0.567229    1.064985   -0.729272
     13          8           0       -0.369627    1.867572   -0.758014
     14          1           0       -4.522758   -0.165502    1.039957
     15          1           0       -3.979396    0.027901   -0.638505
     16          1           0       -4.413025    1.451945    0.329065
     17          1           0       -2.038186    1.269365    0.353977
     18          1           0       -0.875738   -0.351791    1.528528
     19          1           0       -2.369990   -1.220423    1.855486
     20          1           0       -1.043848   -2.376403    0.137456
     21          1           0       -2.591287   -1.872035   -0.518628
     22          1           0       -0.859569   -1.432585   -2.175527
     23          1           0       -1.533905    0.102765   -1.614864
     24          1           0        2.300118   -0.968618   -1.569433
     25          1           0        1.071486   -2.187051   -1.280384
     26          1           0        2.541243   -2.446432    0.534751
     27          1           0        1.179542   -1.560494    1.215127
     28          1           0        3.886993   -0.414428    0.344127
     29          1           0        3.358892   -0.656360    2.002944
     30          1           0        3.219019    1.704145    1.384604
     31          1           0        1.606697    1.099408    1.728892
     32          1           0        2.693796    1.247310   -1.132057
     33          1           0        1.905728    2.626843   -0.357561
 ---------------------------------------------------------------------

 SCF Done:  E(UB3LYP) =  -578.059325011     A.U. after   31 cycles

 The electronic state is 2-A.
 Alpha  occ. eigenvalues --  -18.98856 -14.24269 -14.18857 -10.17139 -10.10532
 Alpha  occ. eigenvalues --  -10.10155 -10.09113 -10.09087 -10.07907 -10.07693
 Alpha  occ. eigenvalues --  -10.06835 -10.06793 -10.06702  -0.93972  -0.83934
 Alpha  occ. eigenvalues --   -0.80020  -0.71598  -0.67120  -0.66706  -0.61238
 Alpha  occ. eigenvalues --   -0.58886  -0.56034  -0.53978  -0.48836  -0.47864
 Alpha  occ. eigenvalues --   -0.43781  -0.40992  -0.39697  -0.38889  -0.36575
 Alpha  occ. eigenvalues --   -0.36288  -0.34442  -0.33751  -0.33017  -0.32691
 Alpha  occ. eigenvalues --   -0.32261  -0.31059  -0.29677  -0.29296  -0.28210
 Alpha  occ. eigenvalues --   -0.27355  -0.26293  -0.25864  -0.24942  -0.24294
 Alpha  occ. eigenvalues --   -0.23270  -0.22906  -0.22544  -0.15954  -0.14656
 Alpha  occ. eigenvalues --   -0.12067   0.04425
 Alpha virt. eigenvalues --    0.06342   0.07205   0.07566   0.08583   0.08988
 Alpha virt. eigenvalues --    0.09473   0.09948   0.10419   0.11153   0.11484
 Alpha virt. eigenvalues --    0.11789   0.11810   0.12340   0.13046   0.13642

  Beta  occ. eigenvalues --  -18.98853 -14.24265 -14.18856 -10.17138 -10.10494
  Beta  occ. eigenvalues --  -10.10138 -10.09101 -10.09081 -10.07894 -10.07681
  Beta  occ. eigenvalues --  -10.06816 -10.06766 -10.06673  -0.93967  -0.83918
  Beta  occ. eigenvalues --   -0.80014  -0.71560  -0.67086  -0.66663  -0.61204
  Beta  occ. eigenvalues --   -0.58845  -0.55994  -0.53932  -0.48800  -0.47797
  Beta  occ. eigenvalues --   -0.43733  -0.40967  -0.39672  -0.38837  -0.36534
  Beta  occ. eigenvalues --   -0.36253  -0.34413  -0.33717  -0.32989  -0.32657
  Beta  occ. eigenvalues --   -0.32226  -0.31023  -0.29653  -0.29261  -0.28188
  Beta  occ. eigenvalues --   -0.27330  -0.26260  -0.25833  -0.24919  -0.24265
  Beta  occ. eigenvalues --   -0.23223  -0.22867  -0.22496  -0.15944  -0.14617
  Beta  occ. eigenvalues --   -0.12058
  Beta virt. eigenvalues --    0.06646   0.07114   0.08094   0.08127   0.09274
  Beta virt. eigenvalues --    0.09357   0.09734   0.10518   0.10916   0.11245
  Beta virt. eigenvalues --    0.11783   0.12094   0.12256   0.12618   0.13330

 Mulliken charges and spin densities:
               1          2
     1  C   -0.088089  -0.329505
     2  N   -0.183539   0.040202
     3  C   -0.073990  -0.374554
     4  C   -0.167067  -0.043636
     5  C    0.321440  -0.689000
     6  N   -0.003137   0.143035
     7  C    0.798446  -1.209967
     8  C   -0.751066   0.708606
     9  C    2.071515  -2.709017
    10  C   -0.621846   0.492584
    11  C    0.062621  -0.344159
    12  C    0.066760  -0.191282
    13  O   -0.364034   0.014655
    14  H    0.028694   0.113989
    15  H    0.020092   0.086524
    16  H    0.102307   0.025868
    17  H    0.254965   0.043964
    18  H    0.269537  -0.056504
    19  H   -0.013501   0.153310
    20  H   -0.296901   0.454168
    21  H   -0.115624   0.277867
    22  H   -0.515911   0.717137
    23  H    0.229879  -0.037058
    24  H   -0.431941   0.613242
    25  H   -0.303875   0.492111
    26  H   -0.718451   0.911634
    27  H    0.092149   0.032819
    28  H   -0.121347   0.276194
    29  H   -0.521025   0.683340
    30  H   -0.194394   0.383216
    31  H    0.109472   0.029929
    32  H   -0.105241   0.261557
    33  H    0.163101   0.028731
 Sum of Mulliken charges =  -1.00000   1.00000

 Dipole moment (field-independent basis, Debye):
    X=             -4.4769    Y=              4.2928    Z=              0.4747  Tot=              6.2207
 Quadrupole moment (field-independent basis, Debye-Ang):
   XX=           -148.6884   YY=           -134.8672   ZZ=           -120.1396
   XY=             10.3242   XZ=             -2.5659   YZ=             -5.4098

 Summary of Natural Population Analysis:

                                       Natural Population
                Natural  -----------------------------------------------
    Atom  No    Charge         Core      Valence    Rydberg      Total
 -----------------------------------------------------------------------
      C    1   -0.17954      0.99967     2.17292    0.00696     3.17954
      N    2   -0.35153      0.99975     2.84036    0.01142     3.85153
      C    3   -0.08946      0.99962     2.07716    0.01268     3.08946
      C    4   -0.20716      0.99962     2.19856    0.00899     3.20716
      C    5   -0.08811      0.99959     2.07644    0.01208     3.08811
      N    6   -0.25638      0.99963     2.74379    0.01296     3.75638
      C    7   -0.08705      0.99960     2.07525    0.01221     3.08705
      C    8   -0.19586      0.99961     2.18673    0.00952     3.19586
      C    9   -0.18783      0.99962     2.17925    0.00896     3.18783
      C   10   -0.18758      0.99962     2.17915    0.00881     3.18758
      C   11   -0.23094      0.99959     2.22341    0.00795     3.23094
      C   12    0.35013      0.99962     1.62689    0.02336     2.64987
      O   13   -0.34397      0.99987     3.33906    0.00504     4.34397
      H   14    0.08747      0.00000     0.41140    0.00114     0.41253
      H   15    0.07640      0.00000     0.42208    0.00152     0.42360
      H   16    0.09199      0.00000     0.40716    0.00085     0.40801
      H   17    0.19242      0.00000     0.30486    0.00272     0.30758
      H   18    0.09352      0.00000     0.40459    0.00189     0.40648
      H   19    0.08931      0.00000     0.40969    0.00099     0.41069
      H   20    0.10106      0.00000     0.39750    0.00143     0.39894
      H   21    0.09845      0.00000     0.40039    0.00116     0.40155
      H   22    0.09862      0.00000     0.40014    0.00124     0.40138
      H   23    0.10916      0.00000     0.38920    0.00164     0.39084
      H   24    0.09788      0.00000     0.40025    0.00187     0.40212
      H   25    0.10745      0.00000     0.38959    0.00296     0.39255
      H   26    0.10647      0.00000     0.39068    0.00284     0.39353
      H   27    0.09545      0.00000     0.40276    0.00178     0.40455
      H   28    0.09534      0.00000     0.40246    0.00220     0.40466
      H   29    0.10165      0.00000     0.39680    0.00156     0.39835
      H   30    0.10052      0.00000     0.39841    0.00106     0.39948
      H   31    0.09573      0.00000     0.40272    0.00155     0.40427
      H   32    0.10529      0.00000     0.39339    0.00132     0.39471
      H   33    0.11110      0.00000     0.38797    0.00094     0.38890
 =======================================================================
   * Total *    0.00000     12.99541    37.83099    0.17360    51.00000

 Normal termination of Gaussian 16 at Wed Dec 30 14:53:00 2020.
