 Gaussian 16, Revision A.03,

 -----------------------------------------------------------
 # opt freq B3LYP/6-31G(d) empiricaldispersion=gd3bj scf=xqc
 -----------------------------------------------------------

 -------------------------------
 CID_131154798_JID_4009_neutraal
 -------------------------------
 Symbolic Z-matrix:
 Charge =  0 Multiplicity = 1

 SCF Done:  E(RB3LYP) =  -936.434134507     A.U. after   15 cycles
 SCF Done:  E(RB3LYP) =  -936.452817077     A.U. after   13 cycles
 SCF Done:  E(RB3LYP) =  -936.453917290     A.U. after   13 cycles
 SCF Done:  E(RB3LYP) =  -936.446673625     A.U. after   15 cycles
 SCF Done:  E(RB3LYP) =  -936.451235355     A.U. after   13 cycles
 SCF Done:  E(RB3LYP) =  -936.454274467     A.U. after   11 cycles
 SCF Done:  E(RB3LYP) =  -936.453541269     A.U. after   13 cycles
 SCF Done:  E(RB3LYP) =  -936.454577440     A.U. after   12 cycles
 SCF Done:  E(RB3LYP) =  -936.454768760     A.U. after   12 cycles
 SCF Done:  E(RB3LYP) =  -936.455229095     A.U. after   15 cycles
 SCF Done:  E(RB3LYP) =  -936.458958018     A.U. after   10 cycles
 SCF Done:  E(RB3LYP) =  -936.458958756     A.U. after   10 cycles
 SCF Done:  E(RB3LYP) =  -936.458959011     A.U. after    9 cycles
 SCF Done:  E(RB3LYP) =  -936.458958862     A.U. after   10 cycles
 SCF Done:  E(RB3LYP) =  -936.458958953     A.U. after    8 cycles
 SCF Done:  E(RB3LYP) =  -936.458958948     A.U. after    7 cycles
 Optimization completed.
    -- Stationary point found.
 Normal termination of Gaussian 16 at Thu Dec 10 09:33:06 2020.

 --------------------------------------------------------------------
 #N Geom=AllCheck Guess=TCheck SCRF=Check GenChk RB3LYP/6-31G(d) Freq
 --------------------------------------------------------------------

 Structure from the checkpoint file:  "JID_4009.chk"
 -------------------------------
 CID_131154798_JID_4009_neutraal
 -------------------------------
 Charge =  0 Multiplicity = 1

 SCF Done:  E(RB3LYP) =  -936.458958948     A.U. after    1 cycles

  Exact polarizability: 218.582  11.756 145.757  -4.543  -8.278  89.314
 Approx polarizability: 313.621  28.252 233.679 -13.817 -19.008 136.941

                      1                      2                      3
                      A                      A                      A
 Frequencies --      9.5926                51.4201                62.9735
 Red. masses --      3.6434                 3.7445                 3.6746
 Frc consts  --      0.0002                 0.0058                 0.0086
 IR Inten    --      0.1792                 2.2740                 2.8953

                      4                      5                      6
                      A                      A                      A
 Frequencies --     84.0135               113.4965               129.2788
 Red. masses --      3.8241                 3.1183                 2.5756
 Frc consts  --      0.0159                 0.0237                 0.0254
 IR Inten    --      0.8100                 0.7898                 0.0920

                      7                      8                      9
                      A                      A                      A
 Frequencies --    153.0883               166.5342               222.0174
 Red. masses --      1.6025                 2.7478                 1.8378
 Frc consts  --      0.0221                 0.0449                 0.0534
 IR Inten    --      0.2249                 0.8426                19.1535

                     10                     11                     12
                      A                      A                      A
 Frequencies --    228.1425               245.7813               255.9499
 Red. masses --      2.0708                 1.3685                 1.9664
 Frc consts  --      0.0635                 0.0487                 0.0759
 IR Inten    --      1.7519                 4.1234                29.8231

                     13                     14                     15
                      A                      A                      A
 Frequencies --    277.5929               295.1713               324.2632
 Red. masses --      1.8746                 3.3928                 3.1458
 Frc consts  --      0.0851                 0.1742                 0.1949
 IR Inten    --     24.1257                 2.1068                17.9851

                     16                     17                     18
                      A                      A                      A
 Frequencies --    352.3931               406.0641               432.4727
 Red. masses --      3.0532                 4.0532                 4.3999
 Frc consts  --      0.2234                 0.3938                 0.4849
 IR Inten    --      1.9150                 1.9439                 0.6582

                     19                     20                     21
                      A                      A                      A
 Frequencies --    473.0099               495.8832               509.1348
 Red. masses --      2.0778                 6.7796                 2.6177
 Frc consts  --      0.2739                 0.9822                 0.3998
 IR Inten    --      0.3940                 2.0964                 5.9733

                     22                     23                     24
                      A                      A                      A
 Frequencies --    528.6108               547.3825               618.3482
 Red. masses --      5.3695                 5.7429                 4.5377
 Frc consts  --      0.8840                 1.0138                 1.0222
 IR Inten    --      1.1644                 1.1551                 5.8491

                     25                     26                     27
                      A                      A                      A
 Frequencies --    630.6997               710.6471               723.0831
 Red. masses --      3.2209                 7.6893                 1.3802
 Frc consts  --      0.7549                 2.2879                 0.4252
 IR Inten    --      6.9301                 1.2842                34.4401

                     28                     29                     30
                      A                      A                      A
 Frequencies --    782.3364               839.9606               854.7916
 Red. masses --      2.7062                 5.1502                 1.7364
 Frc consts  --      0.9759                 2.1409                 0.7475
 IR Inten    --     14.4143                16.6401                64.4342

                     31                     32                     33
                      A                      A                      A
 Frequencies --    889.4156               900.7919               934.6910
 Red. masses --      1.2645                 1.8383                 3.5755
 Frc consts  --      0.5894                 0.8789                 1.8404
 IR Inten    --      1.1445                58.8593                17.3389

                     34                     35                     36
                      A                      A                      A
 Frequencies --    948.0039               972.6277              1018.4019
 Red. masses --      1.9890                 3.0736                 1.7470
 Frc consts  --      1.0532                 1.7131                 1.0675
 IR Inten    --      3.9095                 0.9048                 6.2705

                     37                     38                     39
                      A                      A                      A
 Frequencies --   1035.0268              1042.2846              1074.8994
 Red. masses --      1.6494                 2.1460                 2.1958
 Frc consts  --      1.0411                 1.3736                 1.4948
 IR Inten    --      7.6722                31.3744                40.2079

                     40                     41                     42
                      A                      A                      A
 Frequencies --   1076.7719              1114.6268              1122.7369
 Red. masses --      1.4697                 2.2459                 1.1967
 Frc consts  --      1.0040                 1.6440                 0.8888
 IR Inten    --      2.2889                 1.4677                 4.8706

                     43                     44                     45
                      A                      A                      A
 Frequencies --   1157.4658              1171.1350              1207.2279
 Red. masses --      1.6322                 1.5852                 1.3088
 Frc consts  --      1.2884                 1.2810                 1.1238
 IR Inten    --     26.5670                 2.6886                 0.5343

                     46                     47                     48
                      A                      A                      A
 Frequencies --   1252.1882              1260.1362              1282.2796
 Red. masses --      1.4311                 1.7621                 3.9853
 Frc consts  --      1.3220                 1.6486                 3.8608
 IR Inten    --     10.3302                 2.9444                 5.8162

                     49                     50                     51
                      A                      A                      A
 Frequencies --   1299.8882              1322.5526              1385.1234
 Red. masses --      1.5801                 1.3868                 1.2737
 Frc consts  --      1.5730                 1.4292                 1.4398
 IR Inten    --     27.5224                 8.5815                 4.7090

                     52                     53                     54
                      A                      A                      A
 Frequencies --   1393.2461              1417.5892              1421.2129
 Red. masses --      1.2502                 1.5065                 2.8436
 Frc consts  --      1.4298                 1.7836                 3.3841
 IR Inten    --     24.1877               106.5021                 0.3280

                     55                     56                     57
                      A                      A                      A
 Frequencies --   1446.2802              1452.6705              1480.3555
 Red. masses --      1.3896                 1.3227                 1.2980
 Frc consts  --      1.7126                 1.6446                 1.6759
 IR Inten    --      3.7885                 1.7514                 0.6185

                     58                     59                     60
                      A                      A                      A
 Frequencies --   1484.8031              1508.3063              1513.1436
 Red. masses --      3.2021                 1.0944                 1.0629
 Frc consts  --      4.1594                 1.4669                 1.4339
 IR Inten    --      5.3187                12.2274                 7.3051

                     61                     62                     63
                      A                      A                      A
 Frequencies --   1521.5686              1522.8190              1532.8135
 Red. masses --      1.0843                 1.1795                 1.0642
 Frc consts  --      1.4791                 1.6116                 1.4732
 IR Inten    --      0.6878                 8.3827                 3.8084

                     64                     65                     66
                      A                      A                      A
 Frequencies --   1537.1256              1547.0364              1602.6931
 Red. masses --      1.0672                 1.0661                 5.0879
 Frc consts  --      1.4857                 1.5033                 7.7000
 IR Inten    --      7.8138                 6.7290                 5.4953

                     67                     68                     69
                      A                      A                      A
 Frequencies --   1698.2654              2339.1880              2885.7531
 Red. masses --      1.0867                11.9091                 1.0741
 Frc consts  --      1.8466                38.3938                 5.2698
 IR Inten    --     27.6299                15.2498                62.2457

                     70                     71                     72
                      A                      A                      A
 Frequencies --   2940.4375              2963.6145              3037.1075
 Red. masses --      1.0631                 1.0719                 1.0397
 Frc consts  --      5.4157                 5.5470                 5.6505
 IR Inten    --     44.2175               134.6213                27.7503

                     73                     74                     75
                      A                      A                      A
 Frequencies --   3041.8155              3057.8659              3070.7831
 Red. masses --      1.0827                 1.0776                 1.0716
 Frc consts  --      5.9021                 5.9368                 5.9536
 IR Inten    --     22.1406                13.2891                53.1942

                     76                     77                     78
                      A                      A                      A
 Frequencies --   3074.0901              3089.6191              3114.5261
 Red. masses --      1.0721                 1.0983                 1.1035
 Frc consts  --      5.9691                 6.1769                 6.3065
 IR Inten    --     55.9883                20.7466                22.8832

                     79                     80                     81
                      A                      A                      A
 Frequencies --   3122.3629              3135.7849              3214.3673
 Red. masses --      1.1024                 1.1018                 1.0909
 Frc consts  --      6.3321                 6.3831                 6.6410
 IR Inten    --     36.8257                 6.1679                10.4683

                     82                     83                     84
                      A                      A                      A
 Frequencies --   3267.3597              3476.7551              3566.5709
 Red. masses --      1.0965                 1.0503                 1.0924
 Frc consts  --      6.8968                 7.4800                 8.1873
 IR Inten    --      0.4907                 5.4383                 3.4257

 - Thermochemistry -
 -------------------
 Temperature   298.150 Kelvin.  Pressure   1.00000 Atm.
 Atom     1 has atomic number  6 and mass  12.00000

 Molecular mass:   208.10342 amu.
 Principal axes and moments of inertia in atomic units:
                           1         2         3
     Eigenvalues --  1503.772876202.862637307.46175
           X            0.99990   0.01412  -0.00299
           Y           -0.01412   0.99990  -0.00271
           Z            0.00295   0.00276   0.99999
 This molecule is an asymmetric top.
 Rotational symmetry number  1.
 Warning -- assumption of classical behavior for rotation
           may cause significant error
 Rotational temperatures (Kelvin)      0.05760     0.01396     0.01185
 Rotational constants (GHZ):           1.20014     0.29095     0.24697
 Zero-point vibrational energy     666740.7 (Joules/Mol)
                                  159.35485 (Kcal/Mol)
 Warning -- explicit consideration of  24 degrees of freedom as
           vibrations may cause significant error
 Vibrational temperatures:     13.80    73.98    90.60   120.88   163.30
          (Kelvin)            186.00   220.26   239.61   319.43   328.25
                              353.62   368.25   399.39   424.69   466.54
                              507.02   584.24   622.23   680.56   713.47
                              732.53   760.55   787.56   889.67   907.44
                             1022.46  1040.36  1125.61  1208.52  1229.85
                             1279.67  1296.04  1344.81  1363.97  1399.39
                             1465.25  1489.17  1499.62  1546.54  1549.23
                             1603.70  1615.37  1665.34  1685.00  1736.93
                             1801.62  1813.05  1844.91  1870.25  1902.86
                             1992.88  2004.57  2039.59  2044.81  2080.87
                             2090.07  2129.90  2136.30  2170.12  2177.08
                             2189.20  2191.00  2205.38  2211.58  2225.84
                             2305.92  2443.43  3365.57  4151.96  4230.63
                             4263.98  4369.72  4376.49  4399.59  4418.17
                             4422.93  4445.27  4481.11  4492.38  4511.70
                             4624.76  4701.00  5002.28  5131.50

 Zero-point correction=                           0.253948 (Hartree/Particle)
 Thermal correction to Energy=                    0.269425
 Thermal correction to Enthalpy=                  0.270369
 Thermal correction to Gibbs Free Energy=         0.209532
 Sum of electronic and zero-point Energies=           -936.205011
 Sum of electronic and thermal Energies=              -936.189534
 Sum of electronic and thermal Enthalpies=            -936.188589
 Sum of electronic and thermal Free Energies=         -936.249427

                     E (Thermal)             CV                S
                      KCal/Mol        Cal/Mol-Kelvin    Cal/Mol-Kelvin
 Total                  169.067             56.849            128.043
 Electronic               0.000              0.000              0.000
 Translational            0.889              2.981             41.903
 Rotational               0.889              2.981             32.588
 Vibrational            167.289             50.888             53.552
 Vibration     1          0.593              1.987              8.094
 Vibration     2          0.596              1.977              4.762
 Vibration     3          0.597              1.972              4.362
 Vibration     4          0.601              1.960              3.795
 Vibration     5          0.607              1.938              3.208
 Vibration     6          0.612              1.924              2.957
 Vibration     7          0.619              1.899              2.633
 Vibration     8          0.624              1.884              2.474
 Vibration     9          0.648              1.808              1.943
 Vibration    10          0.651              1.798              1.894
 Vibration    11          0.660              1.770              1.761
 Vibration    12          0.666              1.753              1.689
 Vibration    13          0.679              1.715              1.548
 Vibration    14          0.689              1.683              1.444
 Vibration    15          0.709              1.627              1.289
 Vibration    16          0.729              1.570              1.155
 Vibration    17          0.771              1.457              0.941
 Vibration    18          0.793              1.399              0.851
 Vibration    19          0.830              1.310              0.729
 Vibration    20          0.851              1.259              0.668
 Vibration    21          0.864              1.230              0.636
 Vibration    22          0.884              1.187              0.590
 Vibration    23          0.903              1.145              0.550
 Vibration    24          0.978              0.993              0.419

 Optimization completed.
    -- Stationary point found.
 Normal termination of Gaussian 16 at Thu Dec 10 09:40:40 2020.

 ----------------------------------------------------------------------
 # B3LYP/6-311++G(d,p) empiricaldispersion=gd3bj scf=xqc pop=npa geom=c
 heck
 ----------------------------------------------------------------------

 ---------------------------------------
 CID_131154798_JID_4009_Energie_neutraal
 ---------------------------------------
 Structure from the checkpoint file:  "JID_4009.chk"
 Charge =  0 Multiplicity = 1

 SCF Done:  E(RB3LYP) =  -936.639087318     A.U. after   16 cycles
 Normal termination of Gaussian 16 at Thu Dec 10 09:44:13 2020.

 ----------------------------------------------------------------------
 # B3LYP/6-311++G(d,p) empiricaldispersion=gd3bj scf=xqc pop=npa geom=c
 heck
 ----------------------------------------------------------------------

 -------------------------------------
 CID_131154798_JID_4009_Energie_kation
 -------------------------------------
 Structure from the checkpoint file:  "JID_4009.chk"
 Charge =  1 Multiplicity = 2

 SCF Done:  E(UB3LYP) =  -936.364088814     A.U. after   27 cycles
 Normal termination of Gaussian 16 at Thu Dec 10 09:52:45 2020.
 Gaussian 16:  ES64L-G16RevA.03 25-Dec-2016

 ----------------------------------------------------------------------
 # B3LYP/6-311++G(d,p) empiricaldispersion=gd3bj scf=xqc pop=npa geom=c
 heck
 ----------------------------------------------------------------------

 ------------------------------------
 CID_131154798_JID_4009_Energie_anion
 ------------------------------------
 Structure from the checkpoint file:  "JID_4009.chk"
 Charge = -1 Multiplicity = 2

                         Standard orientation:
 ---------------------------------------------------------------------
 Center     Atomic      Atomic             Coordinates (Angstroms)
 Number     Number       Type             X           Y           Z
 ---------------------------------------------------------------------
      1          6           0        1.471997    2.200375   -0.372212
      2          6           0        2.315586    0.969953   -0.197848
      3          6           0        1.813120   -0.295557    0.051937
      4         16           0        3.100778   -1.489509    0.164045
      5          6           0        4.300544   -0.273841   -0.120583
      6          6           0        3.741979    0.961850   -0.293331
      7          6           0        0.467202   -0.683103    0.204535
      8          6           0       -0.688861   -1.029196    0.330960
      9          6           0       -2.098098   -1.375355    0.508400
     10          7           0       -2.952158   -0.902745   -0.582013
     11          6           0       -4.320216   -1.353236   -0.383510
     12          6           0       -2.844072    0.529690   -0.879135
     13          6           0       -3.140460    1.522868    0.266305
     14          7           0       -1.911731    1.929337    0.961555
     15          1           0        1.892551    3.041127    0.192361
     16          1           0        0.439943    2.049770   -0.042505
     17          1           0        1.444537    2.505105   -1.426894
     18          1           0        5.348525   -0.540879   -0.140342
     19          1           0        4.324732    1.857324   -0.482858
     20          1           0       -2.195491   -2.468496    0.555561
     21          1           0       -2.440787   -1.004910    1.497990
     22          1           0       -4.796477   -0.969493    0.539311
     23          1           0       -4.932382   -1.040547   -1.235315
     24          1           0       -4.339806   -2.448149   -0.334422
     25          1           0       -1.833324    0.729666   -1.248851
     26          1           0       -3.534957    0.717667   -1.708125
     27          1           0       -3.581504    2.430771   -0.162628
     28          1           0       -3.909958    1.091635    0.931810
     29          1           0       -2.139508    2.529056    1.752723
     30          1           0       -1.423650    1.119672    1.337556
 ---------------------------------------------------------------------

 SCF Done:  E(UB3LYP) =  -936.629374063     A.U. after   30 cycles

 The electronic state is 2-A.
 Alpha  occ. eigenvalues --  -88.75329 -14.20040 -14.18326 -10.10792 -10.08598
 Alpha  occ. eigenvalues --  -10.08212 -10.08177 -10.08138 -10.07619 -10.06332
 Alpha  occ. eigenvalues --  -10.05927 -10.05333 -10.05330 -10.04701  -7.83966
 Alpha  occ. eigenvalues --   -5.80268  -5.79904  -5.79552  -0.82276  -0.76922
 Alpha  occ. eigenvalues --   -0.76579  -0.66959  -0.65106  -0.63270  -0.61815
 Alpha  occ. eigenvalues --   -0.58415  -0.55848  -0.54019  -0.48409  -0.46476
 Alpha  occ. eigenvalues --   -0.44019  -0.39496  -0.38842  -0.38072  -0.37592
 Alpha  occ. eigenvalues --   -0.35210  -0.33246  -0.32165  -0.31228  -0.30892
 Alpha  occ. eigenvalues --   -0.30503  -0.29628  -0.28142  -0.27219  -0.26660
 Alpha  occ. eigenvalues --   -0.26012  -0.25635  -0.25239  -0.24695  -0.22893
 Alpha  occ. eigenvalues --   -0.19074  -0.15397  -0.13613  -0.13420  -0.11179
 Alpha  occ. eigenvalues --   -0.10234   0.04683
 Alpha virt. eigenvalues --    0.06252   0.07553   0.07762   0.08327   0.08801
 Alpha virt. eigenvalues --    0.09711   0.10409   0.10690   0.11223   0.11639
 Alpha virt. eigenvalues --    0.11983   0.12346   0.13010   0.13596   0.14033

  Beta  occ. eigenvalues --  -88.75295 -14.20024 -14.18308 -10.10787 -10.08468
  Beta  occ. eigenvalues --  -10.08203 -10.08148 -10.08099 -10.07389 -10.06227
  Beta  occ. eigenvalues --  -10.05954 -10.05338 -10.05337 -10.04569  -7.83935
  Beta  occ. eigenvalues --   -5.80256  -5.79891  -5.79436  -0.82243  -0.76886
  Beta  occ. eigenvalues --   -0.76354  -0.66741  -0.64915  -0.63106  -0.61721
  Beta  occ. eigenvalues --   -0.58330  -0.55697  -0.53932  -0.48185  -0.46240
  Beta  occ. eigenvalues --   -0.43886  -0.39448  -0.38778  -0.37930  -0.37488
  Beta  occ. eigenvalues --   -0.35143  -0.33161  -0.32085  -0.31014  -0.30783
  Beta  occ. eigenvalues --   -0.30441  -0.29558  -0.28067  -0.27124  -0.26614
  Beta  occ. eigenvalues --   -0.25689  -0.25385  -0.25196  -0.24656  -0.22720
  Beta  occ. eigenvalues --   -0.18400  -0.15331  -0.13486  -0.12971  -0.11047
  Beta  occ. eigenvalues --   -0.09326
  Beta virt. eigenvalues --    0.07036   0.07566   0.08252   0.08333   0.08871
  Beta virt. eigenvalues --    0.08927   0.09982   0.10767   0.11007   0.11203
  Beta virt. eigenvalues --    0.11822   0.12167   0.12462   0.13240   0.13619

 Mulliken charges and spin densities:
               1          2
     1  C   -1.021532  -0.024053
     2  C    0.296444   0.025206
     3  C   -0.148342   0.297940
     4  S   -0.746884   0.067079
     5  C   -0.155225   0.164877
     6  C    0.062911  -0.054162
     7  C    0.418782  -0.038404
     8  C   -0.395175   0.759168
     9  C    0.548216  -1.098890
    10  N    0.010352   0.162806
    11  C    0.905223  -1.178480
    12  C   -1.059189   0.527446
    13  C    1.005061  -1.374695
    14  N   -0.502962   0.122333
    15  H    0.096244   0.017876
    16  H    0.207469  -0.096903
    17  H    0.112649   0.016324
    18  H    0.188551  -0.008227
    19  H    0.115471   0.010815
    20  H    0.067285   0.100830
    21  H   -0.172211   0.337217
    22  H   -0.254363   0.375378
    23  H   -0.210444   0.343090
    24  H   -0.193940   0.320806
    25  H    0.131395   0.062663
    26  H    0.008728   0.116153
    27  H   -0.159869   0.305111
    28  H   -0.358727   0.511783
    29  H   -0.017969   0.253934
    30  H    0.222051  -0.025019
 Sum of Mulliken charges =  -1.00000   1.00000

 Dipole moment (field-independent basis, Debye):
    X=              5.7370    Y=              0.8007    Z=             -1.2593  Tot=              5.9279
 Quadrupole moment (field-independent basis, Debye-Ang):
   XX=           -168.5513   YY=           -122.8625   ZZ=           -116.8569
   XY=              1.9253   XZ=              5.0450   YZ=             -3.2550

 Summary of Natural Population Analysis:

                                       Natural Population
                Natural  -----------------------------------------------
    Atom  No    Charge         Core      Valence    Rydberg      Total
 -----------------------------------------------------------------------
      C    1   -0.29917      0.99963     2.29424    0.00530     3.29917
      C    2   -0.00698      0.99946     1.99897    0.00855     3.00698
      C    3   -0.11656      0.99936     2.10508    0.01212     3.11656
      S    4    0.20557      4.99946     2.77276    0.02221     7.79443
      C    5   -0.15437      0.99955     2.14359    0.01123     3.15437
      C    6   -0.14008      0.99950     2.13114    0.00944     3.14008
      C    7   -0.04913      0.99933     2.03794    0.01186     3.04913
      C    8    0.05788      0.99927     1.93480    0.00804     2.94212
      C    9   -0.13583      0.99958     2.12008    0.01618     3.13583
      N   10   -0.27196      0.99973     2.75857    0.01366     3.77196
      C   11   -0.17751      0.99964     2.16875    0.00912     3.17751
      C   12   -0.09240      0.99960     2.08001    0.01279     3.09240
      C   13   -0.10339      0.99964     2.09224    0.01151     3.10339
      N   14   -0.42709      0.99977     2.91622    0.01109     3.92709
      H   15    0.09709      0.00000     0.40163    0.00129     0.40291
      H   16    0.12175      0.00000     0.37684    0.00142     0.37825
      H   17    0.09936      0.00000     0.39950    0.00115     0.40064
      H   18    0.09976      0.00000     0.39931    0.00093     0.40024
      H   19    0.09854      0.00000     0.40045    0.00101     0.40146
      H   20    0.10804      0.00000     0.39032    0.00164     0.39196
      H   21    0.09420      0.00000     0.40338    0.00242     0.40580
      H   22    0.08266      0.00000     0.41507    0.00227     0.41734
      H   23    0.09438      0.00000     0.40449    0.00113     0.40562
      H   24    0.09338      0.00000     0.40526    0.00136     0.40662
      H   25    0.10464      0.00000     0.39350    0.00186     0.39536
      H   26    0.09456      0.00000     0.40440    0.00105     0.40544
      H   27    0.08883      0.00000     0.40975    0.00143     0.41117
      H   28    0.08271      0.00000     0.41479    0.00250     0.41729
      H   29    0.17378      0.00000     0.32459    0.00163     0.32622
      H   30    0.17950      0.00000     0.31851    0.00199     0.32050
 =======================================================================
   * Total *    0.00214     17.99352    37.81615    0.18819    55.99786

 Normal termination of Gaussian 16 at Thu Dec 10 10:01:57 2020.
