 Gaussian 16, Revision A.03,

 -----------------------------------------------------------
 # opt freq B3LYP/6-31G(d) empiricaldispersion=gd3bj scf=xqc
 -----------------------------------------------------------

 ------------------------------
 CID_49756417_JID_1895_neutraal
 ------------------------------
 Symbolic Z-matrix:
 Charge =  0 Multiplicity = 1

 SCF Done:  E(RB3LYP) =  -548.747506168     A.U. after   15 cycles
 SCF Done:  E(RB3LYP) =  -548.750898660     A.U. after   13 cycles
 SCF Done:  E(RB3LYP) =  -548.751643193     A.U. after   13 cycles
 SCF Done:  E(RB3LYP) =  -548.753542579     A.U. after   13 cycles
 SCF Done:  E(RB3LYP) =  -548.754233066     A.U. after   12 cycles
 SCF Done:  E(RB3LYP) =  -548.754744069     A.U. after   13 cycles
 SCF Done:  E(RB3LYP) =  -548.754890441     A.U. after   12 cycles
 SCF Done:  E(RB3LYP) =  -548.755051956     A.U. after   11 cycles
 SCF Done:  E(RB3LYP) =  -548.755162070     A.U. after   11 cycles
 SCF Done:  E(RB3LYP) =  -548.755175539     A.U. after   10 cycles
 SCF Done:  E(RB3LYP) =  -548.755181488     A.U. after    8 cycles
 SCF Done:  E(RB3LYP) =  -548.755183738     A.U. after    9 cycles
 SCF Done:  E(RB3LYP) =  -548.755184044     A.U. after    8 cycles
 SCF Done:  E(RB3LYP) =  -548.755184149     A.U. after    7 cycles
 Optimization completed.
    -- Stationary point found.
 Normal termination of Gaussian 16 at Tue Dec  8 21:34:14 2020.

 --------------------------------------------------------------------
 #N Geom=AllCheck Guess=TCheck SCRF=Check GenChk RB3LYP/6-31G(d) Freq
 --------------------------------------------------------------------

 Structure from the checkpoint file:  "JID_1895.chk"
 ------------------------------
 CID_49756417_JID_1895_neutraal
 ------------------------------
 Charge =  0 Multiplicity = 1

 SCF Done:  E(RB3LYP) =  -548.755184149     A.U. after    1 cycles

  Exact polarizability:  98.067  -0.470  94.707   9.023   5.516  59.891
 Approx polarizability: 142.065  -8.355 165.850  23.110   8.171  89.105

                      1                      2                      3
                      A                      A                      A
 Frequencies --     44.4088                87.4283                94.5978
 Red. masses --      3.1095                 3.5662                 4.3154
 Frc consts  --      0.0036                 0.0161                 0.0228
 IR Inten    --      0.2907                 2.0165                 2.0383

                      4                      5                      6
                      A                      A                      A
 Frequencies --    146.7037               169.3085               223.5423
 Red. masses --      4.3433                 3.9517                 1.8270
 Frc consts  --      0.0551                 0.0667                 0.0538
 IR Inten    --      3.1851                 5.5869                 1.3154

                      7                      8                      9
                      A                      A                      A
 Frequencies --    270.7033               301.6372               358.0934
 Red. masses --      2.0266                 3.4702                 4.3272
 Frc consts  --      0.0875                 0.1860                 0.3269
 IR Inten    --      4.0316                 2.1732                 8.0436

                     10                     11                     12
                      A                      A                      A
 Frequencies --    419.0595               435.7624               455.5600
 Red. masses --      1.9551                 1.4690                 3.2923
 Frc consts  --      0.2023                 0.1643                 0.4026
 IR Inten    --     20.2039                41.6158                 3.9256

                     13                     14                     15
                      A                      A                      A
 Frequencies --    547.8723               605.5794               622.9295
 Red. masses --      4.7343                 1.9045                 2.6643
 Frc consts  --      0.8373                 0.4115                 0.6091
 IR Inten    --     18.2992               166.8654                48.2723

                     16                     17                     18
                      A                      A                      A
 Frequencies --    637.1457               701.7526               741.9510
 Red. masses --      4.0567                 4.8736                 4.9303
 Frc consts  --      0.9703                 1.4141                 1.5991
 IR Inten    --     19.2168                40.6980                13.2583

                     19                     20                     21
                      A                      A                      A
 Frequencies --    768.4491               814.1475               850.0275
 Red. masses --      2.2521                 1.6510                 7.3974
 Frc consts  --      0.7836                 0.6448                 3.1492
 IR Inten    --      8.4729                25.0151                21.1549

                     22                     23                     24
                      A                      A                      A
 Frequencies --    855.7261               918.4224               934.3998
 Red. masses --      2.1069                 1.3799                 1.7705
 Frc consts  --      0.9090                 0.6858                 0.9108
 IR Inten    --     92.9001                 4.4529                10.8682

                     25                     26                     27
                      A                      A                      A
 Frequencies --    946.6397              1043.1689              1080.7980
 Red. masses --      4.7727                 2.4307                 2.1826
 Frc consts  --      2.5199                 1.5585                 1.5021
 IR Inten    --     11.3398                26.3394                16.9282

                     28                     29                     30
                      A                      A                      A
 Frequencies --   1122.9301              1159.2883              1187.4304
 Red. masses --      1.8351                 2.9863                 1.5745
 Frc consts  --      1.3634                 2.3646                 1.3080
 IR Inten    --      9.2129                85.5927                11.8207

                     31                     32                     33
                      A                      A                      A
 Frequencies --   1220.3858              1293.4415              1346.2293
 Red. masses --      2.1026                 2.8460                 1.5377
 Frc consts  --      1.8450                 2.8053                 1.6420
 IR Inten    --     69.3703                58.1967                 0.3709

                     34                     35                     36
                      A                      A                      A
 Frequencies --   1376.5818              1409.2683              1442.2963
 Red. masses --      2.8758                 1.3746                 1.2543
 Frc consts  --      3.2109                 1.6085                 1.5373
 IR Inten    --     25.5691                 3.3703                 9.5988

                     37                     38                     39
                      A                      A                      A
 Frequencies --   1480.3740              1488.4404              1519.3090
 Red. masses --      1.7035                 2.7258                 1.0687
 Frc consts  --      2.1995                 3.5580                 1.4534
 IR Inten    --     95.5884                42.7846                 2.5104

                     40                     41                     42
                      A                      A                      A
 Frequencies --   1523.7211              1535.9571              1577.2352
 Red. masses --      1.0504                 1.1070                 3.1793
 Frc consts  --      1.4368                 1.5387                 4.6598
 IR Inten    --      4.5319                 5.0609               125.4680

                     43                     44                     45
                      A                      A                      A
 Frequencies --   1633.9445              1690.5636              1775.9520
 Red. masses --      2.3244                 2.4045                 8.4079
 Frc consts  --      3.6563                 4.0490                15.6243
 IR Inten    --     84.5292               271.7138               345.3764

                     46                     47                     48
                      A                      A                      A
 Frequencies --   3050.8655              3073.3753              3116.1054
 Red. masses --      1.0353                 1.0707                 1.1017
 Frc consts  --      5.6778                 5.9589                 6.3027
 IR Inten    --     16.8976                29.5029                14.7470

                     49                     50                     51
                      A                      A                      A
 Frequencies --   3127.2428              3152.0824              3265.7243
 Red. masses --      1.1008                 1.0979                 1.0961
 Frc consts  --      6.3428                 6.4270                 6.8875
 IR Inten    --     30.2292                20.3677                 1.4247

                     52                     53                     54
                      A                      A                      A
 Frequencies --   3518.3689              3543.0637              3658.0428
 Red. masses --      1.0740                 1.0475                 1.1007
 Frc consts  --      7.8328                 7.7473                 8.6778
 IR Inten    --     10.0475                41.6199                57.4741

 - Thermochemistry -
 -------------------
 Temperature   298.150 Kelvin.  Pressure   1.00000 Atm.
 Atom     1 has atomic number  6 and mass  12.00000

 Molecular mass:   155.06948 amu.
 Principal axes and moments of inertia in atomic units:
                           1         2         3
     Eigenvalues --  1067.497652134.536002552.57011
           X            0.99931   0.02324  -0.02912
           Y           -0.02204   0.99892   0.04093
           Z            0.03004  -0.04026   0.99874
 This molecule is an asymmetric top.
 Rotational symmetry number  1.
 Warning -- assumption of classical behavior for rotation
           may cause significant error
 Rotational temperatures (Kelvin)      0.08114     0.04058     0.03393
 Rotational constants (GHZ):           1.69063     0.84550     0.70703
 Zero-point vibrational energy     420870.4 (Joules/Mol)
                                  100.59044 (Kcal/Mol)
 Warning -- explicit consideration of  14 degrees of freedom as
           vibrations may cause significant error
 Vibrational temperatures:     63.89   125.79   136.11   211.07   243.60
          (Kelvin)            321.63   389.48   433.99   515.22   602.93
                              626.96   655.45   788.27   871.29   896.26
                              916.71  1009.67  1067.50  1105.63  1171.38
                             1223.00  1231.20  1321.41  1344.39  1362.00
                             1500.89  1555.03  1615.65  1667.96  1708.45
                             1755.86  1860.97  1936.92  1980.59  2027.62
                             2075.14  2129.93  2141.53  2185.95  2192.29
                             2209.90  2269.29  2350.88  2432.34  2555.20
                             4389.52  4421.90  4483.38  4499.40  4535.14
                             4698.65  5062.15  5097.68  5263.11

 Zero-point correction=                           0.160301 (Hartree/Particle)
 Thermal correction to Energy=                    0.170813
 Thermal correction to Enthalpy=                  0.171757
 Thermal correction to Gibbs Free Energy=         0.123655
 Sum of electronic and zero-point Energies=           -548.594883
 Sum of electronic and thermal Energies=              -548.584371
 Sum of electronic and thermal Enthalpies=            -548.583427
 Sum of electronic and thermal Free Energies=         -548.631529

                     E (Thermal)             CV                S
                      KCal/Mol        Cal/Mol-Kelvin    Cal/Mol-Kelvin
 Total                  107.187             38.734            101.238
 Electronic               0.000              0.000              0.000
 Translational            0.889              2.981             41.026
 Rotational               0.889              2.981             30.143
 Vibrational            105.409             32.772             30.070
 Vibration     1          0.595              1.980              5.052
 Vibration     2          0.601              1.958              3.717
 Vibration     3          0.603              1.953              3.563
 Vibration     4          0.617              1.906              2.715
 Vibration     5          0.625              1.880              2.443
 Vibration     6          0.649              1.805              1.930
 Vibration     7          0.674              1.727              1.592
 Vibration     8          0.694              1.671              1.408
 Vibration     9          0.733              1.559              1.130
 Vibration    10          0.782              1.429              0.895
 Vibration    11          0.796              1.392              0.840
 Vibration    12          0.814              1.349              0.779
 Vibration    13          0.903              1.144              0.549
 Vibration    14          0.964              1.020              0.440

                           ! Non-Optimized Parameters !
 Normal termination of Gaussian 16 at Tue Dec  8 21:38:21 2020.

 ----------------------------------------------------------------------
 # B3LYP/6-311++G(d,p) empiricaldispersion=gd3bj scf=xqc pop=npa geom=c
 heck
 ----------------------------------------------------------------------

 --------------------------------------
 CID_49756417_JID_1895_Energie_neutraal
 --------------------------------------
 Structure from the checkpoint file:  "JID_1895.chk"
 Charge =  0 Multiplicity = 1

 SCF Done:  E(RB3LYP) =  -548.920454833     A.U. after   15 cycles
 Normal termination of Gaussian 16 at Tue Dec  8 21:40:29 2020.

 ----------------------------------------------------------------------
 # B3LYP/6-311++G(d,p) empiricaldispersion=gd3bj scf=xqc pop=npa geom=c
 heck
 ----------------------------------------------------------------------

 ------------------------------------
 CID_49756417_JID_1895_Energie_kation
 ------------------------------------
 Structure from the checkpoint file:  "JID_1895.chk"
 Charge =  1 Multiplicity = 2

 SCF Done:  E(UB3LYP) =  -548.598449950     A.U. after   27 cycles
 Normal termination of Gaussian 16 at Tue Dec  8 21:44:12 2020.
 Gaussian 16:  ES64L-G16RevA.03 25-Dec-2016

 ----------------------------------------------------------------------
 # B3LYP/6-311++G(d,p) empiricaldispersion=gd3bj scf=xqc pop=npa geom=c
 heck
 ----------------------------------------------------------------------

 -----------------------------------
 CID_49756417_JID_1895_Energie_anion
 -----------------------------------
 Structure from the checkpoint file:  "JID_1895.chk"
 Charge = -1 Multiplicity = 2

                         Standard orientation:
 ---------------------------------------------------------------------
 Center     Atomic      Atomic             Coordinates (Angstroms)
 Number     Number       Type             X           Y           Z
 ---------------------------------------------------------------------
      1          6           0       -2.779403   -0.261300    1.411641
      2          6           0       -2.058697   -0.987167    0.275096
      3          7           0       -1.663361   -0.093783   -0.832073
      4          6           0       -0.706977    0.912381   -0.619682
      5          8           0       -0.916596    2.075501   -0.941277
      6          6           0        0.579148    0.467883   -0.077271
      7          6           0        1.222316   -0.749042   -0.220068
      8          8           0        2.454263   -0.690958    0.296465
      9          7           0        2.682049    0.632428    0.809210
     10          6           0        1.573189    1.272203    0.551070
     11          7           0        0.820123   -1.934758   -0.758003
     12          1           0       -2.126465    0.493200    1.863158
     13          1           0       -3.076932   -0.969204    2.193508
     14          1           0       -3.681572    0.244932    1.049466
     15          1           0       -1.167721   -1.491491    0.653332
     16          1           0       -2.701731   -1.763819   -0.153496
     17          1           0       -2.473166    0.338316   -1.273049
     18          1           0        1.485504    2.315655    0.826280
     19          1           0        1.561434   -2.549363   -1.070513
     20          1           0        0.030183   -1.851527   -1.388833
 ---------------------------------------------------------------------

 SCF Done:  E(UB3LYP) =  -548.913423564     A.U. after   32 cycles

 The electronic state is 2-A.
 Alpha  occ. eigenvalues --  -19.11086 -18.99655 -14.26422 -14.24160 -14.22884
 Alpha  occ. eigenvalues --  -10.19236 -10.18065 -10.11987 -10.10316 -10.08436
 Alpha  occ. eigenvalues --  -10.06694  -1.04755  -0.94404  -0.84589  -0.81698
 Alpha  occ. eigenvalues --   -0.77642  -0.69212  -0.65101  -0.56133  -0.53602
 Alpha  occ. eigenvalues --   -0.51730  -0.49058  -0.44152  -0.42203  -0.39294
 Alpha  occ. eigenvalues --   -0.38466  -0.37588  -0.35506  -0.33522  -0.32848
 Alpha  occ. eigenvalues --   -0.31436  -0.30256  -0.29322  -0.27661  -0.26191
 Alpha  occ. eigenvalues --   -0.24461  -0.22298  -0.20912  -0.18063  -0.15444
 Alpha  occ. eigenvalues --   -0.13626   0.04385
 Alpha virt. eigenvalues --    0.06934   0.07349   0.08305   0.08870   0.09155
 Alpha virt. eigenvalues --    0.10007   0.11420   0.11922   0.12465   0.13634
 Alpha virt. eigenvalues --    0.13875   0.14032   0.15337   0.16368   0.16758

  Beta  occ. eigenvalues --  -19.11075 -18.99644 -14.26400 -14.24057 -14.22873
  Beta  occ. eigenvalues --  -10.19232 -10.18052 -10.11981 -10.10270 -10.08430
  Beta  occ. eigenvalues --  -10.06667  -1.04732  -0.94381  -0.84473  -0.81659
  Beta  occ. eigenvalues --   -0.77598  -0.69156  -0.65043  -0.56086  -0.53514
  Beta  occ. eigenvalues --   -0.51680  -0.48962  -0.44079  -0.42120  -0.39245
  Beta  occ. eigenvalues --   -0.38403  -0.37551  -0.35459  -0.33487  -0.32803
  Beta  occ. eigenvalues --   -0.31399  -0.30231  -0.29271  -0.27598  -0.26130
  Beta  occ. eigenvalues --   -0.24395  -0.22262  -0.20877  -0.18043  -0.15417
  Beta  occ. eigenvalues --   -0.13562
  Beta virt. eigenvalues --    0.07257   0.07493   0.08194   0.08823   0.09180
  Beta virt. eigenvalues --    0.09611   0.10840   0.12035   0.12488   0.12836
  Beta virt. eigenvalues --    0.13931   0.14143   0.14608   0.15535   0.16420

 Mulliken charges and spin densities:
               1          2
     1  C    0.726055  -1.286656
     2  C    0.300983  -0.501118
     3  N   -0.288208   0.131617
     4  C   -0.364399  -0.032119
     5  O   -0.351581   0.017211
     6  C    1.196428  -0.723695
     7  C    0.002603  -0.240590
     8  O    0.088832  -0.010822
     9  N   -0.324393   0.018225
    10  C    0.269506  -0.261270
    11  N   -0.284589  -0.023592
    12  H    0.022268   0.125601
    13  H   -0.226620   0.380247
    14  H   -0.014617   0.149158
    15  H    0.148203   0.030608
    16  H   -1.180710   1.378077
    17  H    0.027529   0.275961
    18  H    0.197167   0.009368
    19  H   -0.639203   0.955962
    20  H   -0.305256   0.607827
 Sum of Mulliken charges =  -1.00000   1.00000

 Dipole moment (field-independent basis, Debye):
    X=              1.6771    Y=              5.9865    Z=              3.5853  Tot=              7.1767
 Quadrupole moment (field-independent basis, Debye-Ang):
   XX=           -118.1084   YY=           -114.4360   ZZ=            -94.6713
   XY=             -3.3603   XZ=             -1.8012   YZ=             -5.7129

 Summary of Natural Population Analysis:

                                       Natural Population
                Natural  -----------------------------------------------
    Atom  No    Charge         Core      Valence    Rydberg      Total
 -----------------------------------------------------------------------
      C    1   -0.29155      0.99966     2.28666    0.00522     3.29155
      C    2   -0.09411      0.99961     2.08281    0.01169     3.09411
      N    3   -0.33383      0.99971     2.82140    0.01273     3.83383
      C    4    0.33866      0.99962     1.63893    0.02279     2.66134
      O    5   -0.31539      0.99988     3.31009    0.00542     4.31539
      C    6   -0.17281      0.99939     2.16264    0.01077     3.17281
      C    7    0.29062      0.99948     1.69209    0.01780     2.70938
      O    8   -0.18011      0.99985     3.17174    0.00852     4.18011
      N    9   -0.09009      0.99971     2.57805    0.01233     3.59009
      C   10    0.02508      0.99962     1.96172    0.01359     2.97492
      N   11   -0.38763      0.99969     2.87774    0.01019     3.88763
      H   12    0.09699      0.00000     0.40204    0.00097     0.40301
      H   13    0.10249      0.00000     0.39660    0.00092     0.39751
      H   14    0.09749      0.00000     0.40146    0.00105     0.40251
      H   15    0.10036      0.00000     0.39729    0.00236     0.39964
      H   16    0.10238      0.00000     0.39119    0.00643     0.39762
      H   17    0.18875      0.00000     0.30872    0.00253     0.31125
      H   18    0.10775      0.00000     0.39131    0.00094     0.39225
      H   19    0.20427      0.00000     0.28401    0.01173     0.29573
      H   20    0.21068      0.00000     0.27780    0.01151     0.28932
 =======================================================================
   * Total *    0.00000     10.99623    29.83428    0.16949    41.00000

 Normal termination of Gaussian 16 at Tue Dec  8 21:50:08 2020.
