 Gaussian 16, Revision A.03,

 -----------------------------------------------------------
 # opt freq B3LYP/6-31G(d) empiricaldispersion=gd3bj scf=xqc
 -----------------------------------------------------------

 -------------------------------
 CID_105667181_JID_8428_neutraal
 -------------------------------
 Symbolic Z-matrix:
 Charge =  0 Multiplicity = 1

 SCF Done:  E(RB3LYP) =  -916.917392232     A.U. after   14 cycles
 SCF Done:  E(RB3LYP) =  -916.927445921     A.U. after   13 cycles
 SCF Done:  E(RB3LYP) =  -916.928551463     A.U. after   12 cycles
 SCF Done:  E(RB3LYP) =  -916.928792678     A.U. after   12 cycles
 SCF Done:  E(RB3LYP) =  -916.929355663     A.U. after   12 cycles
 SCF Done:  E(RB3LYP) =  -916.929784876     A.U. after   12 cycles
 SCF Done:  E(RB3LYP) =  -916.930155852     A.U. after   11 cycles
 SCF Done:  E(RB3LYP) =  -916.930358219     A.U. after   11 cycles
 SCF Done:  E(RB3LYP) =  -916.930579677     A.U. after   12 cycles
 SCF Done:  E(RB3LYP) =  -916.930635247     A.U. after   11 cycles
 SCF Done:  E(RB3LYP) =  -916.935315720     A.U. after    8 cycles
 SCF Done:  E(RB3LYP) =  -916.935316500     A.U. after    8 cycles
 SCF Done:  E(RB3LYP) =  -916.935316671     A.U. after    7 cycles
 SCF Done:  E(RB3LYP) =  -916.935316797     A.U. after    7 cycles
 SCF Done:  E(RB3LYP) =  -916.935316865     A.U. after    6 cycles
 Optimization completed.
    -- Stationary point found.
 Normal termination of Gaussian 16 at Fri Dec 11 21:11:47 2020.

 --------------------------------------------------------------------
 #N Geom=AllCheck Guess=TCheck SCRF=Check GenChk RB3LYP/6-31G(d) Freq
 --------------------------------------------------------------------

 Structure from the checkpoint file:  "JID_8428.chk"
 -------------------------------
 CID_105667181_JID_8428_neutraal
 -------------------------------
 Charge =  0 Multiplicity = 1

 SCF Done:  E(RB3LYP) =  -916.935316865     A.U. after    1 cycles

  Exact polarizability: 164.880  -4.724 124.361  -4.098  -3.199 126.987
 Approx polarizability: 205.491 -10.337 184.566 -14.685  -9.128 203.773

                      1                      2                      3
                      A                      A                      A
 Frequencies --     39.4454                52.1743                66.4084
 Red. masses --      4.4779                 5.6816                 4.4794
 Frc consts  --      0.0041                 0.0091                 0.0116
 IR Inten    --      1.0732                 0.5189                 2.9066

                      4                      5                      6
                      A                      A                      A
 Frequencies --     90.0370               101.9308               118.6985
 Red. masses --      4.6823                 7.4048                 5.8546
 Frc consts  --      0.0224                 0.0453                 0.0486
 IR Inten    --      4.3975                 4.0342                 1.5009

                      7                      8                      9
                      A                      A                      A
 Frequencies --    128.0537               135.1092               163.9588
 Red. masses --      4.0845                 2.5022                 2.2593
 Frc consts  --      0.0395                 0.0269                 0.0358
 IR Inten    --      4.9251                 5.4046                 3.0353

                     10                     11                     12
                      A                      A                      A
 Frequencies --    173.8867               182.9475               198.0458
 Red. masses --      3.5022                 1.1954                 2.7352
 Frc consts  --      0.0624                 0.0236                 0.0632
 IR Inten    --      1.2358                 2.4527                 0.2141

                     13                     14                     15
                      A                      A                      A
 Frequencies --    214.6201               230.6330               254.8258
 Red. masses --      1.3615                 1.0717                 3.3243
 Frc consts  --      0.0369                 0.0336                 0.1272
 IR Inten    --      1.6093                 0.0697                 3.3200

                     16                     17                     18
                      A                      A                      A
 Frequencies --    268.9513               284.9299               307.6829
 Red. masses --      2.8198                 3.6861                 2.7592
 Frc consts  --      0.1202                 0.1763                 0.1539
 IR Inten    --      3.8261                 4.9822                 0.3007

                     19                     20                     21
                      A                      A                      A
 Frequencies --    330.5495               374.9687               382.7788
 Red. masses --      3.3482                 2.8472                 3.8505
 Frc consts  --      0.2155                 0.2359                 0.3324
 IR Inten    --      0.9031                 6.8591                15.6930

                     22                     23                     24
                      A                      A                      A
 Frequencies --    389.6023               431.2325               464.5245
 Red. masses --      2.8243                 2.9196                 1.1961
 Frc consts  --      0.2526                 0.3199                 0.1521
 IR Inten    --     25.8152                13.7486               126.2443

                     25                     26                     27
                      A                      A                      A
 Frequencies --    482.4755               514.4638               524.0603
 Red. masses --      2.3367                 3.7691                 3.1148
 Frc consts  --      0.3205                 0.5878                 0.5040
 IR Inten    --     23.2578                 5.3608                 9.1879

                     28                     29                     30
                      A                      A                      A
 Frequencies --    536.4523               553.3522               577.4917
 Red. masses --      1.8304                 1.7563                 3.1482
 Frc consts  --      0.3103                 0.3169                 0.6186
 IR Inten    --    136.2995                18.6521                 8.2431

                     31                     32                     33
                      A                      A                      A
 Frequencies --    586.9678               612.7075               620.9825
 Red. masses --      1.7689                 2.6349                 2.3404
 Frc consts  --      0.3591                 0.5828                 0.5317
 IR Inten    --     38.4472                59.2564                54.1810

                     34                     35                     36
                      A                      A                      A
 Frequencies --    693.0743               732.4515               739.7273
 Red. masses --      3.7429                 3.2036                 4.0275
 Frc consts  --      1.0593                 1.0126                 1.2985
 IR Inten    --     13.2926                16.5965                24.5041

                     37                     38                     39
                      A                      A                      A
 Frequencies --    770.6922               793.2440               803.6138
 Red. masses --      4.8900                 3.5675                 3.6560
 Frc consts  --      1.7113                 1.3226                 1.3911
 IR Inten    --     61.5634                 2.0138                12.2540

                     40                     41                     42
                      A                      A                      A
 Frequencies --    815.2866               877.5970               890.1878
 Red. masses --      1.7484                 2.2801                 2.2678
 Frc consts  --      0.6847                 1.0347                 1.0588
 IR Inten    --      5.0310                 3.5028                11.5461

                     43                     44                     45
                      A                      A                      A
 Frequencies --    911.4189               920.2436               959.4627
 Red. masses --      2.0635                 2.0032                 2.1860
 Frc consts  --      1.0099                 0.9995                 1.1856
 IR Inten    --     18.9381                11.5216                11.8536

                     46                     47                     48
                      A                      A                      A
 Frequencies --    992.5228              1005.7546              1033.8255
 Red. masses --      2.2425                 1.8761                 2.7602
 Frc consts  --      1.3016                 1.1181                 1.7382
 IR Inten    --      9.7429                 7.7597                21.4027

                     49                     50                     51
                      A                      A                      A
 Frequencies --   1042.9683              1067.3231              1076.8085
 Red. masses --      1.8409                 1.8941                 1.5232
 Frc consts  --      1.1798                 1.2713                 1.0406
 IR Inten    --     21.5222                15.7448                10.8018

                     52                     53                     54
                      A                      A                      A
 Frequencies --   1138.4337              1142.6285              1153.8157
 Red. masses --      3.3595                 2.9630                 2.2675
 Frc consts  --      2.5653                 2.2793                 1.7786
 IR Inten    --    103.5327                84.1538                 5.6989

                     55                     56                     57
                      A                      A                      A
 Frequencies --   1168.5086              1180.0085              1192.7993
 Red. masses --      2.4157                 3.6424                 2.6333
 Frc consts  --      1.9433                 2.9882                 2.2074
 IR Inten    --     61.4607                33.3882               110.1032

                     58                     59                     60
                      A                      A                      A
 Frequencies --   1198.7982              1213.0122              1215.3694
 Red. masses --      2.5604                 2.0172                 1.9194
 Frc consts  --      2.1679                 1.7487                 1.6704
 IR Inten    --      5.6857                11.9289                17.8887

                     61                     62                     63
                      A                      A                      A
 Frequencies --   1233.3559              1253.0512              1285.4124
 Red. masses --      1.9902                 1.4370                 1.6138
 Frc consts  --      1.7837                 1.3293                 1.5710
 IR Inten    --     31.8901                10.9138                 9.5614

                     64                     65                     66
                      A                      A                      A
 Frequencies --   1306.7570              1335.8768              1354.1693
 Red. masses --      1.3623                 1.3736                 1.6962
 Frc consts  --      1.3707                 1.4443                 1.8326
 IR Inten    --     16.7727                20.5660               163.4529

                     67                     68                     69
                      A                      A                      A
 Frequencies --   1374.6889              1380.7676              1398.8318
 Red. masses --      1.7054                 1.3396                 1.4551
 Frc consts  --      1.8988                 1.5048                 1.6775
 IR Inten    --     54.8204                21.4277                55.1229

                     70                     71                     72
                      A                      A                      A
 Frequencies --   1405.7157              1417.8861              1435.0916
 Red. masses --      1.4242                 1.4146                 1.2662
 Frc consts  --      1.6581                 1.6756                 1.5364
 IR Inten    --     15.7898                 3.0071                 5.5935

                     73                     74                     75
                      A                      A                      A
 Frequencies --   1445.9887              1447.4376              1468.7562
 Red. masses --      1.2429                 1.3455                 1.6505
 Frc consts  --      1.5311                 1.6609                 2.0978
 IR Inten    --     14.8409                28.6307                 1.8402

                     76                     77                     78
                      A                      A                      A
 Frequencies --   1482.2004              1493.5943              1515.6352
 Red. masses --      1.3768                 1.1204                 1.0674
 Frc consts  --      1.7821                 1.4726                 1.4447
 IR Inten    --     38.6693                11.1994                 6.1936

                     79                     80                     81
                      A                      A                      A
 Frequencies --   1521.5290              1522.2301              1525.6347
 Red. masses --      1.0661                 1.0721                 1.0778
 Frc consts  --      1.4541                 1.4637                 1.4780
 IR Inten    --      1.0564                 6.9756                 5.4691

                     82                     83                     84
                      A                      A                      A
 Frequencies --   1527.8362              1530.7470              1535.0282
 Red. masses --      1.0851                 1.1265                 1.1007
 Frc consts  --      1.4924                 1.5553                 1.5282
 IR Inten    --     11.2649                14.2131                21.1272

                     85                     86                     87
                      A                      A                      A
 Frequencies --   1559.9978              1565.0630              1774.4561
 Red. masses --      1.1180                 1.6812                 6.4475
 Frc consts  --      1.6030                 2.4263                11.9611
 IR Inten    --     26.2830               240.5258               327.0090

                     88                     89                     90
                      A                      A                      A
 Frequencies --   1807.5652              2970.0932              3052.2753
 Red. masses --     10.0117                 1.0836                 1.0664
 Frc consts  --     19.2729                 5.6318                 5.8533
 IR Inten    --    310.1713                53.6609                57.2144

                     91                     92                     93
                      A                      A                      A
 Frequencies --   3063.7660              3067.4986              3069.2167
 Red. masses --      1.0388                 1.0348                 1.0361
 Frc consts  --      5.7452                 5.7369                 5.7503
 IR Inten    --     13.9398                11.7715                15.2005

                     94                     95                     96
                      A                      A                      A
 Frequencies --   3075.6552              3082.8529              3114.2134
 Red. masses --      1.0683                 1.0677                 1.1014
 Frc consts  --      5.9539                 5.9787                 6.2934
 IR Inten    --     29.8774                38.9864                24.8602

                     97                     98                     99
                      A                      A                      A
 Frequencies --   3132.4931              3137.5136              3139.8060
 Red. masses --      1.1010                 1.1019                 1.1035
 Frc consts  --      6.3655                 6.3909                 6.4097
 IR Inten    --     21.8711                27.7007                18.3937

                    100                    101                    102
                      A                      A                      A
 Frequencies --   3141.2874              3145.1363              3151.8687
 Red. masses --      1.1019                 1.1024                 1.1034
 Frc consts  --      6.4063                 6.4252                 6.4582
 IR Inten    --     12.3111                29.3318                10.9695

                    103                    104                    105
                      A                      A                      A
 Frequencies --   3164.9488              3173.6450              3594.0101
 Red. masses --      1.0942                 1.0978                 1.0748
 Frc consts  --      6.4577                 6.5147                 8.1794
 IR Inten    --      8.6801                 2.2250                36.2758

                    106                    107                    108
                      A                      A                      A
 Frequencies --   3640.1122              3647.5355              3696.6400
 Red. masses --      1.0750                 1.0651                 1.0642
 Frc consts  --      8.3925                 8.3490                 8.5683
 IR Inten    --     12.2992                62.0936                71.8337

 - Thermochemistry -
 -------------------
 Temperature   298.150 Kelvin.  Pressure   1.00000 Atm.
 Atom     1 has atomic number  6 and mass  12.00000

 Molecular mass:   260.13722 amu.
 Principal axes and moments of inertia in atomic units:
                           1         2         3
     Eigenvalues --  2231.528266837.779917010.71579
           X            1.00000   0.00111   0.00248
           Y           -0.00094   0.99765  -0.06845
           Z           -0.00255   0.06845   0.99765
 This molecule is an asymmetric top.
 Rotational symmetry number  1.
 Warning -- assumption of classical behavior for rotation
           may cause significant error
 Rotational temperatures (Kelvin)      0.03881     0.01267     0.01235
 Rotational constants (GHZ):           0.80875     0.26394     0.25743
 Zero-point vibrational energy     851085.6 (Joules/Mol)
                                  203.41434 (Kcal/Mol)
 Warning -- explicit consideration of  32 degrees of freedom as
           vibrations may cause significant error
 Vibrational temperatures:     56.75    75.07    95.55   129.54   146.66
          (Kelvin)            170.78   184.24   194.39   235.90   250.18
                              263.22   284.94   308.79   331.83   366.64
                              386.96   409.95   442.69   475.59   539.50
                              550.73   560.55   620.45   668.35   694.17
                              740.20   754.01   771.84   796.15   830.88
                              844.52   881.55   893.46   997.18  1053.83
                             1064.30  1108.85  1141.30  1156.22  1173.02
                             1262.67  1280.78  1311.33  1324.03  1380.45
                             1428.02  1447.06  1487.44  1500.60  1535.64
                             1549.29  1637.95  1643.99  1660.08  1681.22
                             1697.77  1716.17  1724.80  1745.25  1748.65
                             1774.52  1802.86  1849.42  1880.13  1922.03
                             1948.35  1977.87  1986.62  2012.61  2022.51
                             2040.02  2064.78  2080.46  2082.54  2113.21
                             2132.56  2148.95  2180.66  2189.14  2190.15
                             2195.05  2198.22  2202.40  2208.56  2244.49
                             2251.78  2553.05  2600.68  4273.30  4391.54
                             4408.08  4413.45  4415.92  4425.18  4435.54
                             4480.66  4506.96  4514.18  4517.48  4519.61
                             4525.15  4534.84  4553.66  4566.17  5170.98
                             5237.31  5247.99  5318.64

 Zero-point correction=                           0.324161 (Hartree/Particle)
 Thermal correction to Energy=                    0.343251
 Thermal correction to Enthalpy=                  0.344195
 Thermal correction to Gibbs Free Energy=         0.277758
 Sum of electronic and zero-point Energies=           -916.611155
 Sum of electronic and thermal Energies=              -916.592066
 Sum of electronic and thermal Enthalpies=            -916.591121
 Sum of electronic and thermal Free Energies=         -916.657559

                     E (Thermal)             CV                S
                      KCal/Mol        Cal/Mol-Kelvin    Cal/Mol-Kelvin
 Total                  215.393             72.568            139.829
 Electronic               0.000              0.000              0.000
 Translational            0.889              2.981             42.568
 Rotational               0.889              2.981             33.036
 Vibrational            213.616             66.607             64.225
 Vibration     1          0.594              1.981              5.287
 Vibration     2          0.596              1.977              4.733
 Vibration     3          0.598              1.970              4.257
 Vibration     4          0.602              1.956              3.659
 Vibration     5          0.604              1.948              3.417
 Vibration     6          0.609              1.934              3.121
 Vibration     7          0.611              1.925              2.975
 Vibration     8          0.613              1.918              2.872
 Vibration     9          0.623              1.887              2.504
 Vibration    10          0.627              1.875              2.393
 Vibration    11          0.630              1.863              2.298
 Vibration    12          0.637              1.843              2.151
 Vibration    13          0.645              1.819              2.004
 Vibration    14          0.652              1.794              1.874
 Vibration    15          0.665              1.755              1.697
 Vibration    16          0.673              1.730              1.603
 Vibration    17          0.683              1.702              1.504
 Vibration    18          0.698              1.659              1.375
 Vibration    19          0.713              1.614              1.257
 Vibration    20          0.746              1.523              1.059
 Vibration    21          0.752              1.507              1.028
 Vibration    22          0.758              1.492              1.002
 Vibration    23          0.792              1.402              0.855
 Vibration    24          0.822              1.329              0.753
 Vibration    25          0.839              1.289              0.703
 Vibration    26          0.870              1.218              0.623
 Vibration    27          0.879              1.197              0.601
 Vibration    28          0.891              1.169              0.573
 Vibration    29          0.909              1.132              0.537
 Vibration    30          0.934              1.080              0.490
 Vibration    31          0.944              1.060              0.473
 Vibration    32          0.972              1.005              0.428

 Optimization completed.
    -- Stationary point found.
 Normal termination of Gaussian 16 at Fri Dec 11 21:30:45 2020.

 ----------------------------------------------------------------------
 # B3LYP/6-311++G(d,p) empiricaldispersion=gd3bj scf=xqc pop=npa geom=c
 heck
 ----------------------------------------------------------------------

 ---------------------------------------
 CID_105667181_JID_8428_Energie_neutraal
 ---------------------------------------
 Structure from the checkpoint file:  "JID_8428.chk"
 Charge =  0 Multiplicity = 1

 SCF Done:  E(RB3LYP) =  -917.223314242     A.U. after   15 cycles
 Normal termination of Gaussian 16 at Fri Dec 11 21:39:17 2020.

 ----------------------------------------------------------------------
 # B3LYP/6-311++G(d,p) empiricaldispersion=gd3bj scf=xqc pop=npa geom=c
 heck
 ----------------------------------------------------------------------

 -------------------------------------
 CID_105667181_JID_8428_Energie_kation
 -------------------------------------
 Structure from the checkpoint file:  "JID_8428.chk"
 Charge =  1 Multiplicity = 2

 SCF Done:  E(UB3LYP) =  -916.908311926     A.U. after   28 cycles
 Normal termination of Gaussian 16 at Fri Dec 11 22:01:54 2020.
 Gaussian 16:  ES64L-G16RevA.03 25-Dec-2016

 ----------------------------------------------------------------------
 # B3LYP/6-311++G(d,p) empiricaldispersion=gd3bj scf=xqc pop=npa geom=c
 heck
 ----------------------------------------------------------------------

 ------------------------------------
 CID_105667181_JID_8428_Energie_anion
 ------------------------------------
 Structure from the checkpoint file:  "JID_8428.chk"
 Charge = -1 Multiplicity = 2

                         Standard orientation:
 ---------------------------------------------------------------------
 Center     Atomic      Atomic             Coordinates (Angstroms)
 Number     Number       Type             X           Y           Z
 ---------------------------------------------------------------------
      1          6           0       -4.262832   -0.225893   -1.011646
      2          6           0       -3.407835    0.206183    0.165770
      3          6           0       -2.067928   -0.534488    0.409313
      4          6           0       -1.446495    0.461056    1.419017
      5          6           0       -1.900136    1.825913    0.867044
      6          8           0       -3.018930    1.566984   -0.003146
      7          6           0       -2.291078   -1.951574    0.937555
      8          7           0       -1.341039   -0.525642   -0.868941
      9          6           0        0.003277   -0.741901   -1.095331
     10          8           0        0.536711   -0.351628   -2.133985
     11          7           0        0.700421   -1.464808   -0.142357
     12          6           0        2.147736   -1.471776   -0.194452
     13          6           0        2.782017   -0.235669    0.498615
     14          6           0        4.301233   -0.393399    0.601111
     15          6           0        2.402363    1.019953   -0.282728
     16          8           0        1.598247    1.831421    0.141047
     17          8           0        3.036690    1.133225   -1.452782
     18          8           0        2.216964   -0.124067    1.800154
     19          1           0       -5.141453    0.422025   -1.081385
     20          1           0       -4.604269   -1.257060   -0.875918
     21          1           0       -3.720875   -0.165028   -1.959174
     22          1           0       -3.999631    0.094568    1.090919
     23          1           0       -0.360859    0.387936    1.488485
     24          1           0       -1.863120    0.276485    2.415426
     25          1           0       -1.114275    2.303735    0.274993
     26          1           0       -2.204965    2.512747    1.665988
     27          1           0       -2.773154   -2.565370    0.170862
     28          1           0       -1.361488   -2.454515    1.216473
     29          1           0       -2.933099   -1.926569    1.824593
     30          1           0       -1.676674    0.166101   -1.528058
     31          1           0        0.329283   -1.477635    0.796105
     32          1           0        2.510479   -2.362201    0.329161
     33          1           0        2.455618   -1.521740   -1.238845
     34          1           0        4.752619   -0.529268   -0.385323
     35          1           0        4.746143    0.486546    1.075211
     36          1           0        4.526095   -1.265672    1.222129
     37          1           0        2.605419    1.855732   -1.946108
     38          1           0        1.793127    0.754419    1.827639
 ---------------------------------------------------------------------

 SCF Done:  E(UB3LYP) =  -917.210946462     A.U. after   33 cycles
 SCF Done:  E(UB3LYP) =  -917.210946462     a.u. after    1 cycles

 The electronic state is 2-A.
 Alpha  occ. eigenvalues --  -19.09286 -19.04309 -19.04069 -19.03383 -18.98773
 Alpha  occ. eigenvalues --  -14.24197 -14.23417 -10.22907 -10.20284 -10.16222
 Alpha  occ. eigenvalues --  -10.13600 -10.13545 -10.12208 -10.12188 -10.08264
 Alpha  occ. eigenvalues --  -10.08095 -10.07749 -10.07552  -1.03827  -0.96278
 Alpha  occ. eigenvalues --   -0.95765  -0.95085  -0.93607  -0.84173  -0.82136
 Alpha  occ. eigenvalues --   -0.70923  -0.70131  -0.68314  -0.62372  -0.61391
 Alpha  occ. eigenvalues --   -0.58791  -0.57502  -0.52466  -0.50635  -0.50162
 Alpha  occ. eigenvalues --   -0.49012  -0.46562  -0.44355  -0.42481  -0.41500
 Alpha  occ. eigenvalues --   -0.40617  -0.39390  -0.38140  -0.37339  -0.36375
 Alpha  occ. eigenvalues --   -0.35355  -0.35189  -0.34800  -0.33290  -0.32701
 Alpha  occ. eigenvalues --   -0.32304  -0.31791  -0.31123  -0.30537  -0.29854
 Alpha  occ. eigenvalues --   -0.29543  -0.29298  -0.28977  -0.27032  -0.27002
 Alpha  occ. eigenvalues --   -0.26516  -0.25436  -0.25018  -0.22788  -0.21312
 Alpha  occ. eigenvalues --   -0.20630  -0.18360  -0.17494  -0.16722  -0.15624
 Alpha  occ. eigenvalues --    0.04120
 Alpha virt. eigenvalues --    0.05577   0.06667   0.07019   0.07214   0.07798
 Alpha virt. eigenvalues --    0.08590   0.08827   0.09710   0.10250   0.10414
 Alpha virt. eigenvalues --    0.10659   0.11223   0.11564   0.12312   0.12522

  Beta  occ. eigenvalues --  -19.09249 -19.04287 -19.04054 -19.03380 -18.98768
  Beta  occ. eigenvalues --  -14.24189 -14.23407 -10.22895 -10.20283 -10.16217
  Beta  occ. eigenvalues --  -10.13583 -10.13544 -10.12198 -10.12176 -10.08228
  Beta  occ. eigenvalues --  -10.08074 -10.07731 -10.07515  -1.03776  -0.96246
  Beta  occ. eigenvalues --   -0.95750  -0.95075  -0.93574  -0.84159  -0.82121
  Beta  occ. eigenvalues --   -0.70895  -0.70101  -0.68287  -0.62325  -0.61351
  Beta  occ. eigenvalues --   -0.58721  -0.57455  -0.52428  -0.50584  -0.50129
  Beta  occ. eigenvalues --   -0.48979  -0.46521  -0.44323  -0.42452  -0.41462
  Beta  occ. eigenvalues --   -0.40573  -0.39347  -0.38112  -0.37310  -0.36338
  Beta  occ. eigenvalues --   -0.35322  -0.35154  -0.34765  -0.33263  -0.32677
  Beta  occ. eigenvalues --   -0.32274  -0.31757  -0.31087  -0.30503  -0.29824
  Beta  occ. eigenvalues --   -0.29513  -0.29267  -0.28946  -0.27001  -0.26966
  Beta  occ. eigenvalues --   -0.26486  -0.25405  -0.24945  -0.22768  -0.21275
  Beta  occ. eigenvalues --   -0.20609  -0.18352  -0.17474  -0.16710  -0.15607
  Beta virt. eigenvalues --    0.06169   0.06606   0.07071   0.07410   0.07794
  Beta virt. eigenvalues --    0.08278   0.09046   0.09289   0.09991   0.10530
  Beta virt. eigenvalues --    0.10789   0.10856   0.11448   0.11852   0.12631

 Mulliken charges and spin densities:
               1          2
     1  C    0.648883  -1.189552
     2  C   -1.408496   0.825331
     3  C   -0.948277   0.862168
     4  C    0.311326  -0.202092
     5  C   -0.202372  -0.216540
     6  O   -0.074784   0.019776
     7  C    2.118471  -2.492048
     8  N    0.134034  -0.038766
     9  C   -0.221607   0.065709
    10  O   -0.320566   0.006659
    11  N   -0.060452   0.091838
    12  C    0.156013  -1.082733
    13  C   -1.510950   1.910216
    14  C    1.358026  -1.863261
    15  C    0.564810  -0.766085
    16  O   -0.256179   0.056078
    17  O   -0.128492   0.049033
    18  O   -0.111926   0.006263
    19  H   -0.031105   0.197202
    20  H   -0.072153   0.224315
    21  H   -0.032366   0.151396
    22  H   -0.378449   0.574180
    23  H   -0.119148   0.122655
    24  H   -0.447226   0.689436
    25  H    0.124098   0.093726
    26  H   -0.052993   0.206950
    27  H   -0.018760   0.176479
    28  H   -0.074082   0.196261
    29  H   -0.395240   0.569360
    30  H    0.392448  -0.050770
    31  H    0.239015   0.090767
    32  H   -0.101851   0.289497
    33  H    0.207124   0.030641
    34  H   -0.083151   0.250490
    35  H   -0.206429   0.388558
    36  H   -0.178323   0.340363
    37  H   -0.011799   0.334851
    38  H    0.192928   0.081650
 Sum of Mulliken charges =  -1.00000   1.00000

 Dipole moment (field-independent basis, Debye):
    X=              1.2946    Y=              0.9740    Z=             -2.4052  Tot=              2.8999
 Quadrupole moment (field-independent basis, Debye-Ang):
   XX=           -195.9541   YY=           -146.2456   ZZ=           -156.8469
   XY=             -3.0489   XZ=              9.3845   YZ=              4.1628

 Summary of Natural Population Analysis:

                                       Natural Population
                Natural  -----------------------------------------------
    Atom  No    Charge         Core      Valence    Rydberg      Total
 -----------------------------------------------------------------------
      C    1   -0.29274      0.99963     2.28622    0.00689     3.29274
      C    2    0.06696      0.99951     1.91689    0.01664     2.93304
      C    3    0.05075      0.99953     1.93440    0.01533     2.94925
      C    4   -0.21407      0.99958     2.20536    0.00914     3.21407
      C    5   -0.01142      0.99959     2.00081    0.01103     3.01142
      O    6   -0.30770      0.99989     3.30003    0.00778     4.30770
      C    7   -0.28779      0.99960     2.28086    0.00733     3.28779
      N    8   -0.33714      0.99964     2.82669    0.01081     3.83714
      C    9    0.41039      0.99969     1.56784    0.02209     2.58961
      O   10   -0.34633      0.99988     3.34123    0.00522     4.34633
      N   11   -0.33420      0.99967     2.82541    0.00912     3.83420
      C   12   -0.09325      0.99956     2.08051    0.01317     3.09325
      C   13    0.08166      0.99950     1.90285    0.01599     2.91834
      C   14   -0.29121      0.99962     2.28406    0.00752     3.29121
      C   15    0.40801      0.99963     1.56528    0.02707     2.59199
      O   16   -0.31646      0.99986     3.31016    0.00643     4.31646
      O   17   -0.33126      0.99986     3.32411    0.00729     4.33126
      O   18   -0.37975      0.99989     3.37318    0.00668     4.37975
      H   19    0.10581      0.00000     0.39327    0.00092     0.39419
      H   20    0.10481      0.00000     0.39437    0.00083     0.39519
      H   21    0.09964      0.00000     0.39925    0.00111     0.40036
      H   22    0.08721      0.00000     0.41038    0.00240     0.41279
      H   23    0.10837      0.00000     0.38966    0.00197     0.39163
      H   24    0.10517      0.00000     0.39285    0.00198     0.39483
      H   25    0.09426      0.00000     0.40414    0.00161     0.40574
      H   26    0.08488      0.00000     0.41401    0.00111     0.41512
      H   27    0.10552      0.00000     0.39336    0.00112     0.39448
      H   28    0.10096      0.00000     0.39776    0.00128     0.39904
      H   29    0.10761      0.00000     0.39040    0.00199     0.39239
      H   30    0.19814      0.00000     0.29889    0.00297     0.30186
      H   31    0.19671      0.00000     0.29975    0.00354     0.30329
      H   32    0.10064      0.00000     0.39841    0.00095     0.39936
      H   33    0.11767      0.00000     0.38110    0.00123     0.38233
      H   34    0.10821      0.00000     0.39048    0.00132     0.39179
      H   35    0.10641      0.00000     0.39228    0.00131     0.39359
      H   36    0.10559      0.00000     0.39315    0.00126     0.39441
      H   37    0.24624      0.00000     0.24940    0.00436     0.25376
      H   38    0.24172      0.00000     0.25446    0.00383     0.25828
 =======================================================================
   * Total *   -0.00000     17.99416    51.76321    0.24263    70.00000

 Normal termination of Gaussian 16 at Fri Dec 11 22:29:26 2020.
