 Gaussian 16, Revision A.03,

 -----------------------------------------------------------
 # opt freq B3LYP/6-31G(d) empiricaldispersion=gd3bj scf=xqc
 -----------------------------------------------------------

 -------------------------------
 CID_131544903_JID_6868_neutraal
 -------------------------------
 Symbolic Z-matrix:
 Charge =  0 Multiplicity = 1

 SCF Done:  E(RB3LYP) =  -788.626257945     A.U. after   15 cycles
 SCF Done:  E(RB3LYP) =  -788.632487559     A.U. after   13 cycles
 SCF Done:  E(RB3LYP) =  -788.633125633     A.U. after   13 cycles
 SCF Done:  E(RB3LYP) =  -788.633147369     A.U. after   12 cycles
 SCF Done:  E(RB3LYP) =  -788.633565568     A.U. after   12 cycles
 SCF Done:  E(RB3LYP) =  -788.633586735     A.U. after   11 cycles
 SCF Done:  E(RB3LYP) =  -788.633634340     A.U. after   10 cycles
 SCF Done:  E(RB3LYP) =  -788.633644417     A.U. after   10 cycles
 SCF Done:  E(RB3LYP) =  -788.633648337     A.U. after   10 cycles
 SCF Done:  E(RB3LYP) =  -788.633649395     A.U. after    9 cycles
 SCF Done:  E(RB3LYP) =  -788.633650705     A.U. after    9 cycles
 SCF Done:  E(RB3LYP) =  -788.633651213     A.U. after    9 cycles
 SCF Done:  E(RB3LYP) =  -788.633651543     A.U. after    8 cycles
 SCF Done:  E(RB3LYP) =  -788.633651702     A.U. after    8 cycles
 SCF Done:  E(RB3LYP) =  -788.633651756     A.U. after    7 cycles
 Optimization completed.
    -- Stationary point found.
 Normal termination of Gaussian 16 at Fri Dec 11 00:54:51 2020.

 --------------------------------------------------------------------
 #N Geom=AllCheck Guess=TCheck SCRF=Check GenChk RB3LYP/6-31G(d) Freq
 --------------------------------------------------------------------

 Structure from the checkpoint file:  "JID_6868.chk"
 -------------------------------
 CID_131544903_JID_6868_neutraal
 -------------------------------
 Charge =  0 Multiplicity = 1

 SCF Done:  E(RB3LYP) =  -788.633651756     A.U. after    1 cycles

  Exact polarizability: 169.683  -7.019 123.077  -8.072  -3.800  70.599
 Approx polarizability: 235.360  -1.142 207.541 -19.679 -13.488 116.434

                      1                      2                      3
                      A                      A                      A
 Frequencies --     25.5676                47.9580                67.3939
 Red. masses --      6.4730                 6.6659                 4.9481
 Frc consts  --      0.0025                 0.0090                 0.0132
 IR Inten    --      0.2311                 1.0126                 1.3166

                      4                      5                      6
                      A                      A                      A
 Frequencies --    107.5067               135.7985               168.0582
 Red. masses --      6.0305                 2.6980                 4.0796
 Frc consts  --      0.0411                 0.0293                 0.0679
 IR Inten    --      2.5018                 0.8416                 3.8388

                      7                      8                      9
                      A                      A                      A
 Frequencies --    177.0838               213.1049               249.7901
 Red. masses --      4.8719                 4.5425                 3.5627
 Frc consts  --      0.0900                 0.1215                 0.1310
 IR Inten    --      2.3331                 0.2497                 0.1463

                     10                     11                     12
                      A                      A                      A
 Frequencies --    303.9562               333.9197               387.3570
 Red. masses --      7.6030                 7.4267                 8.3882
 Frc consts  --      0.4139                 0.4879                 0.7416
 IR Inten    --      0.9606                 0.6659                 1.6421

                     13                     14                     15
                      A                      A                      A
 Frequencies --    441.7238               492.5124               544.0226
 Red. masses --      7.3676                 7.4929                 1.9261
 Frc consts  --      0.8470                 1.0709                 0.3359
 IR Inten    --      5.4735                 1.6211                55.3898

                     16                     17                     18
                      A                      A                      A
 Frequencies --    585.3624               607.0980               621.3703
 Red. masses --      1.3002                 5.9106                 3.0046
 Frc consts  --      0.2625                 1.2835                 0.6835
 IR Inten    --     46.2411                 7.6903                 8.3234

                     19                     20                     21
                      A                      A                      A
 Frequencies --    667.4326               712.0433               718.3748
 Red. masses --      5.0265                 3.9057                 3.1634
 Frc consts  --      1.3193                 1.1667                 0.9619
 IR Inten    --      4.4801                55.1166                67.8080

                     22                     23                     24
                      A                      A                      A
 Frequencies --    725.9486               744.1068               771.7295
 Red. masses --      3.6988                 6.6435                 3.0174
 Frc consts  --      1.1485                 2.1673                 1.0588
 IR Inten    --     20.5863                 5.5890                 4.3583

                     25                     26                     27
                      A                      A                      A
 Frequencies --    778.1738               817.7048               863.8754
 Red. masses --      4.1108                11.6679                 3.2231
 Frc consts  --      1.4667                 4.5966                 1.4172
 IR Inten    --     18.4257                 8.9047                 1.2349

                     28                     29                     30
                      A                      A                      A
 Frequencies --    913.3178               922.4847              1001.4528
 Red. masses --      1.5342                 2.0084                 9.7385
 Frc consts  --      0.7540                 1.0070                 5.7544
 IR Inten    --      0.8935                 0.9834                 4.8735

                     31                     32                     33
                      A                      A                      A
 Frequencies --   1009.2129              1013.7477              1105.7507
 Red. masses --     12.2785                 2.4118                 1.6911
 Frc consts  --      7.3682                 1.4604                 1.2183
 IR Inten    --     16.4788                 1.3297                 2.3574

                     34                     35                     36
                      A                      A                      A
 Frequencies --   1114.1734              1157.6463              1176.6852
 Red. masses --      7.3701                 3.1304                 2.8569
 Frc consts  --      5.3905                 2.4718                 2.3306
 IR Inten    --     74.4275                 6.6353               195.7531

                     37                     38                     39
                      A                      A                      A
 Frequencies --   1196.2420              1202.3850              1236.8432
 Red. masses --      5.6416                 1.3871                 1.4906
 Frc consts  --      4.7565                 1.1815                 1.3435
 IR Inten    --     45.5326                 1.8120                11.0157

                     40                     41                     42
                      A                      A                      A
 Frequencies --   1239.2973              1253.7467              1301.7443
 Red. masses --      1.4926                 2.4732                 3.1151
 Frc consts  --      1.3506                 2.2905                 3.1101
 IR Inten    --      4.2778                31.9513                16.2831

                     43                     44                     45
                      A                      A                      A
 Frequencies --   1317.2150              1324.1570              1343.1279
 Red. masses --      1.6467                 1.8945                 2.1550
 Frc consts  --      1.6834                 1.9571                 2.2905
 IR Inten    --      0.9889                16.9778                 6.7088

                     46                     47                     48
                      A                      A                      A
 Frequencies --   1362.7355              1368.6019              1380.4260
 Red. masses --      2.7201                 3.5256                 5.1255
 Frc consts  --      2.9761                 3.8908                 5.7546
 IR Inten    --     13.9421                44.4225                25.6386

                     49                     50                     51
                      A                      A                      A
 Frequencies --   1414.2632              1478.3289              1493.6864
 Red. masses --      4.2540                 2.2871                 2.8120
 Frc consts  --      5.0131                 2.9449                 3.6965
 IR Inten    --      5.6954                34.3854                32.3692

                     52                     53                     54
                      A                      A                      A
 Frequencies --   1518.7100              1528.2126              1548.0126
 Red. masses --      1.2095                 1.1354                 4.0484
 Frc consts  --      1.6436                 1.5624                 5.7159
 IR Inten    --      1.1533                 3.7720                22.6462

                     55                     56                     57
                      A                      A                      A
 Frequencies --   1555.9418              1579.0959              1613.8895
 Red. masses --      1.1606                 9.3807                11.5826
 Frc consts  --      1.6554                13.7817                17.7748
 IR Inten    --      5.8710                55.4300                 0.4647

                     58                     59                     60
                      A                      A                      A
 Frequencies --   1844.9450              3064.0875              3069.9036
 Red. masses --     10.2108                 1.0685                 1.0656
 Frc consts  --     20.4774                 5.9104                 5.9168
 IR Inten    --    367.1880                18.6430                41.1955

                     61                     62                     63
                      A                      A                      A
 Frequencies --   3091.5613              3123.5875              3131.2325
 Red. masses --      1.0651                 1.0953                 1.0999
 Frc consts  --      5.9977                 6.2966                 6.3538
 IR Inten    --     18.4436                13.0054                15.8902

                     64                     65                     66
                      A                      A                      A
 Frequencies --   3147.7249              3660.7931              3695.0277
 Red. masses --      1.1058                 1.0825                 1.0639
 Frc consts  --      6.4555                 8.5473                 8.5580
 IR Inten    --     25.4146               133.1997                60.3493

 - Thermochemistry -
 -------------------
 Temperature   298.150 Kelvin.  Pressure   1.00000 Atm.
 Atom     1 has atomic number  6 and mass  12.00000

 Molecular mass:   220.07087 amu.
 Principal axes and moments of inertia in atomic units:
                           1         2         3
     Eigenvalues --  1575.375935446.894386682.80114
           X            0.99995  -0.00989   0.00113
           Y            0.00989   0.99995  -0.00071
           Z           -0.00112   0.00073   1.00000
 This molecule is an asymmetric top.
 Rotational symmetry number  1.
 Warning -- assumption of classical behavior for rotation
           may cause significant error
 Rotational temperatures (Kelvin)      0.05498     0.01590     0.01296
 Rotational constants (GHZ):           1.14559     0.33133     0.27006
 Zero-point vibrational energy     471382.3 (Joules/Mol)
                                  112.66308 (Kcal/Mol)
 Warning -- explicit consideration of  17 degrees of freedom as
           vibrations may cause significant error
 Vibrational temperatures:     36.79    69.00    96.96   154.68   195.38
          (Kelvin)            241.80   254.78   306.61   359.39   437.33
                              480.44   557.32   635.54   708.62   782.73
                              842.21   873.48   894.01   960.29  1024.47
                             1033.58  1044.48  1070.60  1110.35  1119.62
                             1176.49  1242.92  1314.06  1327.25  1440.87
                             1452.03  1458.56  1590.93  1603.05  1665.59
                             1692.99  1721.13  1729.96  1779.54  1783.07
                             1803.86  1872.92  1895.18  1905.17  1932.46
                             1960.67  1969.11  1986.13  2034.81  2126.99
                             2149.08  2185.08  2198.76  2227.24  2238.65
                             2271.97  2322.03  2654.46  4408.54  4416.91
                             4448.07  4494.15  4505.15  4528.87  5267.06
                             5316.32

 Zero-point correction=                           0.179540 (Hartree/Particle)
 Thermal correction to Energy=                    0.192132
 Thermal correction to Enthalpy=                  0.193076
 Thermal correction to Gibbs Free Energy=         0.138438
 Sum of electronic and zero-point Energies=           -788.454112
 Sum of electronic and thermal Energies=              -788.441520
 Sum of electronic and thermal Enthalpies=            -788.440576
 Sum of electronic and thermal Free Energies=         -788.495214

                     E (Thermal)             CV                S
                      KCal/Mol        Cal/Mol-Kelvin    Cal/Mol-Kelvin
 Total                  120.564             46.862            114.995
 Electronic               0.000              0.000              0.000
 Translational            0.889              2.981             42.069
 Rotational               0.889              2.981             32.417
 Vibrational            118.787             40.900             40.509
 Vibration     1          0.593              1.985              6.147
 Vibration     2          0.595              1.978              4.900
 Vibration     3          0.598              1.970              4.228
 Vibration     4          0.606              1.943              3.313
 Vibration     5          0.614              1.918              2.862
 Vibration     6          0.625              1.882              2.457
 Vibration     7          0.628              1.871              2.359
 Vibration     8          0.644              1.821              2.017
 Vibration     9          0.663              1.763              1.732
 Vibration    10          0.695              1.666              1.395
 Vibration    11          0.715              1.608              1.241
 Vibration    12          0.756              1.497              1.010
 Vibration    13          0.801              1.379              0.821
 Vibration    14          0.848              1.267              0.677
 Vibration    15          0.899              1.153              0.557
 Vibration    16          0.942              1.063              0.476
 Vibration    17          0.966              1.017              0.438

 Optimization completed.
    -- Stationary point found.
 Normal termination of Gaussian 16 at Fri Dec 11 01:01:29 2020.

 ----------------------------------------------------------------------
 # B3LYP/6-311++G(d,p) empiricaldispersion=gd3bj scf=xqc pop=npa geom=c
 heck
 ----------------------------------------------------------------------

 ---------------------------------------
 CID_131544903_JID_6868_Energie_neutraal
 ---------------------------------------
 Structure from the checkpoint file:  "JID_6868.chk"
 Charge =  0 Multiplicity = 1

 SCF Done:  E(RB3LYP) =  -788.854184464     A.U. after   15 cycles
 Normal termination of Gaussian 16 at Fri Dec 11 01:04:18 2020.

 ----------------------------------------------------------------------
 # B3LYP/6-311++G(d,p) empiricaldispersion=gd3bj scf=xqc pop=npa geom=c
 heck
 ----------------------------------------------------------------------

 -------------------------------------
 CID_131544903_JID_6868_Energie_kation
 -------------------------------------
 Structure from the checkpoint file:  "JID_6868.chk"
 Charge =  1 Multiplicity = 2

 SCF Done:  E(UB3LYP) =  -788.534929313     A.U. after   24 cycles
 Normal termination of Gaussian 16 at Fri Dec 11 01:10:43 2020.
 Gaussian 16:  ES64L-G16RevA.03 25-Dec-2016

 ----------------------------------------------------------------------
 # B3LYP/6-311++G(d,p) empiricaldispersion=gd3bj scf=xqc pop=npa geom=c
 heck
 ----------------------------------------------------------------------

 ------------------------------------
 CID_131544903_JID_6868_Energie_anion
 ------------------------------------
 Structure from the checkpoint file:  "JID_6868.chk"
 Charge = -1 Multiplicity = 2

                         Standard orientation:
 ---------------------------------------------------------------------
 Center     Atomic      Atomic             Coordinates (Angstroms)
 Number     Number       Type             X           Y           Z
 ---------------------------------------------------------------------
      1          6           0       -4.376676    0.251551   -0.241498
      2          6           0       -3.284988    1.311240   -0.598680
      3          6           0       -2.024225    0.535306   -0.383364
      4          7           0       -0.725887    0.650360   -0.596008
      5          6           0       -0.240026   -0.500270   -0.020504
      6          7           0       -1.160016   -1.303435    0.529130
      7          7           0       -2.288041   -0.614827    0.268289
      8          6           0       -3.677037   -0.827362    0.635760
      9          6           0        1.177990   -0.846179   -0.048039
     10          7           0        1.594555   -2.111089   -0.196391
     11          7           0        2.919300   -1.988337   -0.229911
     12          7           0        3.417993   -0.767915   -0.134951
     13          6           0        2.322929   -0.006255   -0.007977
     14          6           0        2.468518    1.457522    0.166414
     15          8           0        3.362990    2.125447   -0.300669
     16          8           0        1.490243    1.964902    0.949702
     17          1           0       -4.741219   -0.216254   -1.160550
     18          1           0       -5.234300    0.693480    0.270118
     19          1           0       -3.386475    1.687259   -1.619971
     20          1           0       -3.321610    2.176586    0.074329
     21          1           0       -3.812002   -0.656997    1.709919
     22          1           0       -3.992274   -1.846633    0.401420
     23          1           0        3.518788   -2.795460   -0.328504
     24          1           0        1.638986    2.928614    0.967191
 ---------------------------------------------------------------------

 SCF Done:  E(UB3LYP) =  -788.852085908     A.U. after   33 cycles
 SCF Done:  E(UB3LYP) =  -788.852085908     a.u. after    1 cycles

 The electronic state is 2-A.
 Alpha  occ. eigenvalues --  -19.05164 -18.98836 -14.31744 -14.29040 -14.24826
 Alpha  occ. eigenvalues --  -14.23679 -14.23466 -14.20042 -10.17992 -10.13540
 Alpha  occ. eigenvalues --  -10.12673 -10.12589 -10.11042 -10.09714 -10.09512
 Alpha  occ. eigenvalues --  -10.09056  -1.00763  -0.99077  -0.98182  -0.90048
 Alpha  occ. eigenvalues --   -0.81183  -0.79513  -0.77576  -0.73419  -0.66131
 Alpha  occ. eigenvalues --   -0.63884  -0.58717  -0.57050  -0.52231  -0.49426
 Alpha  occ. eigenvalues --   -0.48493  -0.46352  -0.44638  -0.41676  -0.39433
 Alpha  occ. eigenvalues --   -0.38150  -0.37311  -0.36651  -0.35573  -0.34533
 Alpha  occ. eigenvalues --   -0.33885  -0.33293  -0.32849  -0.29100  -0.27981
 Alpha  occ. eigenvalues --   -0.27651  -0.26013  -0.23649  -0.22254  -0.21397
 Alpha  occ. eigenvalues --   -0.20654  -0.19906  -0.18742  -0.18102  -0.17961
 Alpha  occ. eigenvalues --   -0.16363  -0.13847   0.04041
 Alpha virt. eigenvalues --    0.05522   0.07408   0.07538   0.07942   0.08213
 Alpha virt. eigenvalues --    0.08780   0.09832   0.10489   0.11440   0.12562
 Alpha virt. eigenvalues --    0.13374   0.14499   0.14539   0.15078   0.15484

  Beta  occ. eigenvalues --  -19.05115 -18.98679 -14.31648 -14.29040 -14.24875
  Beta  occ. eigenvalues --  -14.23448 -14.23331 -14.20035 -10.17812 -10.13542
  Beta  occ. eigenvalues --  -10.12664 -10.12563 -10.11026 -10.09658 -10.09486
  Beta  occ. eigenvalues --  -10.09007  -1.00550  -0.98880  -0.98163  -0.89813
  Beta  occ. eigenvalues --   -0.81139  -0.79270  -0.77528  -0.73236  -0.66072
  Beta  occ. eigenvalues --   -0.63832  -0.58304  -0.56971  -0.52148  -0.49348
  Beta  occ. eigenvalues --   -0.48369  -0.46296  -0.44511  -0.41633  -0.39376
  Beta  occ. eigenvalues --   -0.37657  -0.37075  -0.36375  -0.35505  -0.34459
  Beta  occ. eigenvalues --   -0.33830  -0.33222  -0.32166  -0.28933  -0.27904
  Beta  occ. eigenvalues --   -0.27579  -0.25934  -0.23502  -0.22189  -0.20872
  Beta  occ. eigenvalues --   -0.20174  -0.19638  -0.18278  -0.18030  -0.17691
  Beta  occ. eigenvalues --   -0.16083  -0.13639
  Beta virt. eigenvalues --    0.06780   0.07543   0.07742   0.08224   0.08504
  Beta virt. eigenvalues --    0.08795   0.09450   0.10255   0.10794   0.11840
  Beta virt. eigenvalues --    0.12857   0.13510   0.14561   0.14749   0.15356

 Mulliken charges and spin densities:
               1          2
     1  C    0.916962  -1.220082
     2  C   -0.857452   0.208222
     3  C    0.796612  -0.422663
     4  N   -0.050646   0.056854
     5  C   -0.036705  -0.067238
     6  N   -0.106631   0.257119
     7  N    0.000923  -0.004068
     8  C    0.213267  -0.577862
     9  C   -0.183340   0.038747
    10  N   -0.147225  -0.024219
    11  N    0.045657   0.029810
    12  N   -0.172932   0.154023
    13  C   -0.179504  -0.075035
    14  C    0.088889   0.109850
    15  O   -0.337247   0.052170
    16  O   -0.166083  -0.001801
    17  H   -0.138902   0.304211
    18  H   -0.815786   0.994447
    19  H   -0.072149   0.248535
    20  H   -0.110594   0.295169
    21  H   -0.116233   0.307687
    22  H   -0.119885   0.301019
    23  H    0.309871  -0.001734
    24  H    0.239133   0.036841
 Sum of Mulliken charges =  -1.00000   1.00000

 Dipole moment (field-independent basis, Debye):
    X=              4.0572    Y=             -2.6091    Z=             -0.1775  Tot=              4.8270
 Quadrupole moment (field-independent basis, Debye-Ang):
   XX=           -182.1113   YY=           -112.4777   ZZ=           -110.3793
   XY=             -7.5587   XZ=              8.4025   YZ=              3.7062

 Summary of Natural Population Analysis:

                                       Natural Population
                Natural  -----------------------------------------------
    Atom  No    Charge         Core      Valence    Rydberg      Total
 -----------------------------------------------------------------------
      C    1   -0.18897      0.99965     2.18125    0.00807     3.18897
      C    2   -0.20813      0.99961     2.19988    0.00864     3.20813
      C    3    0.20094      0.99958     1.78263    0.01685     2.79906
      N    4   -0.25200      0.99967     2.74379    0.00854     3.75200
      C    5    0.15736      0.99961     1.82488    0.01814     2.84264
      N    6   -0.14588      0.99970     2.63477    0.01141     3.64588
      N    7   -0.11425      0.99957     2.60197    0.01270     3.61425
      C    8   -0.07762      0.99963     2.06738    0.01060     3.07762
      C    9    0.05031      0.99951     1.93538    0.01480     2.94969
      N   10   -0.14158      0.99972     2.63054    0.01132     3.64158
      N   11   -0.06387      0.99975     2.54793    0.01619     3.56387
      N   12   -0.07052      0.99971     2.55834    0.01246     3.57052
      C   13    0.01493      0.99950     1.97145    0.01412     2.98507
      C   14    0.41210      0.99968     1.56335    0.02487     2.58790
      O   15   -0.29458      0.99987     3.28870    0.00600     4.29458
      O   16   -0.33715      0.99988     3.33049    0.00678     4.33715
      H   17    0.10033      0.00000     0.39800    0.00167     0.39967
      H   18    0.11010      0.00000     0.38323    0.00667     0.38990
      H   19    0.11052      0.00000     0.38830    0.00119     0.38948
      H   20    0.11063      0.00000     0.38782    0.00155     0.38937
      H   21    0.09972      0.00000     0.39865    0.00163     0.40028
      H   22    0.10219      0.00000     0.39649    0.00131     0.39781
      H   23    0.19239      0.00000     0.30629    0.00131     0.30761
      H   24    0.23301      0.00000     0.26258    0.00440     0.26699
 =======================================================================
   * Total *   -0.00000     15.99465    40.78410    0.22125    57.00000

 Normal termination of Gaussian 16 at Fri Dec 11 01:19:26 2020.
