 Gaussian 16, Revision A.03,

 -----------------------------------------------------------
 # opt freq B3LYP/6-31G(d) empiricaldispersion=gd3bj scf=xqc
 -----------------------------------------------------------

 ------------------------------
 CID_130124735_JID_914_neutraal
 ------------------------------
 Symbolic Z-matrix:
 Charge =  0 Multiplicity = 1

 SCF Done:  E(RB3LYP) =  -860.900466388     A.U. after   14 cycles
 SCF Done:  E(RB3LYP) =  -860.905602606     A.U. after   12 cycles
 SCF Done:  E(RB3LYP) =  -860.906441631     A.U. after   12 cycles
 SCF Done:  E(RB3LYP) =  -860.906460414     A.U. after   12 cycles
 SCF Done:  E(RB3LYP) =  -860.906521518     A.U. after   11 cycles
 SCF Done:  E(RB3LYP) =  -860.906684230     A.U. after   11 cycles
 SCF Done:  E(RB3LYP) =  -860.906698783     A.U. after   10 cycles
 SCF Done:  E(RB3LYP) =  -860.906700670     A.U. after    9 cycles
 SCF Done:  E(RB3LYP) =  -860.906701052     A.U. after    8 cycles
 Optimization completed.
    -- Stationary point found.
 Normal termination of Gaussian 16 at Tue Dec  8 13:29:35 2020.

 --------------------------------------------------------------------
 #N Geom=AllCheck Guess=TCheck SCRF=Check GenChk RB3LYP/6-31G(d) Freq
 --------------------------------------------------------------------

 Structure from the checkpoint file:  "JID_914.chk"
 ------------------------------
 CID_130124735_JID_914_neutraal
 ------------------------------
 Charge =  0 Multiplicity = 1

 SCF Done:  E(RB3LYP) =  -860.906701052     A.U. after    1 cycles

  Exact polarizability: 100.602  -1.912  85.531  -0.662  -0.801  80.980
 Approx polarizability: 132.375  -3.025 127.942  -4.856   5.234 127.319

                      1                      2                      3
                      A                      A                      A
 Frequencies --     48.4000                82.8106               105.2973
 Red. masses --      4.6214                 3.5961                 3.2487
 Frc consts  --      0.0064                 0.0145                 0.0212
 IR Inten    --      0.6468                 2.9628                 0.7186

                      4                      5                      6
                      A                      A                      A
 Frequencies --    126.1353               172.6206               208.3880
 Red. masses --      3.5976                 4.2694                 2.6481
 Frc consts  --      0.0337                 0.0750                 0.0678
 IR Inten    --      9.6433                11.6163                 0.8049

                      7                      8                      9
                      A                      A                      A
 Frequencies --    228.5546               241.1481               270.5070
 Red. masses --      1.9852                 1.3484                 1.5730
 Frc consts  --      0.0611                 0.0462                 0.0678
 IR Inten    --      0.8519                 0.6542                 2.1621

                     10                     11                     12
                      A                      A                      A
 Frequencies --    300.4380               303.7384               368.1592
 Red. masses --      2.2283                 1.9936                 4.8958
 Frc consts  --      0.1185                 0.1084                 0.3910
 IR Inten    --      1.1543                 2.2057                18.1750

                     13                     14                     15
                      A                      A                      A
 Frequencies --    393.5086               417.8921               445.0459
 Red. masses --      2.4111                 2.0950                 3.2181
 Frc consts  --      0.2200                 0.2156                 0.3755
 IR Inten    --      2.9172                 3.6478                38.3443

                     16                     17                     18
                      A                      A                      A
 Frequencies --    498.5768               521.9055               543.7291
 Red. masses --      4.8967                 1.3642                 2.5575
 Frc consts  --      0.7172                 0.2189                 0.4455
 IR Inten    --     17.0788               175.6337                 6.3879

                     19                     20                     21
                      A                      A                      A
 Frequencies --    625.2503               731.1105               778.0798
 Red. masses --      4.4138                 2.5719                 3.0066
 Frc consts  --      1.0166                 0.8100                 1.0724
 IR Inten    --     10.6519                 8.3588                 9.4587

                     22                     23                     24
                      A                      A                      A
 Frequencies --    884.4803               906.0096               948.4744
 Red. masses --      1.5448                 2.0486                 1.2108
 Frc consts  --      0.7120                 0.9908                 0.6417
 IR Inten    --      8.3678                13.1609                 1.1197

                     25                     26                     27
                      A                      A                      A
 Frequencies --    961.9850               978.6732               986.5279
 Red. masses --      1.6414                 1.4192                 1.8039
 Frc consts  --      0.8950                 0.8009                 1.0344
 IR Inten    --     20.7774                 3.4540                 2.9102

                     28                     29                     30
                      A                      A                      A
 Frequencies --   1047.0940              1089.5632              1116.2174
 Red. masses --      1.9133                 5.6640                 2.5812
 Frc consts  --      1.2359                 3.9617                 1.8948
 IR Inten    --      4.0966               160.8792                55.1051

                     31                     32                     33
                      A                      A                      A
 Frequencies --   1137.7025              1152.5146              1185.5465
 Red. masses --      2.3670                 1.9116                 1.1372
 Frc consts  --      1.8052                 1.4961                 0.9417
 IR Inten    --     32.1159                 3.3742                18.0083

                     34                     35                     36
                      A                      A                      A
 Frequencies --   1207.2596              1225.0289              1271.8691
 Red. masses --      1.6404                 1.3947                 1.9862
 Frc consts  --      1.4086                 1.2332                 1.8930
 IR Inten    --      0.6117                 4.4711                46.5262

                     37                     38                     39
                      A                      A                      A
 Frequencies --   1299.3711              1329.9215              1350.1993
 Red. masses --      2.8932                 1.4148                 1.3285
 Frc consts  --      2.8781                 1.4743                 1.4269
 IR Inten    --    139.7857                17.3674                 1.3454

                     40                     41                     42
                      A                      A                      A
 Frequencies --   1368.0825              1394.3955              1416.8581
 Red. masses --      1.2225                 1.3430                 1.4725
 Frc consts  --      1.3481                 1.5385                 1.7417
 IR Inten    --      7.7682                 4.4513                 0.5179

                     43                     44                     45
                      A                      A                      A
 Frequencies --   1430.2409              1433.9707              1455.0394
 Red. masses --      1.2378                 1.2650                 1.2328
 Frc consts  --      1.4919                 1.5325                 1.5378
 IR Inten    --     46.5880                 0.4405                 7.6007

                     46                     47                     48
                      A                      A                      A
 Frequencies --   1487.3078              1502.6548              1505.7628
 Red. masses --      1.0821                 1.0871                 1.0891
 Frc consts  --      1.4103                 1.4463                 1.4548
 IR Inten    --      9.3895                 7.2725                 2.3532

                     49                     50                     51
                      A                      A                      A
 Frequencies --   1523.2105              1526.4375              1538.5987
 Red. masses --      1.0493                 1.0483                 1.0570
 Frc consts  --      1.4344                 1.4391                 1.4743
 IR Inten    --      3.2719                 5.5248                 2.5726

                     52                     53                     54
                      A                      A                      A
 Frequencies --   1548.3175              3029.7745              3039.6816
 Red. masses --      1.0478                 1.0767                 1.0566
 Frc consts  --      1.4800                 5.8231                 5.7522
 IR Inten    --      6.8916                 1.3648                 9.0344

                     55                     56                     57
                      A                      A                      A
 Frequencies --   3041.1855              3046.5821              3048.1179
 Red. masses --      1.0419                 1.0683                 1.0479
 Frc consts  --      5.6773                 5.8424                 5.7361
 IR Inten    --     27.6879                25.5532                42.2082

                     58                     59                     60
                      A                      A                      A
 Frequencies --   3090.2356              3100.4892              3104.9861
 Red. masses --      1.0626                 1.0942                 1.1003
 Frc consts  --      5.9788                 6.1975                 6.2498
 IR Inten    --      2.3046                 3.2378                 5.6838

                     61                     62                     63
                      A                      A                      A
 Frequencies --   3111.6908              3118.3974              3120.2786
 Red. masses --      1.0999                 1.1024                 1.1020
 Frc consts  --      6.2750                 6.3162                 6.3215
 IR Inten    --     60.6137                16.4693                47.5807

                     64                     65                     66
                      A                      A                      A
 Frequencies --   3145.9691              3185.1572              3684.8717
 Red. masses --      1.1044                 1.0972                 1.0653
 Frc consts  --      6.4401                 6.5583                 8.5221
 IR Inten    --      2.2285                 5.3203                48.1642

 - Thermochemistry -
 -------------------
 Temperature   298.150 Kelvin.  Pressure   1.00000 Atm.
 Atom     1 has atomic number  6 and mass  12.00000

 Molecular mass:   166.06637 amu.
 Principal axes and moments of inertia in atomic units:
                           1         2         3
     Eigenvalues --  1041.146612411.727982845.10458
           X            0.99994  -0.01099   0.00003
           Y            0.01099   0.99957  -0.02712
           Z            0.00026   0.02712   0.99963
 This molecule is an asymmetric top.
 Rotational symmetry number  1.
 Warning -- assumption of classical behavior for rotation
           may cause significant error
 Rotational temperatures (Kelvin)      0.08319     0.03591     0.03044
 Rotational constants (GHZ):           1.73342     0.74832     0.63433
 Zero-point vibrational energy     541238.6 (Joules/Mol)
                                  129.35913 (Kcal/Mol)
 Warning -- explicit consideration of  18 degrees of freedom as
           vibrations may cause significant error
 Vibrational temperatures:     69.64   119.15   151.50   181.48   248.36
          (Kelvin)            299.82   328.84   346.96   389.20   432.26
                              437.01   529.70   566.17   601.25   640.32
                              717.34   750.91   782.30   899.60  1051.90
                             1119.48  1272.57  1303.55  1364.64  1384.08
                             1408.09  1419.39  1506.53  1567.64  1605.99
                             1636.90  1658.21  1705.74  1736.98  1762.54
                             1829.94  1869.51  1913.46  1942.64  1968.37
                             2006.22  2038.54  2057.80  2063.16  2093.48
                             2139.90  2161.99  2166.46  2191.56  2196.20
                             2213.70  2227.68  4359.17  4373.42  4375.59
                             4383.35  4385.56  4446.16  4460.91  4467.38
                             4477.03  4486.68  4489.39  4526.35  4582.73
                             5301.71

 Zero-point correction=                           0.206147 (Hartree/Particle)
 Thermal correction to Energy=                    0.218200
 Thermal correction to Enthalpy=                  0.219144
 Thermal correction to Gibbs Free Energy=         0.168246
 Sum of electronic and zero-point Energies=           -860.700554
 Sum of electronic and thermal Energies=              -860.688501
 Sum of electronic and thermal Enthalpies=            -860.687557
 Sum of electronic and thermal Free Energies=         -860.738455

                     E (Thermal)             CV                S
                      KCal/Mol        Cal/Mol-Kelvin    Cal/Mol-Kelvin
 Total                  136.923             44.295            107.124
 Electronic               0.000              0.000              0.000
 Translational            0.889              2.981             41.230
 Rotational               0.889              2.981             30.347
 Vibrational            135.145             38.333             35.547
 Vibration     1          0.595              1.978              4.882
 Vibration     2          0.600              1.961              3.823
 Vibration     3          0.605              1.945              3.354
 Vibration     4          0.611              1.927              3.004
 Vibration     5          0.626              1.876              2.407
 Vibration     6          0.642              1.828              2.058
 Vibration     7          0.651              1.797              1.890
 Vibration     8          0.658              1.777              1.794
 Vibration     9          0.674              1.728              1.593
 Vibration    10          0.693              1.673              1.414
 Vibration    11          0.695              1.667              1.396
 Vibration    12          0.741              1.538              1.087
 Vibration    13          0.761              1.484              0.987
 Vibration    14          0.781              1.431              0.899
 Vibration    15          0.804              1.372              0.811
 Vibration    16          0.854              1.253              0.662
 Vibration    17          0.877              1.201              0.606
 Vibration    18          0.899              1.153              0.557

 Optimization completed.
    -- Stationary point found.
 Normal termination of Gaussian 16 at Tue Dec  8 13:35:50 2020.

 ----------------------------------------------------------------------
 # B3LYP/6-311++G(d,p) empiricaldispersion=gd3bj scf=xqc pop=npa geom=c
 heck
 ----------------------------------------------------------------------

 --------------------------------------
 CID_130124735_JID_914_Energie_neutraal
 --------------------------------------
 Structure from the checkpoint file:  "JID_914.chk"
 Charge =  0 Multiplicity = 1

 SCF Done:  E(RB3LYP) =  -861.081914094     A.U. after   14 cycles
 Normal termination of Gaussian 16 at Tue Dec  8 13:40:12 2020.

 ----------------------------------------------------------------------
 # B3LYP/6-311++G(d,p) empiricaldispersion=gd3bj scf=xqc pop=npa geom=c
 heck
 ----------------------------------------------------------------------

 ------------------------------------
 CID_130124735_JID_914_Energie_kation
 ------------------------------------
 Structure from the checkpoint file:  "JID_914.chk"
 Charge =  1 Multiplicity = 2

 SCF Done:  E(UB3LYP) =  -860.718993347     A.U. after   22 cycles
 Normal termination of Gaussian 16 at Tue Dec  8 13:46:43 2020.
 Gaussian 16:  ES64L-G16RevA.03 25-Dec-2016

 ----------------------------------------------------------------------
 # B3LYP/6-311++G(d,p) empiricaldispersion=gd3bj scf=xqc pop=npa geom=c
 heck
 ----------------------------------------------------------------------

 -----------------------------------
 CID_130124735_JID_914_Energie_anion
 -----------------------------------
 Structure from the checkpoint file:  "JID_914.chk"
 Charge = -1 Multiplicity = 2

                         Standard orientation:
 ---------------------------------------------------------------------
 Center     Atomic      Atomic             Coordinates (Angstroms)
 Number     Number       Type             X           Y           Z
 ---------------------------------------------------------------------
      1          6           0        2.126119    1.517253    0.320626
      2          6           0        2.047176    0.081995   -0.216567
      3          6           0        3.446605   -0.450609   -0.548315
      4          6           0        1.353298   -0.878151    0.765053
      5          6           0       -0.057033   -0.502845    1.215683
      6         16           0       -1.320575   -0.561025   -0.093538
      7          8           0       -0.955121   -1.573227   -1.099367
      8          8           0       -2.634525   -0.594217    0.586958
      9          6           0       -1.296961    1.095691   -0.889617
     10          8           0       -1.641625    2.072827    0.043989
     11          1           0        2.669478    1.541552    1.274018
     12          1           0        1.140277    1.964026    0.489229
     13          1           0        2.663464    2.164288   -0.381626
     14          1           0        1.471381    0.081418   -1.152296
     15          1           0        4.076786   -0.475280    0.349916
     16          1           0        3.398842   -1.467201   -0.954266
     17          1           0        3.944839    0.185991   -1.287709
     18          1           0        1.318010   -1.879837    0.323554
     19          1           0        1.965205   -0.953277    1.675003
     20          1           0       -0.443403   -1.215727    1.950826
     21          1           0       -0.134456    0.498493    1.648384
     22          1           0       -0.299481    1.308233   -1.272386
     23          1           0       -2.006428    0.991292   -1.722745
     24          1           0       -2.500361    1.809370    0.422892
 ---------------------------------------------------------------------

 SCF Done:  E(UB3LYP) =  -861.068300226     A.U. after   28 cycles

 The electronic state is 2-A.
 Alpha  occ. eigenvalues --  -88.94202 -19.05890 -19.02123 -19.01835 -10.16332
 Alpha  occ. eigenvalues --  -10.11086 -10.07951 -10.07894 -10.05762 -10.05491
 Alpha  occ. eigenvalues --   -8.00833  -5.97097  -5.96960  -5.96908  -1.01078
 Alpha  occ. eigenvalues --   -0.96323  -0.90665  -0.72993  -0.67842  -0.64239
 Alpha  occ. eigenvalues --   -0.58527  -0.57071  -0.50897  -0.47012  -0.44657
 Alpha  occ. eigenvalues --   -0.41076  -0.39899  -0.37997  -0.36778  -0.35624
 Alpha  occ. eigenvalues --   -0.35092  -0.33021  -0.30595  -0.30209  -0.28865
 Alpha  occ. eigenvalues --   -0.28472  -0.27056  -0.24995  -0.23949  -0.23316
 Alpha  occ. eigenvalues --   -0.23114  -0.22551  -0.22104  -0.21070  -0.17989
 Alpha  occ. eigenvalues --    0.04597
 Alpha virt. eigenvalues --    0.06924   0.07294   0.08486   0.09051   0.09628
 Alpha virt. eigenvalues --    0.10825   0.11072   0.11556   0.11961   0.12611
 Alpha virt. eigenvalues --    0.13625   0.14287   0.14770   0.15183   0.15904

  Beta  occ. eigenvalues --  -88.94200 -19.05858 -19.02115 -19.01823 -10.16299
  Beta  occ. eigenvalues --  -10.11051 -10.07925 -10.07884 -10.05727 -10.05443
  Beta  occ. eigenvalues --   -8.00830  -5.97095  -5.96958  -5.96906  -1.01055
  Beta  occ. eigenvalues --   -0.96271  -0.90641  -0.72954  -0.67791  -0.64158
  Beta  occ. eigenvalues --   -0.58444  -0.56995  -0.50841  -0.46936  -0.44585
  Beta  occ. eigenvalues --   -0.41031  -0.39851  -0.37960  -0.36736  -0.35577
  Beta  occ. eigenvalues --   -0.35058  -0.32974  -0.30548  -0.30154  -0.28822
  Beta  occ. eigenvalues --   -0.28429  -0.27012  -0.24958  -0.23909  -0.23277
  Beta  occ. eigenvalues --   -0.23068  -0.22515  -0.22068  -0.21053  -0.17951
  Beta virt. eigenvalues --    0.07037   0.07816   0.08365   0.09126   0.09729
  Beta virt. eigenvalues --    0.10371   0.11303   0.11545   0.12013   0.12442
  Beta virt. eigenvalues --    0.13073   0.14089   0.14632   0.14980   0.15368

 Mulliken charges and spin densities:
               1          2
     1  C    1.555646  -2.195987
     2  C   -2.168761   2.563768
     3  C    0.795767  -1.354154
     4  C    1.442283  -1.921523
     5  C   -0.549755   0.001287
     6  S    0.089887   0.292653
     7  O   -0.174516   0.013970
     8  O   -0.254596   0.029690
     9  C    0.638712  -1.338839
    10  O   -0.163784   0.049712
    11  H   -0.415730   0.578434
    12  H    0.088545   0.061235
    13  H   -0.327478   0.473587
    14  H    0.186988  -0.071486
    15  H   -0.115634   0.253181
    16  H   -0.224517   0.361309
    17  H   -0.316533   0.462101
    18  H    0.173642   0.026738
    19  H   -0.385785   0.539629
    20  H   -0.399700   0.666313
    21  H    0.179384   0.082539
    22  H   -0.390215   0.694388
    23  H   -0.202018   0.420649
    24  H   -0.061832   0.310807
 Sum of Mulliken charges =  -1.00000   1.00000

 Dipole moment (field-independent basis, Debye):
    X=             -2.8166    Y=             -1.1828    Z=             -0.6332  Tot=              3.1198
 Quadrupole moment (field-independent basis, Debye-Ang):
   XX=           -132.1627   YY=           -111.6238   ZZ=           -106.9891
   XY=             -5.3581   XZ=             -1.1968   YZ=              1.5393

 Summary of Natural Population Analysis:

                                       Natural Population
                Natural  -----------------------------------------------
    Atom  No    Charge         Core      Valence    Rydberg      Total
 -----------------------------------------------------------------------
      C    1   -0.29174      0.99965     2.28530    0.00680     3.29174
      C    2   -0.11756      0.99961     2.10872    0.00924     3.11756
      C    3   -0.28139      0.99965     2.27577    0.00597     3.28139
      C    4   -0.19888      0.99959     2.18841    0.01087     3.19888
      C    5   -0.28671      0.99957     2.27511    0.01203     3.28671
      S    6    0.99161      4.99930     1.91667    0.09242     7.00839
      O    7   -0.46573      0.99991     3.46024    0.00558     4.46573
      O    8   -0.47900      0.99991     3.47283    0.00626     4.47900
      C    9   -0.10635      0.99962     2.08932    0.01740     3.10635
      O   10   -0.35662      0.99989     3.34842    0.00830     4.35662
      H   11    0.10000      0.00000     0.39829    0.00171     0.40000
      H   12    0.10096      0.00000     0.39730    0.00174     0.39904
      H   13    0.10336      0.00000     0.39504    0.00159     0.39664
      H   14    0.09150      0.00000     0.40601    0.00249     0.40850
      H   15    0.09809      0.00000     0.40062    0.00129     0.40191
      H   16    0.09879      0.00000     0.40026    0.00095     0.40121
      H   17    0.10120      0.00000     0.39771    0.00109     0.39880
      H   18    0.10825      0.00000     0.39036    0.00139     0.39175
      H   19    0.10648      0.00000     0.39186    0.00166     0.39352
      H   20    0.12133      0.00000     0.37723    0.00144     0.37867
      H   21    0.12126      0.00000     0.37693    0.00182     0.37874
      H   22    0.10456      0.00000     0.39335    0.00209     0.39544
      H   23    0.09580      0.00000     0.40236    0.00183     0.40420
      H   24    0.24080      0.00000     0.25443    0.00478     0.25920
 =======================================================================
   * Total *    0.00000     13.99671    30.80257    0.20072    45.00000

 Normal termination of Gaussian 16 at Tue Dec  8 13:52:32 2020.
