 Gaussian 16, Revision A.03,

 -----------------------------------------------------------
 # opt freq B3LYP/6-31G(d) empiricaldispersion=gd3bj scf=xqc
 -----------------------------------------------------------

 -------------------------------
 CID_81915205_JID_10313_neutraal
 -------------------------------
 Symbolic Z-matrix:
 Charge =  0 Multiplicity = 1

 SCF Done:  E(RB3LYP) =  -927.209458013     A.U. after   14 cycles
 SCF Done:  E(RB3LYP) =  -927.223026716     A.U. after   12 cycles
 SCF Done:  E(RB3LYP) =  -927.224387005     A.U. after   13 cycles
 SCF Done:  E(RB3LYP) =  -927.227333353     A.U. after   12 cycles
 SCF Done:  E(RB3LYP) =  -927.229596858     A.U. after   12 cycles
 SCF Done:  E(RB3LYP) =  -927.231320953     A.U. after   12 cycles
 SCF Done:  E(RB3LYP) =  -927.232450609     A.U. after   12 cycles
 SCF Done:  E(RB3LYP) =  -927.232995482     A.U. after   12 cycles
 SCF Done:  E(RB3LYP) =  -927.233227435     A.U. after   12 cycles
 SCF Done:  E(RB3LYP) =  -927.233366983     A.U. after   11 cycles
 SCF Done:  E(RB3LYP) =  -927.234523496     A.U. after   10 cycles
 SCF Done:  E(RB3LYP) =  -927.234530086     A.U. after   10 cycles
 SCF Done:  E(RB3LYP) =  -927.234530328     A.U. after    9 cycles
 SCF Done:  E(RB3LYP) =  -927.234530710     A.U. after    9 cycles
 SCF Done:  E(RB3LYP) =  -927.234530768     A.U. after    8 cycles
 Optimization completed.
    -- Stationary point found.
 Normal termination of Gaussian 16 at Mon Dec 14 18:11:02 2020.

 --------------------------------------------------------------------
 #N Geom=AllCheck Guess=TCheck SCRF=Check GenChk RB3LYP/6-31G(d) Freq
 --------------------------------------------------------------------

 Structure from the checkpoint file:  "JID_10313.chk"
 -------------------------------
 CID_81915205_JID_10313_neutraal
 -------------------------------
 Charge =  0 Multiplicity = 1

 SCF Done:  E(RB3LYP) =  -927.234530768     A.U. after    1 cycles

  Exact polarizability: 199.141 -11.326 198.863 -15.289  -7.456 122.090
 Approx polarizability: 271.835 -11.505 317.690 -40.233 -25.154 190.925

                      1                      2                      3
                      A                      A                      A
 Frequencies --     14.6305                20.3588                42.5029
 Red. masses --      4.3043                 5.1749                 3.3441
 Frc consts  --      0.0005                 0.0013                 0.0036
 IR Inten    --      0.0322                 0.0885                 0.2660

                      4                      5                      6
                      A                      A                      A
 Frequencies --     80.7748                97.7226               119.4934
 Red. masses --      4.9318                 4.7349                 3.9430
 Frc consts  --      0.0190                 0.0266                 0.0332
 IR Inten    --      2.2426                 1.0654                 0.8106

                      7                      8                      9
                      A                      A                      A
 Frequencies --    131.7961               158.7106               182.3889
 Red. masses --      3.6878                 6.0703                 1.7948
 Frc consts  --      0.0377                 0.0901                 0.0352
 IR Inten    --      1.2471                 4.0666                11.4463

                     10                     11                     12
                      A                      A                      A
 Frequencies --    199.2065               209.3194               227.6233
 Red. masses --      5.6478                 1.8178                 2.5304
 Frc consts  --      0.1321                 0.0469                 0.0772
 IR Inten    --      4.6518                 5.8485                 0.9650

                     13                     14                     15
                      A                      A                      A
 Frequencies --    251.7547               259.5066               279.7193
 Red. masses --      2.2495                 4.8696                 2.4193
 Frc consts  --      0.0840                 0.1932                 0.1115
 IR Inten    --      0.5010                 9.9619                 2.4514

                     16                     17                     18
                      A                      A                      A
 Frequencies --    336.6634               349.5007               378.9985
 Red. masses --      7.7553                 5.3099                 2.5858
 Frc consts  --      0.5179                 0.3821                 0.2188
 IR Inten    --      3.5026                 0.9721                 0.2742

                     19                     20                     21
                      A                      A                      A
 Frequencies --    395.1720               399.6349               417.4204
 Red. masses --      2.5264                 2.2130                 3.0208
 Frc consts  --      0.2324                 0.2082                 0.3101
 IR Inten    --      3.9123                 3.4061                 7.3023

                     22                     23                     24
                      A                      A                      A
 Frequencies --    470.3845               487.6930               489.9180
 Red. masses --      2.8183                 1.3996                 2.6491
 Frc consts  --      0.3674                 0.1961                 0.3746
 IR Inten    --      0.7799                58.0352                21.5738

                     25                     26                     27
                      A                      A                      A
 Frequencies --    513.2593               539.3781               589.8783
 Red. masses --      1.6207                 2.3225                 2.6215
 Frc consts  --      0.2516                 0.3981                 0.5374
 IR Inten    --    144.7540                60.5597                 2.5065

                     28                     29                     30
                      A                      A                      A
 Frequencies --    621.6284               664.1396               677.3090
 Red. masses --      3.0952                 3.7595                 5.0453
 Frc consts  --      0.7047                 0.9770                 1.3637
 IR Inten    --     27.3651                20.5909                14.1982

                     31                     32                     33
                      A                      A                      A
 Frequencies --    687.6503               706.6026               741.6834
 Red. masses --      6.2889                 6.2536                 8.0019
 Frc consts  --      1.7521                 1.8396                 2.5935
 IR Inten    --      2.5548                16.2791                 1.7554

                     34                     35                     36
                      A                      A                      A
 Frequencies --    764.0525               799.7025               831.6238
 Red. masses --      3.0747                 6.9525                 1.4894
 Frc consts  --      1.0576                 2.6197                 0.6069
 IR Inten    --     11.5215                25.7708                 0.5195

                     37                     38                     39
                      A                      A                      A
 Frequencies --    850.8197               858.6979               862.0058
 Red. masses --      5.9844                 1.7459                 1.9641
 Frc consts  --      2.5524                 0.7585                 0.8599
 IR Inten    --      3.5509                 5.3281                 1.8161

                     40                     41                     42
                      A                      A                      A
 Frequencies --    880.0559               890.0007               924.6960
 Red. masses --      1.4606                 2.4222                 2.4855
 Frc consts  --      0.6665                 1.1304                 1.2522
 IR Inten    --      6.5152                 2.6588                 0.2448

                     43                     44                     45
                      A                      A                      A
 Frequencies --    950.8531               956.1704               978.6443
 Red. masses --      2.1481                 4.3448                 2.4553
 Frc consts  --      1.1443                 2.3404                 1.3855
 IR Inten    --      7.4111                71.4803                89.6987

                     46                     47                     48
                      A                      A                      A
 Frequencies --    990.2721              1031.4254              1049.2928
 Red. masses --      1.2948                 2.1948                 3.1100
 Frc consts  --      0.7481                 1.3757                 2.0175
 IR Inten    --      1.6808                 7.9458                89.0013

                     49                     50                     51
                      A                      A                      A
 Frequencies --   1059.9934              1075.6355              1095.5931
 Red. masses --      2.1963                 1.7520                 4.1834
 Frc consts  --      1.4540                 1.1943                 2.9586
 IR Inten    --      4.0734                 1.1675                16.8185

                     52                     53                     54
                      A                      A                      A
 Frequencies --   1108.2031              1114.7584              1151.9458
 Red. masses --      2.3180                 3.6463                 2.2266
 Frc consts  --      1.6773                 2.6697                 1.7409
 IR Inten    --      3.9615                 9.0873                45.4292

                     55                     56                     57
                      A                      A                      A
 Frequencies --   1161.0718              1179.5710              1189.4419
 Red. masses --      2.1952                 4.7540                 1.2176
 Frc consts  --      1.7436                 3.8972                 1.0149
 IR Inten    --     23.3916               112.4434                 5.2697

                     58                     59                     60
                      A                      A                      A
 Frequencies --   1213.4559              1234.0433              1239.2364
 Red. masses --      2.3068                 2.1144                 1.5894
 Frc consts  --      2.0013                 1.8971                 1.4381
 IR Inten    --     19.7809                 4.1251                 2.4524

                     61                     62                     63
                      A                      A                      A
 Frequencies --   1268.5426              1290.5382              1304.8370
 Red. masses --      1.8831                 1.2168                 1.2431
 Frc consts  --      1.7854                 1.1940                 1.2470
 IR Inten    --     61.5516                10.7579                 4.7515

                     64                     65                     66
                      A                      A                      A
 Frequencies --   1314.3314              1340.5947              1348.1023
 Red. masses --      1.1717                 2.3370                 2.7554
 Frc consts  --      1.1926                 2.4746                 2.9504
 IR Inten    --      6.1182               144.0566                15.3512

                     67                     68                     69
                      A                      A                      A
 Frequencies --   1357.7856              1365.8157              1371.6954
 Red. masses --      1.4822                 3.2382                 1.3822
 Frc consts  --      1.6099                 3.5591                 1.5323
 IR Inten    --     18.9897                72.1413                 8.4131

                     70                     71                     72
                      A                      A                      A
 Frequencies --   1375.7094              1376.9879              1397.5184
 Red. masses --      1.3724                 1.2527                 1.7294
 Frc consts  --      1.5304                 1.3995                 1.9900
 IR Inten    --      6.9596                21.9045               195.0902

                     73                     74                     75
                      A                      A                      A
 Frequencies --   1401.1728              1404.1179              1414.2826
 Red. masses --      1.4120                 1.4648                 1.4113
 Frc consts  --      1.6333                 1.7015                 1.6631
 IR Inten    --      0.4710                10.6359                14.0244

                     76                     77                     78
                      A                      A                      A
 Frequencies --   1423.2188              1434.5824              1444.3074
 Red. masses --      1.6588                 2.4590                 1.5800
 Frc consts  --      1.9796                 2.9817                 1.9419
 IR Inten    --     50.6404                33.4723                 4.3446

                     79                     80                     81
                      A                      A                      A
 Frequencies --   1447.2595              1489.3538              1504.2515
 Red. masses --      1.8827                 1.0989                 3.2180
 Frc consts  --      2.3233                 1.4362                 4.2902
 IR Inten    --     14.0566                 9.9242               335.5044

                     82                     83                     84
                      A                      A                      A
 Frequencies --   1505.9060              1513.5542              1522.6567
 Red. masses --      1.1006                 1.0871                 1.0939
 Frc consts  --      1.4705                 1.4672                 1.4943
 IR Inten    --      1.5490                 4.6958                 6.7019

                     85                     86                     87
                      A                      A                      A
 Frequencies --   1524.1644              1536.2685              1540.1285
 Red. masses --      1.1010                 2.0077                 1.1060
 Frc consts  --      1.5069                 2.7918                 1.5456
 IR Inten    --      4.1180                33.5731                 5.3224

                     88                     89                     90
                      A                      A                      A
 Frequencies --   1547.9309              1578.0890              1606.1956
 Red. masses --      1.6248                 6.6256                 5.6209
 Frc consts  --      2.2938                 9.7216                 8.5439
 IR Inten    --      5.7059               387.2294               331.2948

                     91                     92                     93
                      A                      A                      A
 Frequencies --   1672.9467              1745.9956              2907.7431
 Red. masses --      8.0990                 1.0681                 1.0726
 Frc consts  --     13.3550                 1.9185                 5.3432
 IR Inten    --    532.3489                24.5263                69.2322

                     94                     95                     96
                      A                      A                      A
 Frequencies --   2974.1076              3025.4317              3030.9994
 Red. masses --      1.0719                 1.0670                 1.0635
 Frc consts  --      5.5863                 5.7542                 5.7566
 IR Inten    --     54.2586                27.0663                12.3302

                     97                     98                     99
                      A                      A                      A
 Frequencies --   3043.5378              3044.3910              3044.6307
 Red. masses --      1.0614                 1.0606                 1.0616
 Frc consts  --      5.7926                 5.7917                 5.7979
 IR Inten    --     36.0986                33.4131                22.8761

                    100                    101                    102
                      A                      A                      A
 Frequencies --   3063.6852              3078.5235              3085.1257
 Red. masses --      1.0848                 1.0939                 1.1012
 Frc consts  --      5.9993                 6.1081                 6.1753
 IR Inten    --     62.0841                63.4316                 2.8033

                    103                    104                    105
                      A                      A                      A
 Frequencies --   3086.9973              3090.1536              3093.5245
 Red. masses --      1.1035                 1.0947                 1.1037
 Frc consts  --      6.1959                 6.1590                 6.2230
 IR Inten    --     37.6658                12.2269                78.2826

                    106                    107                    108
                      A                      A                      A
 Frequencies --   3104.2145              3278.7506              3429.9104
 Red. masses --      1.1028                 1.0954                 1.0485
 Frc consts  --      6.2612                 6.9378                 7.2677
 IR Inten    --     49.9076                 8.1319                 5.2476

                    109                    110                    111
                      A                      A                      A
 Frequencies --   3505.1794              3634.8425              3674.1763
 Red. masses --      1.0931                 1.0780                 1.0811
 Frc consts  --      7.9127                 8.3912                 8.5991
 IR Inten    --      0.2196                69.6694                86.7683

 - Thermochemistry -
 -------------------
 Temperature   298.150 Kelvin.  Pressure   1.00000 Atm.
 Atom     1 has atomic number  6 and mass  12.00000

 Molecular mass:   277.16511 amu.
 Principal axes and moments of inertia in atomic units:
                           1         2         3
     Eigenvalues --  3389.27969********************
           X            0.99999  -0.00258   0.00433
           Y            0.00252   0.99991   0.01296
           Z           -0.00436  -0.01295   0.99991
 This molecule is an asymmetric top.
 Rotational symmetry number  1.
 Warning -- assumption of classical behavior for rotation
           may cause significant error
 Rotational temperatures (Kelvin)      0.02556     0.00858     0.00715
 Rotational constants (GHZ):           0.53249     0.17875     0.14894
 Zero-point vibrational energy     871769.3 (Joules/Mol)
                                  208.35787 (Kcal/Mol)
 Warning -- explicit consideration of  27 degrees of freedom as
           vibrations may cause significant error
 Vibrational temperatures:     21.05    29.29    61.15   116.22   140.60
          (Kelvin)            171.92   189.63   228.35   262.42   286.61
                              301.16   327.50   362.22   373.37   402.45
                              484.38   502.85   545.29   568.56   574.99
                              600.57   676.78   701.68   704.88   738.47
                              776.04   848.70   894.38   955.55   974.50
                              989.38  1016.64  1067.12  1099.30  1150.59
                             1196.52  1224.14  1235.47  1240.23  1266.20
                             1280.51  1330.43  1368.07  1375.72  1408.05
                             1424.78  1483.99  1509.70  1525.09  1547.60
                             1576.31  1594.46  1603.89  1657.39  1670.52
                             1697.14  1711.34  1745.89  1775.51  1782.98
                             1825.15  1856.80  1877.37  1891.03  1928.82
                             1939.62  1953.55  1965.10  1973.56  1979.34
                             1981.18  2010.72  2015.98  2020.21  2034.84
                             2047.69  2064.04  2078.04  2082.28  2142.85
                             2164.28  2166.66  2177.67  2190.76  2192.93
                             2210.35  2215.90  2227.13  2270.52  2310.96
                             2407.00  2512.10  4183.59  4279.08  4352.92
                             4360.93  4378.97  4380.20  4380.54  4407.96
                             4429.31  4438.81  4441.50  4446.04  4450.89
                             4466.27  4717.39  4934.88  5043.17  5229.73
                             5286.32

 Zero-point correction=                           0.332039 (Hartree/Particle)
 Thermal correction to Energy=                    0.349945
 Thermal correction to Enthalpy=                  0.350890
 Thermal correction to Gibbs Free Energy=         0.284034
 Sum of electronic and zero-point Energies=           -926.902491
 Sum of electronic and thermal Energies=              -926.884585
 Sum of electronic and thermal Enthalpies=            -926.883641
 Sum of electronic and thermal Free Energies=         -926.950497

                     E (Thermal)             CV                S
                      KCal/Mol        Cal/Mol-Kelvin    Cal/Mol-Kelvin
 Total                  219.594             69.108            140.710
 Electronic               0.000              0.000              0.000
 Translational            0.889              2.981             42.757
 Rotational               0.889              2.981             34.382
 Vibrational            217.817             63.147             63.571
 Vibration     1          0.593              1.986              7.255
 Vibration     2          0.593              1.986              6.599
 Vibration     3          0.595              1.980              5.139
 Vibration     4          0.600              1.962              3.872
 Vibration     5          0.603              1.951              3.499
 Vibration     6          0.609              1.933              3.109
 Vibration     7          0.612              1.922              2.920
 Vibration     8          0.621              1.893              2.565
 Vibration     9          0.630              1.864              2.304
 Vibration    10          0.637              1.841              2.140
 Vibration    11          0.642              1.827              2.050
 Vibration    12          0.651              1.799              1.898
 Vibration    13          0.664              1.760              1.718
 Vibration    14          0.668              1.747              1.665
 Vibration    15          0.680              1.711              1.535
 Vibration    16          0.717              1.602              1.228
 Vibration    17          0.727              1.576              1.168
 Vibration    18          0.749              1.515              1.043
 Vibration    19          0.762              1.480              0.981
 Vibration    20          0.766              1.471              0.964
 Vibration    21          0.780              1.432              0.901
 Vibration    22          0.827              1.316              0.736
 Vibration    23          0.844              1.277              0.690
 Vibration    24          0.846              1.272              0.684
 Vibration    25          0.868              1.221              0.626
 Vibration    26          0.894              1.163              0.567
 Vibration    27          0.947              1.053              0.467

                           ! Non-Optimized Parameters !
 Normal termination of Gaussian 16 at Mon Dec 14 18:30:34 2020.

 ----------------------------------------------------------------------
 # B3LYP/6-311++G(d,p) empiricaldispersion=gd3bj scf=xqc pop=npa geom=c
 heck
 ----------------------------------------------------------------------

 ---------------------------------------
 CID_81915205_JID_10313_Energie_neutraal
 ---------------------------------------
 Structure from the checkpoint file:  "JID_10313.chk"
 Charge =  0 Multiplicity = 1

 SCF Done:  E(RB3LYP) =  -927.493648868     A.U. after   15 cycles
 Normal termination of Gaussian 16 at Mon Dec 14 18:39:20 2020.

 ----------------------------------------------------------------------
 # B3LYP/6-311++G(d,p) empiricaldispersion=gd3bj scf=xqc pop=npa geom=c
 heck
 ----------------------------------------------------------------------

 -------------------------------------
 CID_81915205_JID_10313_Energie_kation
 -------------------------------------
 Structure from the checkpoint file:  "JID_10313.chk"
 Charge =  1 Multiplicity = 2

 SCF Done:  E(UB3LYP) =  -927.216917669     A.U. after   29 cycles
 Normal termination of Gaussian 16 at Mon Dec 14 19:05:02 2020.
 Gaussian 16:  ES64L-G16RevA.03 25-Dec-2016

 ----------------------------------------------------------------------
 # B3LYP/6-311++G(d,p) empiricaldispersion=gd3bj scf=xqc pop=npa geom=c
 heck
 ----------------------------------------------------------------------

 ------------------------------------
 CID_81915205_JID_10313_Energie_anion
 ------------------------------------
 Structure from the checkpoint file:  "JID_10313.chk"
 Charge = -1 Multiplicity = 2

                         Standard orientation:
 ---------------------------------------------------------------------
 Center     Atomic      Atomic             Coordinates (Angstroms)
 Number     Number       Type             X           Y           Z
 ---------------------------------------------------------------------
      1          6           0        4.462252    1.295534    1.433922
      2          6           0        4.134765    1.863008    0.047527
      3          6           0        2.964460    1.102426   -0.579901
      4          7           0        3.280755   -0.326421   -0.655188
      5          6           0        3.519632   -0.910302    0.660223
      6          6           0        4.699864   -0.216607    1.346591
      7          6           0        2.418180   -1.115950   -1.514654
      8          6           0        0.985582   -1.373557   -1.042942
      9          8           0        0.266488   -0.135679   -1.109441
     10          6           0       -0.976607   -0.063007   -0.609460
     11          7           0       -1.493914    1.152346   -0.637743
     12          6           0       -2.749657    1.330250   -0.156580
     13          7           0       -3.563460    0.410636    0.381618
     14          6           0       -3.002731   -0.803925    0.389383
     15          6           0       -1.712130   -1.158088   -0.085123
     16          6           0       -1.626526   -2.568102    0.153229
     17          7           0       -2.727149   -3.035762    0.710522
     18          7           0       -3.555025   -1.953029    0.850649
     19          7           0       -3.219559    2.609855   -0.250077
     20          7           0       -4.383138    3.039372    0.410086
     21          1           0        5.336010    1.798847    1.864808
     22          1           0        3.617513    1.489578    2.111111
     23          1           0        3.885147    2.928987    0.114306
     24          1           0        5.011096    1.767771   -0.606290
     25          1           0        2.048002    1.293781    0.005523
     26          1           0        2.768555    1.462727   -1.595347
     27          1           0        3.731698   -1.979027    0.530729
     28          1           0        2.630409   -0.833791    1.319415
     29          1           0        5.607534   -0.413557    0.762327
     30          1           0        4.848516   -0.646348    2.344836
     31          1           0        2.372655   -0.634003   -2.498457
     32          1           0        2.886405   -2.100133   -1.656491
     33          1           0        0.503005   -2.112839   -1.695337
     34          1           0        0.970932   -1.751229   -0.014965
     35          1           0       -0.818182   -3.252170   -0.058947
     36          1           0       -4.471401   -2.072438    1.254080
     37          1           0       -2.534616    3.327617   -0.438456
     38          1           0       -5.179983    2.669678   -0.108843
     39          1           0       -4.417268    2.572926    1.319164
 ---------------------------------------------------------------------

 SCF Done:  E(UB3LYP) =  -927.484432288     A.U. after   33 cycles
 SCF Done:  E(UB3LYP) =  -927.484432288     a.u. after    1 cycles

 The electronic state is 2-A.
 Alpha  occ. eigenvalues --  -19.05555 -14.27973 -14.25619 -14.24715 -14.22816
 Alpha  occ. eigenvalues --  -14.20629 -14.19869 -14.19324 -10.16808 -10.16245
 Alpha  occ. eigenvalues --  -10.14408 -10.12858 -10.10195 -10.09427 -10.09405
 Alpha  occ. eigenvalues --  -10.09076 -10.07631 -10.07336 -10.07120 -10.06983
 Alpha  occ. eigenvalues --   -0.98331  -0.94709  -0.91845  -0.85597  -0.83267
 Alpha  occ. eigenvalues --   -0.78780  -0.72343  -0.71907  -0.70739  -0.66748
 Alpha  occ. eigenvalues --   -0.65802  -0.65360  -0.57724  -0.55379  -0.54070
 Alpha  occ. eigenvalues --   -0.53095  -0.51360  -0.51108  -0.47714  -0.45399
 Alpha  occ. eigenvalues --   -0.44705  -0.42009  -0.41798  -0.40986  -0.39420
 Alpha  occ. eigenvalues --   -0.38261  -0.37679  -0.37167  -0.36213  -0.36115
 Alpha  occ. eigenvalues --   -0.35188  -0.33858  -0.33638  -0.32457  -0.31521
 Alpha  occ. eigenvalues --   -0.30539  -0.29665  -0.29551  -0.27069  -0.26362
 Alpha  occ. eigenvalues --   -0.24879  -0.24802  -0.23727  -0.22535  -0.22254
 Alpha  occ. eigenvalues --   -0.22229  -0.20821  -0.19779  -0.19105  -0.18356
 Alpha  occ. eigenvalues --   -0.16146  -0.15069  -0.12086  -0.11740   0.04377
 Alpha virt. eigenvalues --    0.05912   0.06424   0.06715   0.07605   0.07931
 Alpha virt. eigenvalues --    0.08220   0.09033   0.09525   0.09748   0.10028
 Alpha virt. eigenvalues --    0.10375   0.10738   0.11162   0.11510   0.12056

  Beta  occ. eigenvalues --  -19.05482 -14.27976 -14.25595 -14.24704 -14.22636
  Beta  occ. eigenvalues --  -14.20628 -14.19774 -14.19337 -10.16739 -10.15936
  Beta  occ. eigenvalues --  -10.14405 -10.12850 -10.10178 -10.09409 -10.09313
  Beta  occ. eigenvalues --  -10.09070 -10.07679 -10.07327 -10.07114 -10.06966
  Beta  occ. eigenvalues --   -0.98126  -0.94579  -0.91758  -0.85479  -0.83251
  Beta  occ. eigenvalues --   -0.78616  -0.72204  -0.71799  -0.70711  -0.66643
  Beta  occ. eigenvalues --   -0.65779  -0.65308  -0.57598  -0.55240  -0.53965
  Beta  occ. eigenvalues --   -0.53053  -0.51220  -0.51052  -0.47640  -0.45354
  Beta  occ. eigenvalues --   -0.44598  -0.41885  -0.41720  -0.40890  -0.39338
  Beta  occ. eigenvalues --   -0.38123  -0.37584  -0.37100  -0.36154  -0.35925
  Beta  occ. eigenvalues --   -0.35084  -0.33784  -0.33554  -0.32386  -0.31276
  Beta  occ. eigenvalues --   -0.30353  -0.29557  -0.29481  -0.27024  -0.26027
  Beta  occ. eigenvalues --   -0.24742  -0.24677  -0.23704  -0.22403  -0.22223
  Beta  occ. eigenvalues --   -0.22199  -0.20457  -0.19630  -0.18920  -0.18069
  Beta  occ. eigenvalues --   -0.16089  -0.14785  -0.11754  -0.11513
  Beta virt. eigenvalues --    0.06274   0.06481   0.07417   0.07810   0.08068
  Beta virt. eigenvalues --    0.08261   0.08402   0.09294   0.09741   0.09840
  Beta virt. eigenvalues --    0.10097   0.10584   0.10923   0.11242   0.11560

 Mulliken charges and spin densities:
               1          2
     1  C   -0.311112   0.068026
     2  C   -0.075955  -0.367257
     3  C   -0.347192  -0.000124
     4  N    0.017509   0.172545
     5  C    0.160294  -0.321895
     6  C    0.206602  -0.708592
     7  C    0.605134  -1.459396
     8  C   -0.670940   0.674429
     9  O    0.011663   0.017388
    10  C   -1.160597  -0.080895
    11  N   -0.234562  -0.024250
    12  C    0.133191  -0.081007
    13  N   -0.254819   0.027858
    14  C   -0.132583   0.581399
    15  C    1.510350  -0.768417
    16  C   -0.101442   0.212689
    17  N   -0.131628   0.029099
    18  N   -0.237722   0.043066
    19  N   -0.326517   0.062228
    20  N   -0.176548  -0.069587
    21  H   -0.145080   0.314566
    22  H    0.085728   0.023565
    23  H    0.091546   0.050515
    24  H    0.023896   0.106141
    25  H    0.151199   0.018306
    26  H    0.176722  -0.011953
    27  H   -0.373566   0.542345
    28  H    0.133772  -0.033930
    29  H    0.067239   0.067323
    30  H   -0.287221   0.444496
    31  H    0.128415   0.052023
    32  H   -0.326575   0.511043
    33  H    0.043187   0.140393
    34  H    0.280752  -0.089497
    35  H   -0.367590   0.572479
    36  H    0.216660   0.112712
    37  H    0.282896   0.022305
    38  H    0.167901   0.080977
    39  H    0.166993   0.068882
 Sum of Mulliken charges =  -1.00000   1.00000

 Dipole moment (field-independent basis, Debye):
    X=             -3.1449    Y=              3.6162    Z=             -0.8743  Tot=              4.8716
 Quadrupole moment (field-independent basis, Debye-Ang):
   XX=           -200.6225   YY=           -174.4464   ZZ=           -144.5904
   XY=             10.5771   XZ=             -6.5787   YZ=              0.7914

 Summary of Natural Population Analysis:

                                       Natural Population
                Natural  -----------------------------------------------
    Atom  No    Charge         Core      Valence    Rydberg      Total
 -----------------------------------------------------------------------
      C    1   -0.19204      0.99963     2.18326    0.00915     3.19204
      C    2   -0.19266      0.99963     2.18555    0.00748     3.19266
      C    3   -0.08281      0.99961     2.07354    0.00967     3.08281
      N    4   -0.28409      0.99971     2.77109    0.01328     3.78409
      C    5   -0.08677      0.99961     2.07387    0.01329     3.08677
      C    6   -0.19261      0.99963     2.18374    0.00925     3.19261
      C    7   -0.08759      0.99960     2.07458    0.01340     3.08759
      C    8   -0.02424      0.99957     2.01364    0.01103     3.02424
      O    9   -0.26131      0.99984     3.25233    0.00914     4.26131
      C   10    0.35184      0.99943     1.63367    0.01506     2.64816
      N   11   -0.29346      0.99962     2.78442    0.00942     3.79346
      C   12    0.30596      0.99961     1.67654    0.01789     2.69404
      N   13   -0.30227      0.99964     2.79044    0.01220     3.80227
      C   14    0.20184      0.99952     1.78425    0.01440     2.79816
      C   15   -0.15261      0.99945     2.14611    0.00706     3.15261
      C   16    0.01354      0.99963     1.97304    0.01379     2.98646
      N   17   -0.13036      0.99973     2.61702    0.01361     3.63036
      N   18   -0.18908      0.99964     2.67797    0.01146     3.68908
      N   19   -0.22357      0.99965     2.71020    0.01372     3.72357
      N   20   -0.31706      0.99978     2.80718    0.01011     3.81706
      H   21    0.09742      0.00000     0.40161    0.00097     0.40258
      H   22    0.09305      0.00000     0.40565    0.00129     0.40695
      H   23    0.09607      0.00000     0.40298    0.00095     0.40393
      H   24    0.09424      0.00000     0.40421    0.00155     0.40576
      H   25    0.08794      0.00000     0.40998    0.00207     0.41206
      H   26    0.09663      0.00000     0.40213    0.00124     0.40337
      H   27    0.09950      0.00000     0.39867    0.00182     0.40050
      H   28    0.07824      0.00000     0.42004    0.00172     0.42176
      H   29    0.09548      0.00000     0.40290    0.00162     0.40452
      H   30    0.09890      0.00000     0.40004    0.00106     0.40110
      H   31    0.09666      0.00000     0.40211    0.00123     0.40334
      H   32    0.09978      0.00000     0.39882    0.00141     0.40022
      H   33    0.08824      0.00000     0.40974    0.00202     0.41176
      H   34    0.08897      0.00000     0.40861    0.00242     0.41103
      H   35    0.09876      0.00000     0.39937    0.00188     0.40124
      H   36    0.19597      0.00000     0.30121    0.00282     0.30403
      H   37    0.18922      0.00000     0.30799    0.00279     0.31078
      H   38    0.17116      0.00000     0.32649    0.00235     0.32884
      H   39    0.17312      0.00000     0.32414    0.00274     0.32688
 =======================================================================
   * Total *    0.00000     19.99252    53.73913    0.26835    74.00000

 Normal termination of Gaussian 16 at Mon Dec 14 19:33:17 2020.
