 Gaussian 16, Revision A.03,

 -----------------------------------------------------------
 # opt freq B3LYP/6-31G(d) empiricaldispersion=gd3bj scf=xqc
 -----------------------------------------------------------

 ------------------------------
 CID_82409837_JID_3233_neutraal
 ------------------------------
 Symbolic Z-matrix:
 Charge =  0 Multiplicity = 1

 SCF Done:  E(RB3LYP) =  -539.574283385     A.U. after   14 cycles
 SCF Done:  E(RB3LYP) =  -539.577097344     A.U. after   11 cycles
 SCF Done:  E(RB3LYP) =  -539.577445064     A.U. after   11 cycles
 SCF Done:  E(RB3LYP) =  -539.577427822     A.U. after   11 cycles
 SCF Done:  E(RB3LYP) =  -539.577718576     A.U. after   11 cycles
 SCF Done:  E(RB3LYP) =  -539.577746321     A.U. after   10 cycles
 SCF Done:  E(RB3LYP) =  -539.577759681     A.U. after   10 cycles
 SCF Done:  E(RB3LYP) =  -539.577771123     A.U. after   10 cycles
 SCF Done:  E(RB3LYP) =  -539.577777348     A.U. after   10 cycles
 SCF Done:  E(RB3LYP) =  -539.577780870     A.U. after    9 cycles
 SCF Done:  E(RB3LYP) =  -539.577815986     A.U. after   11 cycles
 SCF Done:  E(RB3LYP) =  -539.577818643     A.U. after    9 cycles
 SCF Done:  E(RB3LYP) =  -539.577818838     A.U. after    7 cycles
 SCF Done:  E(RB3LYP) =  -539.577819043     A.U. after   10 cycles
 SCF Done:  E(RB3LYP) =  -539.577819341     A.U. after    9 cycles
 Optimization completed.
    -- Stationary point found.
 Normal termination of Gaussian 16 at Wed Dec  9 22:36:30 2020.

 --------------------------------------------------------------------
 #N Geom=AllCheck Guess=TCheck SCRF=Check GenChk RB3LYP/6-31G(d) Freq
 --------------------------------------------------------------------

 Structure from the checkpoint file:  "JID_3233.chk"
 ------------------------------
 CID_82409837_JID_3233_neutraal
 ------------------------------
 Charge =  0 Multiplicity = 1

 SCF Done:  E(RB3LYP) =  -539.577819341     A.U. after    1 cycles

  Exact polarizability: 155.360  -0.007 137.928  -7.946   6.313  86.154
 Approx polarizability: 214.396   3.975 204.615 -16.847  15.179 132.122

                      1                      2                      3
                      A                      A                      A
 Frequencies --     21.2221                38.2561                61.0102
 Red. masses --      3.0490                 2.9393                 3.0022
 Frc consts  --      0.0008                 0.0025                 0.0066
 IR Inten    --      1.4174                 0.3355                 0.0739

                      4                      5                      6
                      A                      A                      A
 Frequencies --     90.3885               136.0148               163.7088
 Red. masses --      3.6504                 3.5020                 2.7516
 Frc consts  --      0.0176                 0.0382                 0.0434
 IR Inten    --      0.8739                 0.3179                 2.2878

                      7                      8                      9
                      A                      A                      A
 Frequencies --    213.0725               232.4286               256.9737
 Red. masses --      2.6592                 1.1064                 1.2704
 Frc consts  --      0.0711                 0.0352                 0.0494
 IR Inten    --      2.2483                 0.6786                 2.6084

                     10                     11                     12
                      A                      A                      A
 Frequencies --    265.3516               295.4514               323.5456
 Red. masses --      2.5160                 2.2398                 2.1989
 Frc consts  --      0.1044                 0.1152                 0.1356
 IR Inten    --      3.7544                11.6116                 6.7245

                     13                     14                     15
                      A                      A                      A
 Frequencies --    353.6155               378.3968               400.8749
 Red. masses --      1.3446                 2.6957                 2.2505
 Frc consts  --      0.0991                 0.2274                 0.2131
 IR Inten    --     51.5187                11.4584                 1.9194

                     16                     17                     18
                      A                      A                      A
 Frequencies --    426.5841               444.3218               471.9003
 Red. masses --      1.8594                 3.0666                 2.6750
 Frc consts  --      0.1994                 0.3567                 0.3510
 IR Inten    --      1.1984                 1.5084                 7.5988

                     19                     20                     21
                      A                      A                      A
 Frequencies --    560.6676               600.9186               645.5226
 Red. masses --      3.3251                 3.8293                 4.9766
 Frc consts  --      0.6158                 0.8147                 1.2218
 IR Inten    --      2.0488                 4.1511                 1.8398

                     22                     23                     24
                      A                      A                      A
 Frequencies --    734.4932               768.5145               792.1866
 Red. masses --      4.3326                 2.2951                 1.7397
 Frc consts  --      1.3771                 0.7986                 0.6432
 IR Inten    --      1.8672                 5.7387                23.6989

                     25                     26                     27
                      A                      A                      A
 Frequencies --    841.4090               880.2464               883.3081
 Red. masses --      2.5162                 2.0219                 1.8677
 Frc consts  --      1.0496                 0.9231                 0.8586
 IR Inten    --      5.4482                13.5795                 1.4911

                     28                     29                     30
                      A                      A                      A
 Frequencies --    904.5658               914.9572               942.8418
 Red. masses --      1.4526                 1.4306                 1.2313
 Frc consts  --      0.7003                 0.7056                 0.6449
 IR Inten    --     30.3154                 1.0182                13.1849

                     31                     32                     33
                      A                      A                      A
 Frequencies --    944.2605               962.8454               977.5515
 Red. masses --      1.5022                 1.9365                 1.5113
 Frc consts  --      0.7892                 1.0577                 0.8509
 IR Inten    --     53.8949                 0.2220                 0.3537

                     34                     35                     36
                      A                      A                      A
 Frequencies --    995.6834               997.2171              1018.3368
 Red. masses --      1.9414                 1.4473                 7.0870
 Frc consts  --      1.1340                 0.8480                 4.3301
 IR Inten    --      0.4548                 0.0370                 5.7440

                     37                     38                     39
                      A                      A                      A
 Frequencies --   1072.2263              1107.6493              1127.2605
 Red. masses --      2.5025                 1.6626                 1.6754
 Frc consts  --      1.6951                 1.2019                 1.2543
 IR Inten    --     24.1170                 6.6532                 9.9747

                     40                     41                     42
                      A                      A                      A
 Frequencies --   1140.1258              1148.4208              1182.6962
 Red. masses --      1.6298                 2.1702                 1.2420
 Frc consts  --      1.2482                 1.6863                 1.0236
 IR Inten    --      5.9256                 2.3390                 6.8327

                     43                     44                     45
                      A                      A                      A
 Frequencies --   1197.2517              1204.4518              1236.6009
 Red. masses --      1.2200                 1.7316                 1.6113
 Frc consts  --      1.0303                 1.4800                 1.4517
 IR Inten    --      0.7952                10.0111                 5.5109

                     46                     47                     48
                      A                      A                      A
 Frequencies --   1251.5600              1267.4106              1278.3914
 Red. masses --      1.2777                 1.5339                 2.4161
 Frc consts  --      1.1792                 1.4517                 2.3264
 IR Inten    --      1.7139                 8.9928                 4.0974

                     49                     50                     51
                      A                      A                      A
 Frequencies --   1322.3704              1340.2564              1371.6751
 Red. masses --      2.2926                 1.8341                 1.1850
 Frc consts  --      2.3620                 1.9411                 1.3137
 IR Inten    --      2.4197                 0.5370                 4.9781

                     52                     53                     54
                      A                      A                      A
 Frequencies --   1384.2219              1389.9459              1401.9190
 Red. masses --      1.3807                 1.5070                 1.7211
 Frc consts  --      1.5587                 1.7154                 1.9929
 IR Inten    --      6.4975                 3.4078                 3.5200

                     55                     56                     57
                      A                      A                      A
 Frequencies --   1430.6149              1448.1097              1450.9041
 Red. masses --      1.2765                 1.3481                 1.3294
 Frc consts  --      1.5392                 1.6656                 1.6489
 IR Inten    --      2.9689                 2.1921                17.3007

                     58                     59                     60
                      A                      A                      A
 Frequencies --   1476.5407              1493.4630              1502.9310
 Red. masses --      2.0264                 1.3086                 2.0281
 Frc consts  --      2.6029                 1.7197                 2.6990
 IR Inten    --      2.5382                13.0265                43.7644

                     61                     62                     63
                      A                      A                      A
 Frequencies --   1509.1330              1518.6529              1524.1688
 Red. masses --      1.2348                 1.0467                 1.0596
 Frc consts  --      1.6570                 1.4223                 1.4502
 IR Inten    --      8.8606                 0.8832                 3.6136

                     64                     65                     66
                      A                      A                      A
 Frequencies --   1531.9162              1534.4670              1539.9212
 Red. masses --      1.0880                 1.0552                 1.0508
 Frc consts  --      1.5043                 1.4639                 1.4682
 IR Inten    --      2.9274                 2.3454                11.8946

                     67                     68                     69
                      A                      A                      A
 Frequencies --   1639.6787              1647.6057              1692.5645
 Red. masses --      6.4980                 5.3958                 1.0867
 Frc consts  --     10.2931                 8.6300                 1.8343
 IR Inten    --     61.3901                52.8755                28.2229

                     70                     71                     72
                      A                      A                      A
 Frequencies --   2972.0160              3015.5154              3035.2470
 Red. masses --      1.0721                 1.0831                 1.0607
 Frc consts  --      5.5796                 5.8030                 5.7577
 IR Inten    --     69.2373                14.0329                13.3974

                     73                     74                     75
                      A                      A                      A
 Frequencies --   3037.4290              3042.8054              3047.8009
 Red. masses --      1.0366                 1.0460                 1.0525
 Frc consts  --      5.6348                 5.7061                 5.7603
 IR Inten    --     22.2050                32.1217                33.4761

                     76                     77                     78
                      A                      A                      A
 Frequencies --   3069.7741              3071.3024              3093.8167
 Red. masses --      1.0931                 1.0980                 1.1030
 Frc consts  --      6.0691                 6.1026                 6.2201
 IR Inten    --     52.2557                38.7039                 4.9055

                     79                     80                     81
                      A                      A                      A
 Frequencies --   3100.8323              3107.1134              3111.7356
 Red. masses --      1.1012                 1.1013                 1.1020
 Frc consts  --      6.2382                 6.2641                 6.2867
 IR Inten    --      8.8333                66.1823                52.1857

                     82                     83                     84
                      A                      A                      A
 Frequencies --   3136.0464              3185.2304              3198.4157
 Red. masses --      1.0995                 1.0863                 1.0912
 Frc consts  --      6.3708                 6.4937                 6.5770
 IR Inten    --     27.5492                 4.1230                21.0414

                     85                     86                     87
                      A                      A                      A
 Frequencies --   3209.0279              3461.8294              3550.3496
 Red. masses --      1.0975                 1.0499                 1.0914
 Frc consts  --      6.6590                 7.4133                 8.1051
 IR Inten    --     19.1024                23.0191                 8.3481

 - Thermochemistry -
 -------------------
 Temperature   298.150 Kelvin.  Pressure   1.00000 Atm.
 Atom     1 has atomic number  6 and mass  12.00000

 Molecular mass:   178.14700 amu.
 Principal axes and moments of inertia in atomic units:
                           1         2         3
     Eigenvalues --  1748.934083211.155084551.19209
           X            0.99999  -0.00376   0.00072
           Y            0.00375   0.99998   0.00534
           Z           -0.00074  -0.00533   0.99999
 This molecule is an asymmetric top.
 Rotational symmetry number  1.
 Warning -- assumption of classical behavior for rotation
           may cause significant error
 Rotational temperatures (Kelvin)      0.04952     0.02697     0.01903
 Rotational constants (GHZ):           1.03191     0.56202     0.39654
 Zero-point vibrational energy     728226.9 (Joules/Mol)
                                  174.05042 (Kcal/Mol)
 Warning -- explicit consideration of  20 degrees of freedom as
           vibrations may cause significant error
 Vibrational temperatures:     30.53    55.04    87.78   130.05   195.69
          (Kelvin)            235.54   306.56   334.41   369.73   381.78
                              425.09   465.51   508.77   544.43   576.77
                              613.76   639.28   678.96   806.68   864.59
                              928.76  1056.77  1105.72  1139.78  1210.60
                             1266.48  1270.88  1301.47  1316.42  1356.54
                             1358.58  1385.32  1406.48  1432.57  1434.77
                             1465.16  1542.69  1593.66  1621.88  1640.39
                             1652.32  1701.64  1722.58  1732.94  1779.19
                             1800.72  1823.52  1839.32  1902.60  1928.33
                             1973.53  1991.59  1999.82  2017.05  2058.34
                             2083.51  2087.53  2124.41  2148.76  2162.38
                             2171.31  2185.00  2192.94  2204.09  2207.76
                             2215.60  2359.13  2370.54  2435.22  4276.07
                             4338.65  4367.04  4370.18  4377.92  4385.11
                             4416.72  4418.92  4451.31  4461.41  4470.44
                             4477.09  4512.07  4582.84  4601.81  4617.08
                             4980.80  5108.16

 Zero-point correction=                           0.277367 (Hartree/Particle)
 Thermal correction to Energy=                    0.291073
 Thermal correction to Enthalpy=                  0.292018
 Thermal correction to Gibbs Free Energy=         0.235850
 Sum of electronic and zero-point Energies=           -539.300452
 Sum of electronic and thermal Energies=              -539.286746
 Sum of electronic and thermal Enthalpies=            -539.285802
 Sum of electronic and thermal Free Energies=         -539.341969

                     E (Thermal)             CV                S
                      KCal/Mol        Cal/Mol-Kelvin    Cal/Mol-Kelvin
 Total                  182.651             51.761            118.215
 Electronic               0.000              0.000              0.000
 Translational            0.889              2.981             41.439
 Rotational               0.889              2.981             31.614
 Vibrational            180.874             45.799             45.162
 Vibration     1          0.593              1.985              6.516
 Vibration     2          0.594              1.982              5.347
 Vibration     3          0.597              1.973              4.424
 Vibration     4          0.602              1.956              3.652
 Vibration     5          0.614              1.917              2.859
 Vibration     6          0.623              1.887              2.506
 Vibration     7          0.644              1.821              2.017
 Vibration     8          0.653              1.791              1.860
 Vibration     9          0.667              1.751              1.682
 Vibration    10          0.671              1.737              1.626
 Vibration    11          0.690              1.682              1.443
 Vibration    12          0.708              1.628              1.292
 Vibration    13          0.730              1.568              1.150
 Vibration    14          0.749              1.516              1.046
 Vibration    15          0.767              1.468              0.959
 Vibration    16          0.788              1.412              0.870
 Vibration    17          0.804              1.373              0.813
 Vibration    18          0.829              1.312              0.732
 Vibration    19          0.916              1.116              0.523
 Vibration    20          0.959              1.030              0.448

 Optimization completed.
    -- Stationary point found.
 Normal termination of Gaussian 16 at Wed Dec  9 22:45:23 2020.

 ----------------------------------------------------------------------
 # B3LYP/6-311++G(d,p) empiricaldispersion=gd3bj scf=xqc pop=npa geom=c
 heck
 ----------------------------------------------------------------------

 --------------------------------------
 CID_82409837_JID_3233_Energie_neutraal
 --------------------------------------
 Structure from the checkpoint file:  "JID_3233.chk"
 Charge =  0 Multiplicity = 1

 SCF Done:  E(RB3LYP) =  -539.729958329     A.U. after   15 cycles
 Normal termination of Gaussian 16 at Wed Dec  9 22:49:48 2020.

 ----------------------------------------------------------------------
 # B3LYP/6-311++G(d,p) empiricaldispersion=gd3bj scf=xqc pop=npa geom=c
 heck
 ----------------------------------------------------------------------

 ------------------------------------
 CID_82409837_JID_3233_Energie_kation
 ------------------------------------
 Structure from the checkpoint file:  "JID_3233.chk"
 Charge =  1 Multiplicity = 2

 SCF Done:  E(UB3LYP) =  -539.422122268     A.U. after   29 cycles
 Normal termination of Gaussian 16 at Wed Dec  9 23:01:55 2020.
 Gaussian 16:  ES64L-G16RevA.03 25-Dec-2016

 ----------------------------------------------------------------------
 # B3LYP/6-311++G(d,p) empiricaldispersion=gd3bj scf=xqc pop=npa geom=c
 heck
 ----------------------------------------------------------------------

 -----------------------------------
 CID_82409837_JID_3233_Energie_anion
 -----------------------------------
 Structure from the checkpoint file:  "JID_3233.chk"
 Charge = -1 Multiplicity = 2

                         Standard orientation:
 ---------------------------------------------------------------------
 Center     Atomic      Atomic             Coordinates (Angstroms)
 Number     Number       Type             X           Y           Z
 ---------------------------------------------------------------------
      1          6           0        1.995232   -1.331178    1.098169
      2          6           0        2.680549   -0.225302    0.287779
      3          6           0        4.048137   -0.690094   -0.225509
      4          6           0        1.804523    0.253502   -0.894746
      5          6           0        0.503542    0.878243   -0.458842
      6          6           0        0.431599    2.228099   -0.104134
      7          6           0       -0.786387    2.742724    0.335939
      8          6           0       -1.888297    1.898112    0.410083
      9          6           0       -1.739077    0.554358    0.041589
     10          7           0       -0.565784    0.066600   -0.386781
     11          6           0       -2.913756   -0.400005    0.128180
     12          6           0       -2.695001   -1.759256   -0.539094
     13          7           0       -1.747313   -2.569779    0.232607
     14          1           0        1.818994   -2.214943    0.471390
     15          1           0        1.028075   -1.009193    1.494137
     16          1           0        2.623893   -1.640568    1.941050
     17          1           0        2.837715    0.638384    0.950955
     18          1           0        3.937162   -1.544139   -0.905823
     19          1           0        4.564594    0.107887   -0.771980
     20          1           0        4.693401   -1.006055    0.602166
     21          1           0        2.379022    0.978596   -1.485032
     22          1           0        1.581418   -0.600693   -1.544504
     23          1           0        1.313395    2.857990   -0.175781
     24          1           0       -0.874696    3.790031    0.612319
     25          1           0       -2.854113    2.265755    0.744622
     26          1           0       -3.148365   -0.575042    1.187118
     27          1           0       -3.793764    0.089384   -0.310321
     28          1           0       -3.656046   -2.287191   -0.559028
     29          1           0       -2.393712   -1.592992   -1.588027
     30          1           0       -1.679697   -3.496101   -0.187041
     31          1           0       -0.831989   -2.134077    0.126512
 ---------------------------------------------------------------------

 SCF Done:  E(UB3LYP) =  -539.715018583     A.U. after   33 cycles
 SCF Done:  E(UB3LYP) =  -539.715018589     a.u. after    2 cycles

 The electronic state is 2-A.
 Alpha  occ. eigenvalues --  -14.20632 -14.18724 -10.11501 -10.11250 -10.09381
 Alpha  occ. eigenvalues --  -10.08827 -10.08095 -10.07681 -10.07521 -10.07371
 Alpha  occ. eigenvalues --  -10.06965 -10.06347 -10.05908  -0.84799  -0.78067
 Alpha  occ. eigenvalues --   -0.72107  -0.70204  -0.68474  -0.63240  -0.59117
 Alpha  occ. eigenvalues --   -0.58860  -0.53745  -0.51266  -0.48884  -0.46408
 Alpha  occ. eigenvalues --   -0.41099  -0.39836  -0.38223  -0.37278  -0.36388
 Alpha  occ. eigenvalues --   -0.35247  -0.34758  -0.32876  -0.31396  -0.30541
 Alpha  occ. eigenvalues --   -0.29471  -0.29025  -0.27861  -0.27534  -0.27077
 Alpha  occ. eigenvalues --   -0.26381  -0.25508  -0.23722  -0.23288  -0.23040
 Alpha  occ. eigenvalues --   -0.18722  -0.16120  -0.14980  -0.14376   0.04380
 Alpha virt. eigenvalues --    0.06279   0.06469   0.06888   0.07460   0.07960
 Alpha virt. eigenvalues --    0.08225   0.08597   0.09598   0.09624   0.10527
 Alpha virt. eigenvalues --    0.11031   0.11126   0.11895   0.12134   0.12895

  Beta  occ. eigenvalues --  -14.20622 -14.18712 -10.11493 -10.11250 -10.09370
  Beta  occ. eigenvalues --  -10.08803 -10.08088 -10.07667 -10.07492 -10.07359
  Beta  occ. eigenvalues --  -10.06950 -10.06320 -10.05893  -0.84778  -0.78048
  Beta  occ. eigenvalues --   -0.72082  -0.70157  -0.68444  -0.63207  -0.59076
  Beta  occ. eigenvalues --   -0.58815  -0.53695  -0.51226  -0.48839  -0.46361
  Beta  occ. eigenvalues --   -0.41048  -0.39793  -0.38192  -0.37251  -0.36346
  Beta  occ. eigenvalues --   -0.35207  -0.34727  -0.32841  -0.31353  -0.30506
  Beta  occ. eigenvalues --   -0.29435  -0.28999  -0.27833  -0.27504  -0.27047
  Beta  occ. eigenvalues --   -0.26351  -0.25482  -0.23694  -0.23253  -0.23013
  Beta  occ. eigenvalues --   -0.18678  -0.16102  -0.14929  -0.14357
  Beta virt. eigenvalues --    0.06371   0.06894   0.06995   0.07463   0.07642
  Beta virt. eigenvalues --    0.08588   0.08705   0.09014   0.09751   0.10183
  Beta virt. eigenvalues --    0.10915   0.11250   0.11568   0.12189   0.12304

 Mulliken charges and spin densities:
               1          2
     1  C   -0.295247  -0.394368
     2  C   -0.938603   1.376886
     3  C    1.046849  -1.697125
     4  C    3.061882  -3.735884
     5  C   -1.237795   1.370839
     6  C   -1.183287   1.342151
     7  C    1.247060  -2.129145
     8  C    0.666065  -0.470967
     9  C   -0.855916   0.771920
    10  N    0.084857   0.125547
    11  C    0.375003  -0.671142
    12  C   -0.187285  -0.275335
    13  N   -0.431921   0.049443
    14  H    0.020364   0.108968
    15  H    0.084847   0.072907
    16  H   -0.070514   0.204782
    17  H    0.060044   0.099354
    18  H   -0.008448   0.134957
    19  H   -0.295219   0.431361
    20  H   -0.102930   0.237239
    21  H   -0.032338   0.208918
    22  H    0.037683   0.147008
    23  H   -0.885453   1.085101
    24  H   -0.921512   1.113031
    25  H   -0.596767   0.795447
    26  H    0.136671   0.057560
    27  H   -0.116963   0.250173
    28  H   -0.129444   0.293705
    29  H    0.024234   0.097784
    30  H    0.037233   0.183588
    31  H    0.406851  -0.184701
 Sum of Mulliken charges =  -1.00000   1.00000

 Dipole moment (field-independent basis, Debye):
    X=             -0.7963    Y=             -4.8629    Z=             -0.9899  Tot=              5.0261
 Quadrupole moment (field-independent basis, Debye-Ang):
   XX=           -149.1123   YY=           -144.9788   ZZ=           -111.4373
   XY=             -0.8423   XZ=              5.0850   YZ=              0.3441

 Summary of Natural Population Analysis:

                                       Natural Population
                Natural  -----------------------------------------------
    Atom  No    Charge         Core      Valence    Rydberg      Total
 -----------------------------------------------------------------------
      C    1   -0.28548      0.99964     2.28066    0.00517     3.28548
      C    2   -0.10991      0.99961     2.10061    0.00969     3.10991
      C    3   -0.28109      0.99965     2.27654    0.00490     3.28109
      C    4   -0.20273      0.99958     2.19224    0.01091     3.20273
      C    5    0.11756      0.99953     1.86807    0.01484     2.88244
      C    6   -0.12120      0.99949     2.11174    0.00997     3.12120
      C    7   -0.07211      0.99956     2.06192    0.01063     3.07211
      C    8   -0.12239      0.99950     2.11330    0.00958     3.12239
      C    9    0.11790      0.99953     1.86781    0.01476     2.88210
      N   10   -0.26341      0.99964     2.75240    0.01136     3.76341
      C   11   -0.20935      0.99959     2.19998    0.00978     3.20935
      C   12   -0.08597      0.99964     2.07643    0.00991     3.08597
      N   13   -0.42930      0.99977     2.91938    0.01015     3.92930
      H   14    0.09462      0.00000     0.40423    0.00115     0.40538
      H   15    0.10595      0.00000     0.39295    0.00109     0.39405
      H   16    0.09676      0.00000     0.40236    0.00088     0.40324
      H   17    0.09336      0.00000     0.40461    0.00203     0.40664
      H   18    0.09468      0.00000     0.40415    0.00116     0.40532
      H   19    0.10042      0.00000     0.39824    0.00135     0.39958
      H   20    0.09806      0.00000     0.40091    0.00103     0.40194
      H   21    0.10461      0.00000     0.39403    0.00135     0.39539
      H   22    0.10336      0.00000     0.39514    0.00150     0.39664
      H   23    0.10741      0.00000     0.39032    0.00228     0.39259
      H   24    0.10547      0.00000     0.39144    0.00308     0.39453
      H   25    0.10509      0.00000     0.39311    0.00180     0.39491
      H   26    0.10852      0.00000     0.39008    0.00141     0.39148
      H   27    0.10368      0.00000     0.39511    0.00121     0.39632
      H   28    0.08796      0.00000     0.41072    0.00132     0.41204
      H   29    0.08159      0.00000     0.41676    0.00166     0.41841
      H   30    0.16929      0.00000     0.32926    0.00145     0.33071
      H   31    0.18666      0.00000     0.31063    0.00272     0.31334
 =======================================================================
   * Total *   -0.00000     12.99475    35.84513    0.16012    49.00000

 Normal termination of Gaussian 16 at Wed Dec  9 23:34:50 2020.
