 Gaussian 16, Revision A.03,

 -----------------------------------------------------------
 # opt freq B3LYP/6-31G(d) empiricaldispersion=gd3bj scf=xqc
 -----------------------------------------------------------

 ------------------------------
 CID_24729353_JID_2181_neutraal
 ------------------------------
 Symbolic Z-matrix:
 Charge =  0 Multiplicity = 1

 SCF Done:  E(RB3LYP) =  -533.720419657     A.U. after   14 cycles
 SCF Done:  E(RB3LYP) =  -533.723949329     A.U. after   12 cycles
 SCF Done:  E(RB3LYP) =  -533.724646860     A.U. after   11 cycles
 SCF Done:  E(RB3LYP) =  -533.725577401     A.U. after   12 cycles
 SCF Done:  E(RB3LYP) =  -533.726460392     A.U. after   12 cycles
 SCF Done:  E(RB3LYP) =  -533.727053533     A.U. after   12 cycles
 SCF Done:  E(RB3LYP) =  -533.727225838     A.U. after   11 cycles
 SCF Done:  E(RB3LYP) =  -533.727269984     A.U. after   10 cycles
 SCF Done:  E(RB3LYP) =  -533.727308469     A.U. after   10 cycles
 SCF Done:  E(RB3LYP) =  -533.727390070     A.U. after   11 cycles
 SCF Done:  E(RB3LYP) =  -533.727406089     A.U. after    9 cycles
 SCF Done:  E(RB3LYP) =  -533.727406700     A.U. after    8 cycles
 SCF Done:  E(RB3LYP) =  -533.727406804     A.U. after    7 cycles
 SCF Done:  E(RB3LYP) =  -533.727407013     A.U. after    7 cycles
 SCF Done:  E(RB3LYP) =  -533.727407251     A.U. after    8 cycles
 SCF Done:  E(RB3LYP) =  -533.727407326     A.U. after    7 cycles
 Optimization completed.
    -- Stationary point found.
 Normal termination of Gaussian 16 at Wed Dec  9 16:53:03 2020.

 --------------------------------------------------------------------
 #N Geom=AllCheck Guess=TCheck SCRF=Check GenChk RB3LYP/6-31G(d) Freq
 --------------------------------------------------------------------

 Structure from the checkpoint file:  "JID_2181.chk"
 ------------------------------
 CID_24729353_JID_2181_neutraal
 ------------------------------
 Charge =  0 Multiplicity = 1

 SCF Done:  E(RB3LYP) =  -533.727407326     A.U. after    1 cycles

  Exact polarizability: 159.880   4.119 122.265   0.035   0.084  45.875
 Approx polarizability: 242.853  -3.815 211.638   0.214   1.683  69.721

                      1                      2                      3
                      A                      A                      A
 Frequencies --     62.7210               155.2666               184.8865
 Red. masses --      3.1001                 4.7950                 3.3954
 Frc consts  --      0.0072                 0.0681                 0.0684
 IR Inten    --      5.2300                 0.1707                 5.4833

                      4                      5                      6
                      A                      A                      A
 Frequencies --    218.3137               223.7598               244.2285
 Red. masses --      2.9097                 2.0526                 1.3670
 Frc consts  --      0.0817                 0.0605                 0.0480
 IR Inten    --      5.4348                 3.0725                 9.7437

                      7                      8                      9
                      A                      A                      A
 Frequencies --    264.4218               287.6468               365.8951
 Red. masses --      2.5051                 1.6164                 4.4624
 Frc consts  --      0.1032                 0.0788                 0.3520
 IR Inten    --      3.2939                 1.7823                 7.8679

                     10                     11                     12
                      A                      A                      A
 Frequencies --    379.9559               420.8862               470.5456
 Red. masses --      4.5504                 1.3359                 4.4293
 Frc consts  --      0.3871                 0.1394                 0.5778
 IR Inten    --      1.3237               153.9742                 7.8265

                     13                     14                     15
                      A                      A                      A
 Frequencies --    532.6670               558.3729               604.4470
 Red. masses --      5.5454                 3.4634                 5.1616
 Frc consts  --      0.9270                 0.6362                 1.1111
 IR Inten    --      3.0880                15.8860                 2.1896

                     16                     17                     18
                      A                      A                      A
 Frequencies --    622.3686               633.8776               667.7555
 Red. masses --      2.9652                 3.0759                 3.9847
 Frc consts  --      0.6767                 0.7282                 1.0468
 IR Inten    --      7.5868                 0.1558                 4.0460

                     19                     20                     21
                      A                      A                      A
 Frequencies --    719.8902               758.2547               777.9837
 Red. masses --      1.6272                 1.7123                 1.9225
 Frc consts  --      0.4968                 0.5800                 0.6856
 IR Inten    --     45.8155                80.0019                38.7012

                     22                     23                     24
                      A                      A                      A
 Frequencies --    800.9908               824.0710               833.1707
 Red. masses --      3.1171                 1.9824                 1.3946
 Frc consts  --      1.1783                 0.7932                 0.5704
 IR Inten    --     22.6787               203.5416                20.7608

                     25                     26                     27
                      A                      A                      A
 Frequencies --    853.2225               915.2707               974.8340
 Red. masses --      1.3824                 4.2524                 4.5199
 Frc consts  --      0.5929                 2.0988                 2.5307
 IR Inten    --     17.4329                 6.4643                 7.7791

                     28                     29                     30
                      A                      A                      A
 Frequencies --   1079.7491              1082.4521              1099.7916
 Red. masses --      2.3796                 2.5180                 1.5807
 Frc consts  --      1.6346                 1.7383                 1.1265
 IR Inten    --     17.9547                31.4235                 2.7338

                     31                     32                     33
                      A                      A                      A
 Frequencies --   1135.0517              1178.6243              1186.5810
 Red. masses --      1.4788                 1.8735                 1.2699
 Frc consts  --      1.1225                 1.5334                 1.0535
 IR Inten    --      6.7665                 9.7565                 0.7947

                     34                     35                     36
                      A                      A                      A
 Frequencies --   1194.6772              1231.2369              1265.8868
 Red. masses --      1.9577                 1.5547                 2.1722
 Frc consts  --      1.6463                 1.3886                 2.0508
 IR Inten    --    117.1259                44.0360                50.8121

                     37                     38                     39
                      A                      A                      A
 Frequencies --   1277.2534              1373.8091              1387.2361
 Red. masses --      1.5655                 2.5916                 4.2920
 Frc consts  --      1.5048                 2.8818                 4.8664
 IR Inten    --     58.0017                 7.8460               113.0356

                     40                     41                     42
                      A                      A                      A
 Frequencies --   1396.3423              1459.8857              1480.1779
 Red. masses --      5.2442                 2.8763                 2.1472
 Frc consts  --      6.0244                 3.6118                 2.7718
 IR Inten    --     12.4842                23.3859                64.2679

                     43                     44                     45
                      A                      A                      A
 Frequencies --   1510.6463              1520.5114              1529.5259
 Red. masses --      1.6226                 1.0501                 2.3016
 Frc consts  --      2.1816                 1.4303                 3.1725
 IR Inten    --      1.8873                 4.7164                97.5140

                     46                     47                     48
                      A                      A                      A
 Frequencies --   1541.2734              1584.5691              1648.9281
 Red. masses --      1.2665                 4.2311                 4.6311
 Frc consts  --      1.7726                 6.2593                 7.4189
 IR Inten    --      2.0561                 6.3276               135.2059

                     49                     50                     51
                      A                      A                      A
 Frequencies --   1687.3052              1698.2611              3013.2895
 Red. masses --      2.2594                 1.8731                 1.0356
 Frc consts  --      3.7899                 3.1828                 5.5402
 IR Inten    --     82.9493                37.5665                66.2079

                     52                     53                     54
                      A                      A                      A
 Frequencies --   3067.1687              3148.3216              3213.2801
 Red. masses --      1.1060                 1.0984                 1.0886
 Frc consts  --      6.1302                 6.4145                 6.6223
 IR Inten    --     54.3886                34.4568                11.4480

                     55                     56                     57
                      A                      A                      A
 Frequencies --   3220.2676              3256.6721              3276.1147
 Red. masses --      1.0910                 1.0894                 1.1035
 Frc consts  --      6.6659                 6.8074                 6.9783
 IR Inten    --      5.5725                 2.4090                 8.4648

                     58                     59                     60
                      A                      A                      A
 Frequencies --   3497.6019              3598.2963              3649.5061
 Red. masses --      1.0504                 1.0934                 1.0790
 Frc consts  --      7.5711                 8.3407                 8.4674
 IR Inten    --      1.4789                 4.6668                46.6130

 - Thermochemistry -
 -------------------
 Temperature   298.150 Kelvin.  Pressure   1.00000 Atm.
 Atom     1 has atomic number  6 and mass  12.00000

 Molecular mass:   162.07931 amu.
 Principal axes and moments of inertia in atomic units:
                           1         2         3
     Eigenvalues --   994.013992587.468123565.28368
           X            0.99991   0.01353   0.00012
           Y           -0.01353   0.99989  -0.00545
           Z           -0.00020   0.00545   0.99999
 This molecule is an asymmetric top.
 Rotational symmetry number  1.
 Warning -- assumption of classical behavior for rotation
           may cause significant error
 Rotational temperatures (Kelvin)      0.08714     0.03347     0.02429
 Rotational constants (GHZ):           1.81561     0.69749     0.50620
 Zero-point vibrational energy     471603.8 (Joules/Mol)
                                  112.71601 (Kcal/Mol)
 Warning -- explicit consideration of  15 degrees of freedom as
           vibrations may cause significant error
 Vibrational temperatures:     90.24   223.39   266.01   314.10   321.94
          (Kelvin)            351.39   380.44   413.86   526.44   546.67
                              605.56   677.01   766.39   803.37   869.66
                              895.45   912.01   960.75  1035.76  1090.96
                             1119.35  1152.45  1185.65  1198.75  1227.60
                             1316.87  1402.57  1553.52  1557.41  1582.35
                             1633.09  1695.78  1707.23  1718.87  1771.48
                             1821.33  1837.68  1976.60  1995.92  2009.03
                             2100.45  2129.65  2173.48  2187.68  2200.65
                             2217.55  2279.84  2372.44  2427.66  2443.42
                             4335.45  4412.97  4529.73  4623.19  4633.25
                             4685.62  4713.60  5032.27  5177.15  5250.83

 Zero-point correction=                           0.179624 (Hartree/Particle)
 Thermal correction to Energy=                    0.190021
 Thermal correction to Enthalpy=                  0.190965
 Thermal correction to Gibbs Free Energy=         0.144102
 Sum of electronic and zero-point Energies=           -533.547783
 Sum of electronic and thermal Energies=              -533.537387
 Sum of electronic and thermal Enthalpies=            -533.536443
 Sum of electronic and thermal Free Energies=         -533.583306

                     E (Thermal)             CV                S
                      KCal/Mol        Cal/Mol-Kelvin    Cal/Mol-Kelvin
 Total                  119.240             41.209             98.632
 Electronic               0.000              0.000              0.000
 Translational            0.889              2.981             41.157
 Rotational               0.889              2.981             30.595
 Vibrational            117.462             35.248             26.879
 Vibration     1          0.597              1.972              4.370
 Vibration     2          0.620              1.897              2.607
 Vibration     3          0.631              1.860              2.278
 Vibration     4          0.646              1.813              1.973
 Vibration     5          0.649              1.805              1.928
 Vibration     6          0.660              1.772              1.772
 Vibration     7          0.671              1.738              1.632
 Vibration     8          0.685              1.697              1.488
 Vibration     9          0.739              1.542              1.097
 Vibration    10          0.750              1.513              1.039
 Vibration    11          0.783              1.425              0.889
 Vibration    12          0.828              1.315              0.736
 Vibration    13          0.888              1.178              0.581
 Vibration    14          0.914              1.121              0.527
 Vibration    15          0.963              1.022              0.442

 Optimization completed.
    -- Stationary point found.
 Normal termination of Gaussian 16 at Wed Dec  9 16:57:37 2020.

 ----------------------------------------------------------------------
 # B3LYP/6-311++G(d,p) empiricaldispersion=gd3bj scf=xqc pop=npa geom=c
 heck
 ----------------------------------------------------------------------

 --------------------------------------
 CID_24729353_JID_2181_Energie_neutraal
 --------------------------------------
 Structure from the checkpoint file:  "JID_2181.chk"
 Charge =  0 Multiplicity = 1

 SCF Done:  E(RB3LYP) =  -533.881268596     A.U. after   15 cycles
 Normal termination of Gaussian 16 at Wed Dec  9 16:59:44 2020.

 ----------------------------------------------------------------------
 # B3LYP/6-311++G(d,p) empiricaldispersion=gd3bj scf=xqc pop=npa geom=c
 heck
 ----------------------------------------------------------------------

 ------------------------------------
 CID_24729353_JID_2181_Energie_kation
 ------------------------------------
 Structure from the checkpoint file:  "JID_2181.chk"
 Charge =  1 Multiplicity = 2

 SCF Done:  E(UB3LYP) =  -533.626227478     A.U. after   22 cycles
 Normal termination of Gaussian 16 at Wed Dec  9 17:04:56 2020.
 Gaussian 16:  ES64L-G16RevA.03 25-Dec-2016

 ----------------------------------------------------------------------
 # B3LYP/6-311++G(d,p) empiricaldispersion=gd3bj scf=xqc pop=npa geom=c
 heck
 ----------------------------------------------------------------------

 -----------------------------------
 CID_24729353_JID_2181_Energie_anion
 -----------------------------------
 Structure from the checkpoint file:  "JID_2181.chk"
 Charge = -1 Multiplicity = 2

                         Standard orientation:
 ---------------------------------------------------------------------
 Center     Atomic      Atomic             Coordinates (Angstroms)
 Number     Number       Type             X           Y           Z
 ---------------------------------------------------------------------
      1          6           0        3.793395   -0.059404    0.038443
      2          8           0        2.729145   -0.987251   -0.007791
      3          6           0        1.442734   -0.504451   -0.007927
      4          6           0        1.141870    0.876067    0.005021
      5          6           0       -0.181234    1.321953    0.001655
      6          6           0       -1.184439    0.347838    0.005635
      7          6           0       -0.896048   -1.038589   -0.026385
      8          6           0        0.439760   -1.468129   -0.041194
      9          6           0       -2.167260   -1.715873   -0.013808
     10          6           0       -3.143204   -0.755719    0.036635
     11          7           0       -2.565409    0.503600    0.006197
     12          7           0       -0.533553    2.689235    0.045242
     13          1           0        4.710135   -0.652574    0.051241
     14          1           0        3.754006    0.562437    0.943700
     15          1           0        3.802999    0.596593   -0.843549
     16          1           0        1.936873    1.613206    0.000265
     17          1           0        0.710687   -2.517859   -0.063647
     18          1           0       -2.328268   -2.784438   -0.046369
     19          1           0       -4.218635   -0.860271    0.073940
     20          1           0       -3.026437    1.342142    0.326531
     21          1           0       -1.225950    2.929096   -0.659948
     22          1           0        0.270726    3.297675   -0.068354
 ---------------------------------------------------------------------

 SCF Done:  E(UB3LYP) =  -533.870987614     A.U. after   32 cycles

 The electronic state is 2-A.
 Alpha  occ. eigenvalues --  -19.04651 -14.24487 -14.20461 -10.12331 -10.12181
 Alpha  occ. eigenvalues --  -10.10642 -10.09998 -10.08739 -10.06784 -10.05835
 Alpha  occ. eigenvalues --  -10.05760 -10.05234  -0.96181  -0.87122  -0.80260
 Alpha  occ. eigenvalues --   -0.72620  -0.66854  -0.64126  -0.61515  -0.58541
 Alpha  occ. eigenvalues --   -0.51484  -0.48872  -0.47920  -0.44362  -0.41220
 Alpha  occ. eigenvalues --   -0.39542  -0.38023  -0.36803  -0.36306  -0.34402
 Alpha  occ. eigenvalues --   -0.33088  -0.31648  -0.30612  -0.28972  -0.28548
 Alpha  occ. eigenvalues --   -0.26090  -0.25475  -0.23606  -0.22535  -0.18441
 Alpha  occ. eigenvalues --   -0.14534  -0.11065  -0.08484   0.04330
 Alpha virt. eigenvalues --    0.06244   0.07263   0.08671   0.08819   0.09112
 Alpha virt. eigenvalues --    0.10426   0.10769   0.11231   0.11889   0.12888
 Alpha virt. eigenvalues --    0.13348   0.14109   0.14372   0.15133   0.16212

  Beta  occ. eigenvalues --  -19.04647 -14.24443 -14.20378 -10.12304 -10.12179
  Beta  occ. eigenvalues --  -10.10635 -10.09981 -10.08738 -10.06783 -10.05834
  Beta  occ. eigenvalues --  -10.05741 -10.05233  -0.96170  -0.87076  -0.80162
  Beta  occ. eigenvalues --   -0.72587  -0.66806  -0.64085  -0.61481  -0.58498
  Beta  occ. eigenvalues --   -0.51427  -0.48809  -0.47888  -0.44294  -0.41191
  Beta  occ. eigenvalues --   -0.39485  -0.37957  -0.36778  -0.36232  -0.34351
  Beta  occ. eigenvalues --   -0.33058  -0.31623  -0.30585  -0.28937  -0.28523
  Beta  occ. eigenvalues --   -0.26066  -0.25455  -0.23576  -0.22497  -0.18421
  Beta  occ. eigenvalues --   -0.14494  -0.11053  -0.08450
  Beta virt. eigenvalues --    0.06779   0.07328   0.08368   0.08876   0.09182
  Beta virt. eigenvalues --    0.09788   0.10821   0.11356   0.11883   0.12581
  Beta virt. eigenvalues --    0.12906   0.13359   0.14071   0.14752   0.15328

 Mulliken charges and spin densities:
               1          2
     1  C    0.492113  -0.826018
     2  O   -0.204722   0.032133
     3  C    0.158918  -0.594886
     4  C    1.483417  -0.844013
     5  C   -1.007321   0.202371
     6  C    0.004027  -0.464756
     7  C    1.415906  -0.470147
     8  C   -1.518967   0.401998
     9  C    0.624794  -0.138718
    10  C    0.194822  -0.391823
    11  N   -0.087638  -0.004886
    12  N   -0.253838  -0.074663
    13  H   -0.001282   0.158218
    14  H   -0.099381   0.247405
    15  H   -0.178589   0.332526
    16  H   -0.310419   0.472808
    17  H    0.083585   0.046113
    18  H    0.071586   0.066526
    19  H   -0.787236   0.961827
    20  H   -0.278375   0.572727
    21  H   -0.373574   0.627991
    22  H   -0.427826   0.687264
 Sum of Mulliken charges =  -1.00000   1.00000

 Dipole moment (field-independent basis, Debye):
    X=              2.6731    Y=             -6.5781    Z=              0.5419  Tot=              7.1212
 Quadrupole moment (field-independent basis, Debye-Ang):
   XX=           -131.4671   YY=           -119.9733   ZZ=            -94.7830
   XY=              3.8127   XZ=              1.3909   YZ=              2.5720

 Summary of Natural Population Analysis:

                                       Natural Population
                Natural  -----------------------------------------------
    Atom  No    Charge         Core      Valence    Rydberg      Total
 -----------------------------------------------------------------------
      C    1   -0.10081      0.99961     2.09188    0.00932     3.10081
      O    2   -0.27925      0.99986     3.27001    0.00938     4.27925
      C    3    0.15889      0.99940     1.82793    0.01378     2.84111
      C    4   -0.16915      0.99949     2.16034    0.00932     3.16915
      C    5    0.08565      0.99944     1.90344    0.01147     2.91435
      C    6    0.05067      0.99942     1.93677    0.01314     2.94933
      C    7   -0.03459      0.99951     2.02541    0.00967     3.03459
      C    8   -0.13851      0.99949     2.13048    0.00854     3.13851
      C    9   -0.15040      0.99953     2.14144    0.00944     3.15040
      C   10    0.00253      0.99957     1.98472    0.01318     2.99747
      N   11   -0.27585      0.99966     2.76477    0.01142     3.77585
      N   12   -0.39984      0.99973     2.88903    0.01109     3.89984
      H   13    0.08921      0.00000     0.40986    0.00093     0.41079
      H   14    0.08391      0.00000     0.41473    0.00136     0.41609
      H   15    0.08490      0.00000     0.41357    0.00153     0.41510
      H   16    0.10536      0.00000     0.39295    0.00169     0.39464
      H   17    0.10160      0.00000     0.39708    0.00132     0.39840
      H   18    0.10256      0.00000     0.39675    0.00069     0.39744
      H   19    0.09968      0.00000     0.39884    0.00148     0.40032
      H   20    0.20768      0.00000     0.28548    0.00684     0.29232
      H   21    0.18861      0.00000     0.30291    0.00848     0.31139
      H   22    0.18715      0.00000     0.30599    0.00686     0.31285
 =======================================================================
   * Total *    0.00000     11.99471    30.84437    0.16091    43.00000

 Normal termination of Gaussian 16 at Wed Dec  9 17:11:02 2020.
