 Gaussian 16, Revision A.03,

 -----------------------------------------------------------
 # opt freq B3LYP/6-31G(d) empiricaldispersion=gd3bj scf=xqc
 -----------------------------------------------------------

 ------------------------------
 CID_60695968_JID_3652_neutraal
 ------------------------------
 Symbolic Z-matrix:
 Charge =  0 Multiplicity = 1

 SCF Done:  E(RB3LYP) =  -540.655840742     A.U. after   14 cycles
 SCF Done:  E(RB3LYP) =  -540.674784038     A.U. after   12 cycles
 SCF Done:  E(RB3LYP) =  -540.675523797     A.U. after   12 cycles
 SCF Done:  E(RB3LYP) =  -540.668729653     A.U. after   14 cycles
 SCF Done:  E(RB3LYP) =  -540.676006961     A.U. after   12 cycles
 SCF Done:  E(RB3LYP) =  -540.675858556     A.U. after   12 cycles
 SCF Done:  E(RB3LYP) =  -540.676565694     A.U. after   11 cycles
 SCF Done:  E(RB3LYP) =  -540.676660149     A.U. after   10 cycles
 SCF Done:  E(RB3LYP) =  -540.676647539     A.U. after   11 cycles
 SCF Done:  E(RB3LYP) =  -540.676776401     A.U. after   10 cycles
 SCF Done:  E(RB3LYP) =  -540.676971055     A.U. after   11 cycles
 SCF Done:  E(RB3LYP) =  -540.676997118     A.U. after   10 cycles
 SCF Done:  E(RB3LYP) =  -540.676997276     A.U. after    7 cycles
 SCF Done:  E(RB3LYP) =  -540.676997733     A.U. after    8 cycles
 SCF Done:  E(RB3LYP) =  -540.676997834     A.U. after    9 cycles
 Optimization completed.
    -- Stationary point found.
 Normal termination of Gaussian 16 at Sun Dec 13 16:09:14 2020.

 --------------------------------------------------------------------
 #N Geom=AllCheck Guess=TCheck SCRF=Check GenChk RB3LYP/6-31G(d) Freq
 --------------------------------------------------------------------

 Structure from the checkpoint file:  "JID_3652.chk"
 ------------------------------
 CID_60695968_JID_3652_neutraal
 ------------------------------
 Charge =  0 Multiplicity = 1

 SCF Done:  E(RB3LYP) =  -540.676997834     A.U. after    1 cycles

  Exact polarizability: 154.228 -10.352 115.412  -4.720   5.210 105.915
 Approx polarizability: 180.452 -20.390 169.330 -14.136  14.964 164.896

                      1                      2                      3
                      A                      A                      A
 Frequencies --     18.9090                42.3938                61.3153
 Red. masses --      4.3478                 3.4951                 2.6314
 Frc consts  --      0.0009                 0.0037                 0.0058
 IR Inten    --      0.0114                 0.0270                 0.7966

                      4                      5                      6
                      A                      A                      A
 Frequencies --     66.1309               123.7259               148.4720
 Red. masses --      2.9154                 3.8058                 2.8219
 Frc consts  --      0.0075                 0.0343                 0.0367
 IR Inten    --      0.4114                 0.2802                 1.2552

                      7                      8                      9
                      A                      A                      A
 Frequencies --    181.2874               226.9443               252.3537
 Red. masses --      3.2113                 2.3902                 2.2188
 Frc consts  --      0.0622                 0.0725                 0.0833
 IR Inten    --      1.8434                 0.4984                 1.8488

                     10                     11                     12
                      A                      A                      A
 Frequencies --    273.4123               308.3316               346.9240
 Red. masses --      2.2552                 1.9667                 3.4980
 Frc consts  --      0.0993                 0.1102                 0.2481
 IR Inten    --      0.6584                 0.9492                 1.3392

                     13                     14                     15
                      A                      A                      A
 Frequencies --    360.7552               402.6240               417.3808
 Red. masses --      2.4831                 2.1023                 2.2507
 Frc consts  --      0.1904                 0.2008                 0.2310
 IR Inten    --      2.2951                 1.8962                 2.7942

                     16                     17                     18
                      A                      A                      A
 Frequencies --    464.1018               468.4077               489.3548
 Red. masses --      3.0778                 2.2857                 3.1339
 Frc consts  --      0.3906                 0.2955                 0.4422
 IR Inten    --      0.0963                 1.8607                 0.8281

                     19                     20                     21
                      A                      A                      A
 Frequencies --    539.1803               562.9211               589.8866
 Red. masses --      3.0979                 1.7689                 1.1880
 Frc consts  --      0.5306                 0.3303                 0.2436
 IR Inten    --      1.6335                 0.2650                46.9043

                     22                     23                     24
                      A                      A                      A
 Frequencies --    633.6168               733.1062               775.4801
 Red. masses --      1.2226                 1.3207                 2.4821
 Frc consts  --      0.2892                 0.4182                 0.8794
 IR Inten    --     38.6693                82.4678                58.2424

                     25                     26                     27
                      A                      A                      A
 Frequencies --    825.8751               833.9945               856.6467
 Red. masses --      1.7647                 1.7028                 2.7487
 Frc consts  --      0.7092                 0.6978                 1.1884
 IR Inten    --      3.6272                 3.6982                13.9145

                     28                     29                     30
                      A                      A                      A
 Frequencies --    880.9757               883.0869               930.5735
 Red. masses --      1.5903                 2.0870                 2.2992
 Frc consts  --      0.7272                 0.9589                 1.1731
 IR Inten    --      2.8198                 2.2188                 3.1889

                     31                     32                     33
                      A                      A                      A
 Frequencies --    949.5568               991.5228               993.7405
 Red. masses --      2.5828                 1.7142                 1.4368
 Frc consts  --      1.3721                 0.9929                 0.8360
 IR Inten    --      5.1220                 2.6217                 4.1351

                     34                     35                     36
                      A                      A                      A
 Frequencies --    997.3547              1013.7656              1045.6081
 Red. masses --      2.4572                 1.7493                 2.0163
 Frc consts  --      1.4401                 1.0592                 1.2988
 IR Inten    --     12.7794                 9.8518                 4.0026

                     37                     38                     39
                      A                      A                      A
 Frequencies --   1063.6771              1077.4876              1100.5715
 Red. masses --      2.1019                 2.0564                 1.9087
 Frc consts  --      1.4012                 1.4067                 1.3621
 IR Inten    --      7.6628                 0.5166                 4.2605

                     40                     41                     42
                      A                      A                      A
 Frequencies --   1128.5909              1135.3132              1159.2573
 Red. masses --      2.2430                 2.5261                 2.1988
 Frc consts  --      1.6833                 1.9184                 1.7410
 IR Inten    --      7.8462                14.4744                10.4573

                     43                     44                     45
                      A                      A                      A
 Frequencies --   1172.0229              1191.0778              1194.6128
 Red. masses --      3.0412                 1.3716                 1.8762
 Frc consts  --      2.4613                 1.1465                 1.5776
 IR Inten    --     75.9546                 7.0742                21.0364

                     46                     47                     48
                      A                      A                      A
 Frequencies --   1235.3649              1250.4148              1264.6883
 Red. masses --      1.1803                 1.2769                 1.5401
 Frc consts  --      1.0613                 1.1763                 1.4514
 IR Inten    --      4.3994                 3.3507                 9.9823

                     49                     50                     51
                      A                      A                      A
 Frequencies --   1303.0611              1312.6366              1324.5774
 Red. masses --      1.2740                 1.1865                 1.2583
 Frc consts  --      1.2745                 1.2045                 1.3008
 IR Inten    --      8.0014                 5.1302                12.4096

                     52                     53                     54
                      A                      A                      A
 Frequencies --   1334.2771              1357.9289              1374.6660
 Red. masses --      1.1928                 1.3920                 1.2976
 Frc consts  --      1.2512                 1.5123                 1.4447
 IR Inten    --      7.9971                16.0664                 2.2085

                     55                     56                     57
                      A                      A                      A
 Frequencies --   1385.3605              1401.6123              1404.7537
 Red. masses --      1.3693                 1.3646                 1.4589
 Frc consts  --      1.5483                 1.5795                 1.6961
 IR Inten    --     28.4165                 8.1974                11.6704

                     58                     59                     60
                      A                      A                      A
 Frequencies --   1407.8240              1412.7458              1414.9260
 Red. masses --      1.4080                 1.3644                 1.2935
 Frc consts  --      1.6442                 1.6045                 1.5258
 IR Inten    --      1.3178                 2.4777                21.7622

                     61                     62                     63
                      A                      A                      A
 Frequencies --   1432.6666              1457.7628              1503.6901
 Red. masses --      1.4176                 1.4298                 1.0872
 Frc consts  --      1.7143                 1.7901                 1.4484
 IR Inten    --     14.2299                 2.1745                15.0070

                     64                     65                     66
                      A                      A                      A
 Frequencies --   1505.6079              1512.5177              1514.4140
 Red. masses --      1.0948                 1.1324                 1.0894
 Frc consts  --      1.4622                 1.5264                 1.4721
 IR Inten    --      2.9083                13.6518                 5.4805

                     67                     68                     69
                      A                      A                      A
 Frequencies --   1518.7588              1522.1296              1525.8085
 Red. masses --      1.1074                 1.1257                 1.0964
 Frc consts  --      1.5050                 1.5366                 1.5039
 IR Inten    --     20.7536                 5.4743                 2.9606

                     70                     71                     72
                      A                      A                      A
 Frequencies --   1530.3041              1534.0123              1544.8075
 Red. masses --      1.0808                 1.0963                 1.1016
 Frc consts  --      1.4912                 1.5200                 1.5489
 IR Inten    --      0.3057                 4.7122                 5.7690

                     73                     74                     75
                      A                      A                      A
 Frequencies --   2248.2617              2882.5928              2887.1947
 Red. masses --      5.9584                 1.0742                 1.0736
 Frc consts  --     17.7448                 5.2588                 5.2728
 IR Inten    --      0.1871                25.9797                38.0817

                     76                     77                     78
                      A                      A                      A
 Frequencies --   2902.9590              2944.9270              3027.5441
 Red. masses --      1.0725                 1.0726                 1.0668
 Frc consts  --      5.3252                 5.4807                 5.7611
 IR Inten    --    164.8469                51.1880                27.5883

                     79                     80                     81
                      A                      A                      A
 Frequencies --   3037.7091              3040.5103              3044.8476
 Red. masses --      1.0835                 1.0678                 1.0610
 Frc consts  --      5.8906                 5.8161                 5.7955
 IR Inten    --     11.9511                38.4288                26.7431

                     82                     83                     84
                      A                      A                      A
 Frequencies --   3045.5406              3052.1113              3068.8030
 Red. masses --      1.0621                 1.0656                 1.0841
 Frc consts  --      5.8044                 5.8483                 6.0154
 IR Inten    --     21.5934                23.3367                 7.0117

                     85                     86                     87
                      A                      A                      A
 Frequencies --   3074.6126              3079.7029              3085.4386
 Red. masses --      1.0861                 1.0933                 1.0993
 Frc consts  --      6.0493                 6.1097                 6.1659
 IR Inten    --     68.2873                62.2079                24.6100

                     88                     89                     90
                      A                      A                      A
 Frequencies --   3086.9722              3092.6828              3100.1971
 Red. masses --      1.1045                 1.1053                 1.0966
 Frc consts  --      6.2015                 6.2289                 6.2096
 IR Inten    --     24.8590                66.9458                80.5112

                     91                     92                     93
                      A                      A                      A
 Frequencies --   3114.5688              3496.6480              3510.4079
 Red. masses --      1.0878                 1.1609                 1.0740
 Frc consts  --      6.2172                 8.3628                 7.7976
 IR Inten    --     29.8935                56.6468                 0.2060

 - Thermochemistry -
 -------------------
 Temperature   298.150 Kelvin.  Pressure   1.00000 Atm.
 Atom     1 has atomic number  6 and mass  12.00000

 Molecular mass:   180.16265 amu.
 Principal axes and moments of inertia in atomic units:
                           1         2         3
     Eigenvalues --   980.337066352.045396616.75873
           X            0.99997   0.00393   0.00702
           Y           -0.00393   0.99999   0.00029
           Z           -0.00702  -0.00032   0.99998
 This molecule is an asymmetric top.
 Rotational symmetry number  1.
 Warning -- assumption of classical behavior for rotation
           may cause significant error
 Rotational temperatures (Kelvin)      0.08835     0.01364     0.01309
 Rotational constants (GHZ):           1.84094     0.28412     0.27275
 Zero-point vibrational energy     789678.1 (Joules/Mol)
                                  188.73761 (Kcal/Mol)
 Warning -- explicit consideration of  21 degrees of freedom as
           vibrations may cause significant error
 Vibrational temperatures:     27.21    61.00    88.22    95.15   178.01
          (Kelvin)            213.62   260.83   326.52   363.08   393.38
                              443.62   499.15   519.05   579.29   600.52
                              667.74   673.93   704.07   775.76   809.92
                              848.72   911.63  1054.78  1115.74  1188.25
                             1199.93  1232.52  1267.53  1270.57  1338.89
                             1366.20  1426.58  1429.77  1434.97  1458.58
                             1504.40  1530.39  1550.26  1583.48  1623.79
                             1633.46  1667.91  1686.28  1713.70  1718.78
                             1777.41  1799.07  1819.60  1874.81  1888.59
                             1905.77  1919.73  1953.76  1977.84  1993.22
                             2016.61  2021.13  2025.54  2032.63  2035.76
                             2061.29  2097.40  2163.47  2166.23  2176.18
                             2178.90  2185.16  2190.00  2195.30  2201.77
                             2207.10  2222.63  3234.75  4147.41  4154.03
                             4176.71  4237.09  4355.96  4370.59  4374.62
                             4380.86  4381.85  4391.31  4415.32  4423.68
                             4431.01  4439.26  4441.46  4449.68  4460.49
                             4481.17  5030.90  5050.69

 Zero-point correction=                           0.300773 (Hartree/Particle)
 Thermal correction to Energy=                    0.314674
 Thermal correction to Enthalpy=                  0.315618
 Thermal correction to Gibbs Free Energy=         0.258589
 Sum of electronic and zero-point Energies=           -540.376225
 Sum of electronic and thermal Energies=              -540.362324
 Sum of electronic and thermal Enthalpies=            -540.361380
 Sum of electronic and thermal Free Energies=         -540.418409

                     E (Thermal)             CV                S
                      KCal/Mol        Cal/Mol-Kelvin    Cal/Mol-Kelvin
 Total                  197.461             52.873            120.027
 Electronic               0.000              0.000              0.000
 Translational            0.889              2.981             41.473
 Rotational               0.889              2.981             32.088
 Vibrational            195.683             46.911             46.466
 Vibration     1          0.593              1.986              6.746
 Vibration     2          0.595              1.980              5.144
 Vibration     3          0.597              1.973              4.414
 Vibration     4          0.598              1.970              4.265
 Vibration     5          0.610              1.929              3.041
 Vibration     6          0.618              1.904              2.692
 Vibration     7          0.630              1.865              2.315
 Vibration     8          0.651              1.800              1.903
 Vibration     9          0.664              1.759              1.714
 Vibration    10          0.676              1.722              1.575
 Vibration    11          0.698              1.658              1.371
 Vibration    12          0.725              1.582              1.180
 Vibration    13          0.735              1.553              1.119
 Vibration    14          0.768              1.464              0.953
 Vibration    15          0.780              1.432              0.901
 Vibration    16          0.822              1.330              0.754
 Vibration    17          0.826              1.320              0.742
 Vibration    18          0.845              1.274              0.685
 Vibration    19          0.894              1.163              0.567
 Vibration    20          0.919              1.111              0.518
 Vibration    21          0.947              1.053              0.467

                           ! Non-Optimized Parameters !
 Normal termination of Gaussian 16 at Sun Dec 13 16:17:12 2020.

 ----------------------------------------------------------------------
 # B3LYP/6-311++G(d,p) empiricaldispersion=gd3bj scf=xqc pop=npa geom=c
 heck
 ----------------------------------------------------------------------

 --------------------------------------
 CID_60695968_JID_3652_Energie_neutraal
 --------------------------------------
 Structure from the checkpoint file:  "JID_3652.chk"
 Charge =  0 Multiplicity = 1

 SCF Done:  E(RB3LYP) =  -540.833381016     A.U. after   13 cycles
 Normal termination of Gaussian 16 at Sun Dec 13 16:21:01 2020.

 ----------------------------------------------------------------------
 # B3LYP/6-311++G(d,p) empiricaldispersion=gd3bj scf=xqc pop=npa geom=c
 heck
 ----------------------------------------------------------------------

 ------------------------------------
 CID_60695968_JID_3652_Energie_kation
 ------------------------------------
 Structure from the checkpoint file:  "JID_3652.chk"
 Charge =  1 Multiplicity = 2

 SCF Done:  E(UB3LYP) =  -540.546739090     A.U. after   21 cycles
 Normal termination of Gaussian 16 at Sun Dec 13 16:29:26 2020.
 Gaussian 16:  ES64L-G16RevA.03 25-Dec-2016

 ----------------------------------------------------------------------
 # B3LYP/6-311++G(d,p) empiricaldispersion=gd3bj scf=xqc pop=npa geom=c
 heck
 ----------------------------------------------------------------------

 -----------------------------------
 CID_60695968_JID_3652_Energie_anion
 -----------------------------------
 Structure from the checkpoint file:  "JID_3652.chk"
 Charge = -1 Multiplicity = 2

                         Standard orientation:
 ---------------------------------------------------------------------
 Center     Atomic      Atomic             Coordinates (Angstroms)
 Number     Number       Type             X           Y           Z
 ---------------------------------------------------------------------
      1          6           0       -5.353546    1.352379    0.921819
      2          6           0       -4.555684    0.661488    0.336923
      3          6           0       -3.563356   -0.141158   -0.379957
      4          7           0       -2.554027   -0.674233    0.535725
      5          6           0       -1.539479   -1.512443   -0.100499
      6          6           0       -0.701003   -0.875595   -1.230735
      7          6           0        0.106372    0.375707   -0.840649
      8          7           0        1.523360    0.123384   -0.585693
      9          6           0        2.244663    1.386026   -0.418605
     10          6           0        3.750520    1.157970   -0.282802
     11          6           0        4.049961    0.218276    0.889093
     12          6           0        3.236876   -1.070357    0.737590
     13          6           0        1.748499   -0.763972    0.554873
     14          1           0       -6.067213    1.946642    1.445308
     15          1           0       -4.059357   -0.995642   -0.861943
     16          1           0       -3.149485    0.471892   -1.202045
     17          1           0       -2.117882    0.095195    1.038672
     18          1           0       -0.885899   -1.870319    0.701754
     19          1           0       -2.050967   -2.397131   -0.503257
     20          1           0       -0.010855   -1.625116   -1.637255
     21          1           0       -1.373468   -0.615223   -2.056701
     22          1           0        0.061900    1.101710   -1.660053
     23          1           0       -0.372589    0.876195    0.028734
     24          1           0        1.877178    1.940692    0.471242
     25          1           0        2.036299    2.014364   -1.292489
     26          1           0        4.255185    2.122712   -0.150691
     27          1           0        4.124535    0.715616   -1.214926
     28          1           0        5.122342   -0.002845    0.948269
     29          1           0        3.773753    0.713748    1.831186
     30          1           0        3.588445   -1.624799   -0.141948
     31          1           0        3.368039   -1.721896    1.610001
     32          1           0        1.208802   -1.698826    0.383168
     33          1           0        1.342983   -0.320946    1.490444
 ---------------------------------------------------------------------

 SCF Done:  E(UB3LYP) =  -540.817475738     A.U. after   33 cycles
 SCF Done:  E(UB3LYP) =  -540.817475738     a.u. after    1 cycles

 The electronic state is 2-A.
 Alpha  occ. eigenvalues --  -14.21206 -14.20884 -10.12805 -10.10105 -10.09661
 Alpha  occ. eigenvalues --  -10.09631 -10.09387 -10.08784 -10.07601 -10.07130
 Alpha  occ. eigenvalues --  -10.07105 -10.07073 -10.06920  -0.83572  -0.82245
 Alpha  occ. eigenvalues --   -0.70933  -0.68742  -0.66052  -0.65432  -0.60892
 Alpha  occ. eigenvalues --   -0.57401  -0.53162  -0.52696  -0.48390  -0.45947
 Alpha  occ. eigenvalues --   -0.45311  -0.41547  -0.40669  -0.37944  -0.37188
 Alpha  occ. eigenvalues --   -0.36260  -0.35667  -0.34518  -0.33722  -0.32829
 Alpha  occ. eigenvalues --   -0.31879  -0.30514  -0.29818  -0.28711  -0.27149
 Alpha  occ. eigenvalues --   -0.25546  -0.25381  -0.24717  -0.23400  -0.22129
 Alpha  occ. eigenvalues --   -0.21561  -0.19250  -0.18790  -0.14214  -0.12533
 Alpha  occ. eigenvalues --    0.04329
 Alpha virt. eigenvalues --    0.05797   0.06468   0.06849   0.07645   0.08160
 Alpha virt. eigenvalues --    0.08414   0.09577   0.09995   0.10314   0.10509
 Alpha virt. eigenvalues --    0.10739   0.10766   0.11519   0.12011   0.12762

  Beta  occ. eigenvalues --  -14.21201 -14.20871 -10.12774 -10.10091 -10.09645
  Beta  occ. eigenvalues --  -10.09620 -10.09372 -10.08784 -10.07579 -10.07115
  Beta  occ. eigenvalues --  -10.07087 -10.07055 -10.06903  -0.83547  -0.82229
  Beta  occ. eigenvalues --   -0.70901  -0.68711  -0.66023  -0.65399  -0.60850
  Beta  occ. eigenvalues --   -0.57355  -0.53117  -0.52651  -0.48337  -0.45897
  Beta  occ. eigenvalues --   -0.45266  -0.41514  -0.40623  -0.37897  -0.37153
  Beta  occ. eigenvalues --   -0.36228  -0.35639  -0.34487  -0.33686  -0.32790
  Beta  occ. eigenvalues --   -0.31849  -0.30473  -0.29787  -0.28676  -0.27125
  Beta  occ. eigenvalues --   -0.25514  -0.25347  -0.24681  -0.23368  -0.22090
  Beta  occ. eigenvalues --   -0.21527  -0.19221  -0.18768  -0.14194  -0.12466
  Beta virt. eigenvalues --    0.06305   0.06660   0.07241   0.07537   0.07913
  Beta virt. eigenvalues --    0.08681   0.08977   0.09807   0.10327   0.10492
  Beta virt. eigenvalues --    0.10614   0.10826   0.11174   0.11752   0.12296

 Mulliken charges and spin densities:
               1          2
     1  C   -1.033660   0.369022
     2  C    3.118659  -2.320726
     3  C   -1.235142   0.459957
     4  N   -0.055209   0.041702
     5  C   -0.393620  -0.004260
     6  C    0.284329  -0.469042
     7  C   -0.123332  -0.266755
     8  N    0.083902   0.141291
     9  C    0.532968  -0.716024
    10  C    0.168548  -0.538792
    11  C   -0.362012   0.076676
    12  C    0.586337  -0.935564
    13  C   -0.207121  -0.149701
    14  H   -0.738408   0.897666
    15  H   -0.214350   0.393360
    16  H    0.043784   0.094797
    17  H    0.246622  -0.074248
    18  H   -0.106731   0.282685
    19  H   -0.196370   0.349427
    20  H   -0.046165   0.219681
    21  H   -0.317614   0.479990
    22  H   -0.263795   0.420786
    23  H   -0.027394   0.097312
    24  H    0.020436   0.089511
    25  H   -0.198526   0.348469
    26  H   -0.314412   0.474431
    27  H    0.103125   0.034283
    28  H   -0.423948   0.597308
    29  H    0.105422   0.009214
    30  H   -0.000590   0.139313
    31  H   -0.103194   0.252927
    32  H    0.128797   0.014749
    33  H   -0.061336   0.190554
 Sum of Mulliken charges =  -1.00000   1.00000

 Dipole moment (field-independent basis, Debye):
    X=              1.6244    Y=             -1.4030    Z=              0.8447  Tot=              2.3067
 Quadrupole moment (field-independent basis, Debye-Ang):
   XX=           -194.2703   YY=           -123.4475   ZZ=           -119.2318
   XY=              0.9974   XZ=              0.4086   YZ=              2.0832

 Summary of Natural Population Analysis:

                                       Natural Population
                Natural  -----------------------------------------------
    Atom  No    Charge         Core      Valence    Rydberg      Total
 -----------------------------------------------------------------------
      C    1   -0.12248      0.99927     2.11968    0.00353     3.12248
      C    2    0.00414      0.99936     1.98903    0.00746     2.99586
      C    3   -0.12958      0.99956     2.11876    0.01127     3.12958
      N    4   -0.33327      0.99975     2.82133    0.01219     3.83327
      C    5   -0.08711      0.99962     2.07573    0.01176     3.08711
      C    6   -0.21163      0.99962     2.20335    0.00866     3.21163
      C    7   -0.08389      0.99961     2.07168    0.01260     3.08389
      N    8   -0.27774      0.99970     2.76657    0.01146     3.77774
      C    9   -0.08368      0.99961     2.07188    0.01219     3.08368
      C   10   -0.19375      0.99962     2.18507    0.00905     3.19375
      C   11   -0.19029      0.99963     2.18232    0.00835     3.19029
      C   12   -0.19354      0.99963     2.18463    0.00928     3.19354
      C   13   -0.08378      0.99961     2.07481    0.00937     3.08378
      H   14    0.11088      0.00000     0.38755    0.00156     0.38912
      H   15    0.10751      0.00000     0.39074    0.00175     0.39249
      H   16    0.09779      0.00000     0.40000    0.00221     0.40221
      H   17    0.17281      0.00000     0.32370    0.00349     0.32719
      H   18    0.09440      0.00000     0.40426    0.00133     0.40560
      H   19    0.09251      0.00000     0.40623    0.00125     0.40749
      H   20    0.10592      0.00000     0.39259    0.00150     0.39408
      H   21    0.10070      0.00000     0.39773    0.00158     0.39930
      H   22    0.09922      0.00000     0.39916    0.00162     0.40078
      H   23    0.07345      0.00000     0.42455    0.00200     0.42655
      H   24    0.07679      0.00000     0.42162    0.00159     0.42321
      H   25    0.09850      0.00000     0.39999    0.00151     0.40150
      H   26    0.09957      0.00000     0.39928    0.00115     0.40043
      H   27    0.09642      0.00000     0.40195    0.00162     0.40358
      H   28    0.09998      0.00000     0.39867    0.00135     0.40002
      H   29    0.09236      0.00000     0.40631    0.00133     0.40764
      H   30    0.09661      0.00000     0.40185    0.00154     0.40339
      H   31    0.09851      0.00000     0.40056    0.00092     0.40149
      H   32    0.09645      0.00000     0.40170    0.00185     0.40355
      H   33    0.07619      0.00000     0.42216    0.00165     0.42381
 =======================================================================
   * Total *   -0.00000     12.99458    36.84545    0.15997    50.00000

 Normal termination of Gaussian 16 at Sun Dec 13 16:42:41 2020.
