 Gaussian 16, Revision A.03,

 -----------------------------------------------------------
 # opt freq B3LYP/6-31G(d) empiricaldispersion=gd3bj scf=xqc
 -----------------------------------------------------------

 -------------------------------
 CID_129248595_JID_2957_neutraal
 -------------------------------
 Symbolic Z-matrix:
 Charge =  0 Multiplicity = 1

 SCF Done:  E(RB3LYP) =  -593.114994032     A.U. after   15 cycles
 SCF Done:  E(RB3LYP) =  -593.119123564     A.U. after   12 cycles
 SCF Done:  E(RB3LYP) =  -593.119828508     A.U. after   11 cycles
 SCF Done:  E(RB3LYP) =  -593.120357527     A.U. after   12 cycles
 SCF Done:  E(RB3LYP) =  -593.120441334     A.U. after   11 cycles
 SCF Done:  E(RB3LYP) =  -593.120427039     A.U. after   11 cycles
 SCF Done:  E(RB3LYP) =  -593.120513181     A.U. after   10 cycles
 SCF Done:  E(RB3LYP) =  -593.120532540     A.U. after   10 cycles
 SCF Done:  E(RB3LYP) =  -593.120540425     A.U. after   10 cycles
 SCF Done:  E(RB3LYP) =  -593.120541801     A.U. after    8 cycles
 SCF Done:  E(RB3LYP) =  -593.120542259     A.U. after    8 cycles
 Optimization completed.
    -- Stationary point found.
 Normal termination of Gaussian 16 at Wed Dec  9 18:18:01 2020.

 --------------------------------------------------------------------
 #N Geom=AllCheck Guess=TCheck SCRF=Check GenChk RB3LYP/6-31G(d) Freq
 --------------------------------------------------------------------

 Structure from the checkpoint file:  "JID_2957.chk"
 -------------------------------
 CID_129248595_JID_2957_neutraal
 -------------------------------
 Charge =  0 Multiplicity = 1

 SCF Done:  E(RB3LYP) =  -593.120542259     A.U. after    1 cycles

  Exact polarizability: 141.819   9.240 103.947  -1.307  -0.226  66.030
 Approx polarizability: 191.541  30.046 154.427  -2.816  -1.147  97.722

                      1                      2                      3
                      A                      A                      A
 Frequencies --     45.7754                65.0307               109.6706
 Red. masses --      5.0607                 3.8127                 2.3103
 Frc consts  --      0.0062                 0.0095                 0.0164
 IR Inten    --      1.6497                 0.5672                 2.9114

                      4                      5                      6
                      A                      A                      A
 Frequencies --    132.8579               144.8895               154.0545
 Red. masses --      3.4991                 1.4065                 3.4618
 Frc consts  --      0.0364                 0.0174                 0.0484
 IR Inten    --      2.5583                 0.6140                10.7795

                      7                      8                      9
                      A                      A                      A
 Frequencies --    202.4587               250.9346               285.0623
 Red. masses --      3.1152                 3.3904                 2.8141
 Frc consts  --      0.0752                 0.1258                 0.1347
 IR Inten    --      2.1336                 8.1610                 3.4065

                     10                     11                     12
                      A                      A                      A
 Frequencies --    296.2482               312.9822               366.1305
 Red. masses --      4.5361                 2.5574                 4.7523
 Frc consts  --      0.2346                 0.1476                 0.3753
 IR Inten    --      7.1747                 1.9756                 8.3594

                     13                     14                     15
                      A                      A                      A
 Frequencies --    409.9464               493.6316               518.0128
 Red. masses --      3.2897                 4.2019                 2.1763
 Frc consts  --      0.3257                 0.6033                 0.3441
 IR Inten    --      3.3863                 4.1995                 2.7785

                     16                     17                     18
                      A                      A                      A
 Frequencies --    586.2260               688.3688               701.2532
 Red. masses --      1.9555                 1.7959                 2.6675
 Frc consts  --      0.3959                 0.5014                 0.7729
 IR Inten    --     15.5795                44.8966                13.2766

                     19                     20                     21
                      A                      A                      A
 Frequencies --    724.3014               746.1609               776.7255
 Red. masses --      3.6038                 2.4312                 3.4189
 Frc consts  --      1.1139                 0.7975                 1.2153
 IR Inten    --      0.6942                41.2735                 7.2088

                     22                     23                     24
                      A                      A                      A
 Frequencies --    806.9483               830.7023               883.4576
 Red. masses --      1.6468                 4.0444                 2.9574
 Frc consts  --      0.6318                 1.6443                 1.3600
 IR Inten    --     22.3353                13.3443                 0.5554

                     25                     26                     27
                      A                      A                      A
 Frequencies --    901.3724               980.8213              1023.5940
 Red. masses --      2.9130                 2.4471                 2.1107
 Frc consts  --      1.3944                 1.3870                 1.3030
 IR Inten    --     16.6592                30.0043                 4.5168

                     28                     29                     30
                      A                      A                      A
 Frequencies --   1034.3373              1083.4086              1089.2757
 Red. masses --      2.0800                 2.8572                 4.8028
 Frc consts  --      1.3111                 1.9760                 3.3575
 IR Inten    --     54.6265                37.4634                91.2624

                     31                     32                     33
                      A                      A                      A
 Frequencies --   1105.9368              1152.9908              1176.4167
 Red. masses --      2.2500                 2.7249                 3.1239
 Frc consts  --      1.6214                 2.1343                 2.5473
 IR Inten    --      7.6831                 4.3962                54.2324

                     34                     35                     36
                      A                      A                      A
 Frequencies --   1186.3640              1212.7051              1229.2715
 Red. masses --      1.2684                 1.7366                 2.2981
 Frc consts  --      1.0518                 1.5047                 2.0461
 IR Inten    --      0.9290               124.7365                95.7731

                     37                     38                     39
                      A                      A                      A
 Frequencies --   1244.8449              1269.7774              1295.2694
 Red. masses --      1.3690                 1.1161                 1.6625
 Frc consts  --      1.2499                 1.0602                 1.6433
 IR Inten    --     38.8065                16.2629               204.1758

                     40                     41                     42
                      A                      A                      A
 Frequencies --   1327.8921              1345.1481              1383.7053
 Red. masses --      1.2428                 1.1405                 1.4985
 Frc consts  --      1.2911                 1.2159                 1.6904
 IR Inten    --     92.6867                 7.2208                44.5110

                     43                     44                     45
                      A                      A                      A
 Frequencies --   1398.3792              1423.4251              1446.0448
 Red. masses --      1.3420                 1.3258                 1.3403
 Frc consts  --      1.5461                 1.5826                 1.6513
 IR Inten    --     30.6062                50.9788                 5.8819

                     46                     47                     48
                      A                      A                      A
 Frequencies --   1473.2026              1494.0608              1500.6163
 Red. masses --      1.5118                 1.1615                 1.2772
 Frc consts  --      1.9332                 1.5276                 1.6946
 IR Inten    --     67.9799                27.7032                17.9662

                     49                     50                     51
                      A                      A                      A
 Frequencies --   1509.4837              1523.7861              1530.6781
 Red. masses --      1.0491                 1.2825                 1.0922
 Frc consts  --      1.4084                 1.7545                 1.5077
 IR Inten    --      4.3717                 8.6404                 3.2970

                     52                     53                     54
                      A                      A                      A
 Frequencies --   1535.3071              1542.5550              1547.0143
 Red. masses --      1.1008                 1.6701                 1.1260
 Frc consts  --      1.5289                 2.3414                 1.5877
 IR Inten    --      3.4957                22.6938                 6.3728

                     55                     56                     57
                      A                      A                      A
 Frequencies --   1692.8241              1790.1591              2998.0784
 Red. masses --      2.9294                10.4975                 1.0719
 Frc consts  --      4.9459                19.8207                 5.6765
 IR Inten    --    418.0587               488.3286                32.0336

                     58                     59                     60
                      A                      A                      A
 Frequencies --   3009.7410              3017.3986              3055.9579
 Red. masses --      1.0729                 1.0696                 1.0676
 Frc consts  --      5.7260                 5.7380                 5.8742
 IR Inten    --     57.7943                61.8087                21.7148

                     61                     62                     63
                      A                      A                      A
 Frequencies --   3073.5348              3089.1998              3104.5834
 Red. masses --      1.0287                 1.0942                 1.0933
 Frc consts  --      5.7254                 6.1522                 6.2088
 IR Inten    --     43.8870                19.9171                52.6837

                     64                     65                     66
                      A                      A                      A
 Frequencies --   3105.7960              3122.9502              3148.7913
 Red. masses --      1.0943                 1.0937                 1.1074
 Frc consts  --      6.2194                 6.2845                 6.4690
 IR Inten    --     32.6653                15.7690                22.8950

                     67                     68                     69
                      A                      A                      A
 Frequencies --   3170.3840              3235.7030              3553.7312
 Red. masses --      1.1076                 1.0894                 1.0760
 Frc consts  --      6.5593                 6.7200                 8.0060
 IR Inten    --     18.7722                 2.5360                98.3107

 - Thermochemistry -
 -------------------
 Temperature   298.150 Kelvin.  Pressure   1.00000 Atm.
 Atom     1 has atomic number  6 and mass  12.00000

 Molecular mass:   171.08954 amu.
 Principal axes and moments of inertia in atomic units:
                           1         2         3
     Eigenvalues --   833.469063749.509544423.39744
           X            0.99987  -0.01602  -0.00213
           Y            0.01602   0.99987   0.00087
           Z            0.00211  -0.00091   1.00000
 This molecule is an asymmetric top.
 Rotational symmetry number  1.
 Warning -- assumption of classical behavior for rotation
           may cause significant error
 Rotational temperatures (Kelvin)      0.10392     0.02310     0.01958
 Rotational constants (GHZ):           2.16534     0.48133     0.40800
 Zero-point vibrational energy     560261.1 (Joules/Mol)
                                  133.90562 (Kcal/Mol)
 Warning -- explicit consideration of  16 degrees of freedom as
           vibrations may cause significant error
 Vibrational temperatures:     65.86    93.56   157.79   191.15   208.46
          (Kelvin)            221.65   291.29   361.04   410.14   426.24
                              450.31   526.78   589.82   710.23   745.30
                              843.45   990.41  1008.95  1042.11  1073.56
                             1117.53  1161.02  1195.20  1271.10  1296.87
                             1411.18  1472.72  1488.18  1558.78  1567.22
                             1591.20  1658.90  1692.60  1706.91  1744.81
                             1768.65  1791.05  1826.93  1863.60  1910.54
                             1935.37  1990.84  2011.96  2047.99  2080.54
                             2119.61  2149.62  2159.05  2171.81  2192.39
                             2202.30  2208.96  2219.39  2225.81  2435.60
                             2575.64  4313.57  4330.35  4341.36  4396.84
                             4422.13  4444.67  4466.80  4468.55  4493.23
                             4530.41  4561.48  4655.45  5113.03

 Zero-point correction=                           0.213392 (Hartree/Particle)
 Thermal correction to Energy=                    0.225284
 Thermal correction to Enthalpy=                  0.226228
 Thermal correction to Gibbs Free Energy=         0.174861
 Sum of electronic and zero-point Energies=           -592.907150
 Sum of electronic and thermal Energies=              -592.895258
 Sum of electronic and thermal Enthalpies=            -592.894314
 Sum of electronic and thermal Free Energies=         -592.945681

                     E (Thermal)             CV                S
                      KCal/Mol        Cal/Mol-Kelvin    Cal/Mol-Kelvin
 Total                  141.368             43.760            108.110
 Electronic               0.000              0.000              0.000
 Translational            0.889              2.981             41.319
 Rotational               0.889              2.981             31.003
 Vibrational            139.590             37.798             35.788
 Vibration     1          0.595              1.979              4.992
 Vibration     2          0.597              1.971              4.298
 Vibration     3          0.606              1.941              3.275
 Vibration     4          0.613              1.921              2.904
 Vibration     5          0.616              1.908              2.738
 Vibration     6          0.620              1.898              2.622
 Vibration     7          0.639              1.836              2.111
 Vibration     8          0.663              1.761              1.724
 Vibration     9          0.683              1.701              1.503
 Vibration    10          0.690              1.681              1.438
 Vibration    11          0.701              1.649              1.347
 Vibration    12          0.739              1.542              1.096
 Vibration    13          0.774              1.449              0.927
 Vibration    14          0.849              1.264              0.674
 Vibration    15          0.873              1.210              0.615
 Vibration    16          0.943              1.061              0.474

                           ! Non-Optimized Parameters !
 Normal termination of Gaussian 16 at Wed Dec  9 18:23:29 2020.

 ----------------------------------------------------------------------
 # B3LYP/6-311++G(d,p) empiricaldispersion=gd3bj scf=xqc pop=npa geom=c
 heck
 ----------------------------------------------------------------------

 ---------------------------------------
 CID_129248595_JID_2957_Energie_neutraal
 ---------------------------------------
 Structure from the checkpoint file:  "JID_2957.chk"
 Charge =  0 Multiplicity = 1

 SCF Done:  E(RB3LYP) =  -593.298306140     A.U. after   15 cycles
 Normal termination of Gaussian 16 at Wed Dec  9 18:26:06 2020.

 ----------------------------------------------------------------------
 # B3LYP/6-311++G(d,p) empiricaldispersion=gd3bj scf=xqc pop=npa geom=c
 heck
 ----------------------------------------------------------------------

 -------------------------------------
 CID_129248595_JID_2957_Energie_kation
 -------------------------------------
 Structure from the checkpoint file:  "JID_2957.chk"
 Charge =  1 Multiplicity = 2

 SCF Done:  E(UB3LYP) =  -593.006330470     A.U. after   22 cycles
 Normal termination of Gaussian 16 at Wed Dec  9 18:31:21 2020.
 Gaussian 16:  ES64L-G16RevA.03 25-Dec-2016

 ----------------------------------------------------------------------
 # B3LYP/6-311++G(d,p) empiricaldispersion=gd3bj scf=xqc pop=npa geom=c
 heck
 ----------------------------------------------------------------------

 ------------------------------------
 CID_129248595_JID_2957_Energie_anion
 ------------------------------------
 Structure from the checkpoint file:  "JID_2957.chk"
 Charge = -1 Multiplicity = 2

                         Standard orientation:
 ---------------------------------------------------------------------
 Center     Atomic      Atomic             Coordinates (Angstroms)
 Number     Number       Type             X           Y           Z
 ---------------------------------------------------------------------
      1          6           0       -3.645167    1.315670    0.173392
      2          8           0       -2.338262    0.743365    0.047658
      3          6           0       -2.315350   -0.637657   -0.039234
      4          8           0       -3.349333   -1.281473   -0.014557
      5          6           0       -0.983393   -1.199753   -0.150569
      6          6           0        0.228397   -0.557883   -0.179942
      7          6           0        1.478630   -1.406751   -0.301639
      8          6           0        2.624467   -1.028516    0.646481
      9          8           0        3.479243   -0.000489    0.167220
     10          6           0        2.840626    1.085915   -0.481268
     11          6           0        1.554122    1.566333    0.185924
     12          7           0        0.365301    0.799643   -0.166677
     13          1           0       -3.491412    2.394635    0.226794
     14          1           0       -4.139971    0.953653    1.078420
     15          1           0       -4.263083    1.058725   -0.690804
     16          1           0       -0.988119   -2.279202   -0.230489
     17          1           0        1.194856   -2.443395   -0.103606
     18          1           0        1.853826   -1.378730   -1.333081
     19          1           0        3.277922   -1.893491    0.791855
     20          1           0        2.212643   -0.760605    1.632044
     21          1           0        2.624767    0.849250   -1.534356
     22          1           0        3.574052    1.898111   -0.466200
     23          1           0        1.364323    2.591958   -0.147639
     24          1           0        1.712010    1.608048    1.275310
     25          1           0       -0.516085    1.288173   -0.052946
 ---------------------------------------------------------------------

 SCF Done:  E(UB3LYP) =  -593.289702748     A.U. after   33 cycles
 SCF Done:  E(UB3LYP) =  -593.289702748     a.u. after    1 cycles

 The electronic state is 2-A.
 Alpha  occ. eigenvalues --  -19.05005 -19.02071 -18.97719 -14.21897 -10.16917
 Alpha  occ. eigenvalues --  -10.11866 -10.11747 -10.11325 -10.11302 -10.09986
 Alpha  occ. eigenvalues --  -10.07720 -10.04035  -0.98168  -0.93540  -0.89192
 Alpha  occ. eigenvalues --   -0.83272  -0.70071  -0.65014  -0.63008  -0.60893
 Alpha  occ. eigenvalues --   -0.55836  -0.48695  -0.47637  -0.46016  -0.42464
 Alpha  occ. eigenvalues --   -0.40555  -0.38993  -0.37041  -0.36847  -0.34933
 Alpha  occ. eigenvalues --   -0.34366  -0.32789  -0.31690  -0.30568  -0.29835
 Alpha  occ. eigenvalues --   -0.28661  -0.28228  -0.27671  -0.26508  -0.23565
 Alpha  occ. eigenvalues --   -0.21383  -0.20527  -0.19396  -0.15943  -0.15599
 Alpha  occ. eigenvalues --   -0.10218   0.04447
 Alpha virt. eigenvalues --    0.06874   0.07664   0.08012   0.08519   0.09630
 Alpha virt. eigenvalues --    0.10041   0.10797   0.11302   0.11593   0.12046
 Alpha virt. eigenvalues --    0.12762   0.13997   0.14443   0.15712   0.16125

  Beta  occ. eigenvalues --  -19.04981 -19.02069 -18.97631 -14.21885 -10.16848
  Beta  occ. eigenvalues --  -10.11849 -10.11709 -10.11272 -10.11177 -10.09933
  Beta  occ. eigenvalues --  -10.07714 -10.04036  -0.98083  -0.93528  -0.89062
  Beta  occ. eigenvalues --   -0.83153  -0.69943  -0.64924  -0.62943  -0.60803
  Beta  occ. eigenvalues --   -0.55727  -0.48578  -0.47501  -0.45940  -0.42386
  Beta  occ. eigenvalues --   -0.40483  -0.38924  -0.36923  -0.36784  -0.34868
  Beta  occ. eigenvalues --   -0.34291  -0.32685  -0.31621  -0.30456  -0.29690
  Beta  occ. eigenvalues --   -0.28577  -0.28061  -0.27535  -0.26441  -0.23492
  Beta  occ. eigenvalues --   -0.21322  -0.20227  -0.19159  -0.15860  -0.15569
  Beta  occ. eigenvalues --   -0.09943
  Beta virt. eigenvalues --    0.07018   0.07514   0.08511   0.08914   0.09207
  Beta virt. eigenvalues --    0.09990   0.10494   0.11240   0.11464   0.11868
  Beta virt. eigenvalues --    0.12478   0.12864   0.14148   0.14836   0.15909

 Mulliken charges and spin densities:
               1          2
     1  C    0.181606  -0.441521
     2  O   -0.273657   0.026979
     3  C   -0.492282   0.238906
     4  O   -0.347522   0.032119
     5  C    1.501253  -1.851035
     6  C   -0.571274   1.202690
     7  C   -0.220681  -0.147349
     8  C    0.491832  -0.929458
     9  O   -0.202270   0.075210
    10  C    0.194332  -0.500406
    11  C    0.810788  -1.053033
    12  N   -0.481419   0.314646
    13  H   -0.269171   0.401919
    14  H    0.091217   0.077296
    15  H    0.064777   0.109932
    16  H    0.076089   0.097345
    17  H    0.118796   0.024143
    18  H   -0.144801   0.345064
    19  H   -0.223108   0.405329
    20  H   -0.060675   0.202300
    21  H   -0.091993   0.233503
    22  H   -0.509647   0.715944
    23  H   -0.796179   0.961338
    24  H   -0.179193   0.368132
    25  H    0.333180   0.090006
 Sum of Mulliken charges =  -1.00000   1.00000

 Dipole moment (field-independent basis, Debye):
    X=             -1.7641    Y=             -2.8136    Z=              0.5337  Tot=              3.3635
 Quadrupole moment (field-independent basis, Debye-Ang):
   XX=           -136.4619   YY=           -116.6905   ZZ=            -94.6325
   XY=            -11.8966   XZ=             -1.0421   YZ=              0.7936

 Summary of Natural Population Analysis:

                                       Natural Population
                Natural  -----------------------------------------------
    Atom  No    Charge         Core      Valence    Rydberg      Total
 -----------------------------------------------------------------------
      C    1   -0.10297      0.99960     2.09369    0.00969     3.10297
      O    2   -0.30121      0.99987     3.29213    0.00920     4.30121
      C    3    0.39324      0.99962     1.58404    0.02310     2.60676
      O    4   -0.31942      0.99988     3.31428    0.00527     4.31942
      C    5   -0.22464      0.99946     2.21483    0.01035     3.22464
      C    6    0.16450      0.99951     1.82388    0.01211     2.83550
      C    7   -0.22540      0.99959     2.21862    0.00719     3.22540
      C    8   -0.00650      0.99958     1.99533    0.01159     3.00650
      O    9   -0.30244      0.99989     3.29218    0.01037     4.30244
      C   10   -0.01691      0.99957     2.00331    0.01403     3.01691
      C   11   -0.10204      0.99961     2.09116    0.01127     3.10204
      N   12   -0.30751      0.99965     2.79690    0.01096     3.80751
      H   13    0.08978      0.00000     0.40905    0.00117     0.41022
      H   14    0.08814      0.00000     0.41091    0.00095     0.41186
      H   15    0.08948      0.00000     0.40952    0.00100     0.41052
      H   16    0.10431      0.00000     0.39472    0.00096     0.39569
      H   17    0.10899      0.00000     0.38978    0.00123     0.39101
      H   18    0.11159      0.00000     0.38670    0.00171     0.38841
      H   19    0.09193      0.00000     0.40633    0.00175     0.40807
      H   20    0.08037      0.00000     0.41770    0.00192     0.41963
      H   21    0.08210      0.00000     0.41593    0.00197     0.41790
      H   22    0.09655      0.00000     0.40141    0.00203     0.40345
      H   23    0.10792      0.00000     0.38768    0.00440     0.39208
      H   24    0.09195      0.00000     0.40576    0.00229     0.40805
      H   25    0.20818      0.00000     0.28886    0.00296     0.29182
 =======================================================================
   * Total *   -0.00000     11.99581    33.84472    0.15947    46.00000

 Normal termination of Gaussian 16 at Wed Dec  9 18:39:10 2020.
