 Gaussian 16, Revision A.03,

 -----------------------------------------------------------
 # opt freq B3LYP/6-31G(d) empiricaldispersion=gd3bj scf=xqc
 -----------------------------------------------------------

 -------------------------------
 CID_152963998_JID_4060_neutraal
 -------------------------------
 Symbolic Z-matrix:
 Charge =  0 Multiplicity = 1

 SCF Done:  E(RB3LYP) =  -594.880844819     A.U. after   14 cycles
 SCF Done:  E(RB3LYP) =  -594.886923187     A.U. after   12 cycles
 SCF Done:  E(RB3LYP) =  -594.884534597     A.U. after   14 cycles
 SCF Done:  E(RB3LYP) =  -594.888608468     A.U. after   11 cycles
 SCF Done:  E(RB3LYP) =  -594.890143416     A.U. after   12 cycles
 SCF Done:  E(RB3LYP) =  -594.890500539     A.U. after   14 cycles
 SCF Done:  E(RB3LYP) =  -594.892168323     A.U. after   12 cycles
 SCF Done:  E(RB3LYP) =  -594.893535407     A.U. after   12 cycles
 SCF Done:  E(RB3LYP) =  -594.895035653     A.U. after   14 cycles
 SCF Done:  E(RB3LYP) =  -594.896110906     A.U. after   12 cycles
 SCF Done:  E(RB3LYP) =  -594.904673073     A.U. after   10 cycles
 SCF Done:  E(RB3LYP) =  -594.904673816     A.U. after    8 cycles
 SCF Done:  E(RB3LYP) =  -594.904673680     A.U. after    9 cycles
 SCF Done:  E(RB3LYP) =  -594.904673861     A.U. after    7 cycles
 SCF Done:  E(RB3LYP) =  -594.904673916     A.U. after    7 cycles
 Optimization completed.
    -- Stationary point found.
 Normal termination of Gaussian 16 at Thu Dec 10 09:32:38 2020.

 --------------------------------------------------------------------
 #N Geom=AllCheck Guess=TCheck SCRF=Check GenChk RB3LYP/6-31G(d) Freq
 --------------------------------------------------------------------

 Structure from the checkpoint file:  "JID_4060.chk"
 -------------------------------
 CID_152963998_JID_4060_neutraal
 -------------------------------
 Charge =  0 Multiplicity = 1

 SCF Done:  E(RB3LYP) =  -594.904673916     A.U. after    1 cycles

  Exact polarizability: 169.177  17.979 106.937  -6.100   9.141 119.409
 Approx polarizability: 233.064  32.600 156.755 -12.278  18.546 202.987

                      1                      2                      3
                      A                      A                      A
 Frequencies --     37.4893                40.7437                82.5075
 Red. masses --      3.5707                 3.4054                 3.7046
 Frc consts  --      0.0030                 0.0033                 0.0149
 IR Inten    --      0.0600                 0.2318                 0.9256

                      4                      5                      6
                      A                      A                      A
 Frequencies --     87.1003               153.2542               189.1157
 Red. masses --      3.6486                 1.7766                 2.1424
 Frc consts  --      0.0163                 0.0246                 0.0451
 IR Inten    --      1.1423                 0.1923                 0.9960

                      7                      8                      9
                      A                      A                      A
 Frequencies --    197.3009               219.0408               252.1989
 Red. masses --      3.2623                 3.1610                 1.0472
 Frc consts  --      0.0748                 0.0894                 0.0392
 IR Inten    --      1.4495                 1.9726                 0.1015

                     10                     11                     12
                      A                      A                      A
 Frequencies --    267.2846               269.8996               289.8149
 Red. masses --      2.4612                 1.4587                 1.1264
 Frc consts  --      0.1036                 0.0626                 0.0557
 IR Inten    --      3.3616                 0.7418                 0.7959

                     13                     14                     15
                      A                      A                      A
 Frequencies --    320.2958               342.7691               361.2506
 Red. masses --      2.6040                 3.3369                 2.4592
 Frc consts  --      0.1574                 0.2310                 0.1891
 IR Inten    --      0.2451                 1.2681                 1.7762

                     16                     17                     18
                      A                      A                      A
 Frequencies --    423.2278               438.4739               462.4999
 Red. masses --      3.7123                 2.5388                 3.1001
 Frc consts  --      0.3918                 0.2876                 0.3907
 IR Inten    --      2.4392                 7.2210                 4.4824

                     19                     20                     21
                      A                      A                      A
 Frequencies --    486.5111               529.4982               575.5498
 Red. masses --      2.6103                 2.4553                 3.0491
 Frc consts  --      0.3640                 0.4056                 0.5951
 IR Inten    --      6.2468                12.0450                26.2998

                     22                     23                     24
                      A                      A                      A
 Frequencies --    606.1996               641.4795               655.0641
 Red. masses --      3.2002                 3.9278                 2.1009
 Frc consts  --      0.6929                 0.9523                 0.5312
 IR Inten    --     12.5045                36.3300                64.9841

                     25                     26                     27
                      A                      A                      A
 Frequencies --    754.8919               761.2972               778.3102
 Red. masses --      1.3809                 1.8779                 2.6208
 Frc consts  --      0.4637                 0.6413                 0.9354
 IR Inten    --     15.6664                 8.3013                24.4386

                     28                     29                     30
                      A                      A                      A
 Frequencies --    788.2408               837.1676               869.2586
 Red. masses --      1.9356                 2.2053                 1.7113
 Frc consts  --      0.7086                 0.9106                 0.7618
 IR Inten    --     36.3604                52.1661                 1.2009

                     31                     32                     33
                      A                      A                      A
 Frequencies --    883.8585               891.7705               929.2318
 Red. masses --      1.6279                 1.8712                 1.7012
 Frc consts  --      0.7493                 0.8768                 0.8655
 IR Inten    --     10.8143                19.0703                 8.8831

                     34                     35                     36
                      A                      A                      A
 Frequencies --    935.3442               954.6448               969.3527
 Red. masses --      1.6772                 1.5443                 1.3745
 Frc consts  --      0.8646                 0.8292                 0.7610
 IR Inten    --      1.4879                 5.3138                 0.3945

                     37                     38                     39
                      A                      A                      A
 Frequencies --    985.8357               996.6655              1005.3566
 Red. masses --      1.7146                 1.2609                 6.4349
 Frc consts  --      0.9818                 0.7379                 3.8321
 IR Inten    --      7.4113                 0.5036                 8.7265

                     40                     41                     42
                      A                      A                      A
 Frequencies --   1032.2234              1064.1920              1071.5588
 Red. masses --      1.3002                 2.4940                 2.1471
 Frc consts  --      0.8162                 1.6641                 1.4525
 IR Inten    --      2.2429                 0.9078                 4.0548

                     43                     44                     45
                      A                      A                      A
 Frequencies --   1110.4327              1117.5969              1122.5510
 Red. masses --      1.5252                 2.0724                 1.5619
 Frc consts  --      1.1081                 1.5251                 1.1596
 IR Inten    --      2.9855                 0.8713                 1.5320

                     46                     47                     48
                      A                      A                      A
 Frequencies --   1176.7735              1177.9082              1223.9391
 Red. masses --      3.0152                 1.1126                 2.8501
 Frc consts  --      2.4601                 0.9095                 2.5155
 IR Inten    --      4.6111                 7.3676                15.3293

                     49                     50                     51
                      A                      A                      A
 Frequencies --   1235.7529              1277.7448              1306.8583
 Red. masses --      2.3220                 2.4684                 1.9796
 Frc consts  --      2.0892                 2.3744                 1.9920
 IR Inten    --     23.0209                 7.4662                 5.5434

                     52                     53                     54
                      A                      A                      A
 Frequencies --   1311.1783              1335.4195              1347.7852
 Red. masses --      1.4033                 2.3373                 1.4153
 Frc consts  --      1.4215                 2.4558                 1.5147
 IR Inten    --      8.0555                18.2111                 4.3669

                     55                     56                     57
                      A                      A                      A
 Frequencies --   1353.1134              1366.3931              1420.0265
 Red. masses --      1.9535                 1.3348                 1.4587
 Frc consts  --      2.1074                 1.4684                 1.7330
 IR Inten    --     22.9369                 1.7972                 2.6952

                     58                     59                     60
                      A                      A                      A
 Frequencies --   1425.1160              1440.5171              1446.1572
 Red. masses --      1.2737                 1.2443                 1.2427
 Frc consts  --      1.5241                 1.5212                 1.5313
 IR Inten    --     12.2414                 3.6009                 6.8804

                     61                     62                     63
                      A                      A                      A
 Frequencies --   1464.6707              1495.4678              1510.3991
 Red. masses --      1.4994                 2.1036                 1.1259
 Frc consts  --      1.8951                 2.7718                 1.5133
 IR Inten    --      9.6727               113.0298                 8.2712

                     64                     65                     66
                      A                      A                      A
 Frequencies --   1513.2354              1514.2824              1521.5724
 Red. masses --      1.1367                 1.1046                 1.1579
 Frc consts  --      1.5335                 1.4923                 1.5795
 IR Inten    --      3.9996                 1.8484                 9.0201

                     67                     68                     69
                      A                      A                      A
 Frequencies --   1527.2800              1530.3476              1536.3222
 Red. masses --      1.0457                 1.0428                 1.0972
 Frc consts  --      1.4371                 1.4388                 1.5259
 IR Inten    --      0.7143                 5.1172                11.1069

                     70                     71                     72
                      A                      A                      A
 Frequencies --   1545.5230              1548.0239              1576.8791
 Red. masses --      1.1300                 1.1309                 1.6652
 Frc consts  --      1.5903                 1.5967                 2.4396
 IR Inten    --     13.4785                12.5319                69.8654

                     73                     74                     75
                      A                      A                      A
 Frequencies --   1635.6940              1662.2763              3035.4886
 Red. masses --      4.8997                 5.5169                 1.0629
 Frc consts  --      7.7237                 8.9815                 5.7702
 IR Inten    --     39.0625               197.0702                14.2251

                     76                     77                     78
                      A                      A                      A
 Frequencies --   3041.2643              3042.5278              3044.4399
 Red. masses --      1.0390                 1.0419                 1.0605
 Frc consts  --      5.6619                 5.6824                 5.7912
 IR Inten    --     38.5664                11.9257                24.1210

                     79                     80                     81
                      A                      A                      A
 Frequencies --   3049.7697              3090.6444              3099.2037
 Red. masses --      1.0456                 1.0933                 1.0986
 Frc consts  --      5.7298                 6.1531                 6.2170
 IR Inten    --     41.5041                22.9013                13.2519

                     82                     83                     84
                      A                      A                      A
 Frequencies --   3107.9820              3113.5251              3116.4539
 Red. masses --      1.0996                 1.0992                 1.1013
 Frc consts  --      6.2583                 6.2784                 6.3021
 IR Inten    --      3.2127                46.0575                39.6596

                     85                     86                     87
                      A                      A                      A
 Frequencies --   3119.2258              3129.1133              3135.7260
 Red. masses --      1.1010                 1.0962                 1.1033
 Frc consts  --      6.3117                 6.3236                 6.3915
 IR Inten    --     22.4936                47.1356                32.2667

                     88                     89                     90
                      A                      A                      A
 Frequencies --   3168.0343              3190.6227              3219.1056
 Red. masses --      1.0891                 1.0891                 1.0953
 Frc consts  --      6.4405                 6.5321                 6.6874
 IR Inten    --     31.2874                15.9466                22.2015

                     91                     92                     93
                      A                      A                      A
 Frequencies --   3244.5568              3478.6494              3494.4429
 Red. masses --      1.0926                 1.0750                 1.0740
 Frc consts  --      6.7769                 7.6647                 7.7270
 IR Inten    --      1.7710                 2.5016                11.0291

 - Thermochemistry -
 -------------------
 Temperature   298.150 Kelvin.  Pressure   1.00000 Atm.
 Atom     1 has atomic number  6 and mass  12.00000

 Molecular mass:   193.15790 amu.
 Principal axes and moments of inertia in atomic units:
                           1         2         3
     Eigenvalues --  1635.613443783.283374286.92135
           X            0.99990   0.01277  -0.00546
           Y           -0.01269   0.99979   0.01600
           Z            0.00566  -0.01593   0.99986
 This molecule is an asymmetric top.
 Rotational symmetry number  1.
 Warning -- assumption of classical behavior for rotation
           may cause significant error
 Rotational temperatures (Kelvin)      0.05296     0.02289     0.02020
 Rotational constants (GHZ):           1.10340     0.47703     0.42099
 Zero-point vibrational energy     772403.5 (Joules/Mol)
                                  184.60887 (Kcal/Mol)
 Warning -- explicit consideration of  22 degrees of freedom as
           vibrations may cause significant error
 Vibrational temperatures:     53.94    58.62   118.71   125.32   220.50
          (Kelvin)            272.10   283.87   315.15   362.86   384.56
                              388.33   416.98   460.83   493.17   519.76
                              608.93   630.87   665.43   699.98   761.83
                              828.09   872.19   922.95   942.49  1086.12
                             1095.34  1119.81  1134.10  1204.50  1250.67
                             1271.68  1283.06  1336.96  1345.75  1373.52
                             1394.68  1418.40  1433.98  1446.48  1485.14
                             1531.13  1541.73  1597.67  1607.97  1615.10
                             1693.11  1694.75  1760.98  1777.97  1838.39
                             1880.28  1886.49  1921.37  1939.16  1946.83
                             1965.93  2043.10  2050.42  2072.58  2080.70
                             2107.33  2151.64  2173.13  2177.21  2178.71
                             2189.20  2197.42  2201.83  2210.43  2223.66
                             2227.26  2268.78  2353.40  2391.64  4367.39
                             4375.70  4377.52  4380.27  4387.94  4446.75
                             4459.06  4471.69  4479.67  4483.88  4487.87
                             4502.10  4511.61  4558.09  4590.59  4631.58
                             4668.19  5005.00  5027.72

 Zero-point correction=                           0.294193 (Hartree/Particle)
 Thermal correction to Energy=                    0.308653
 Thermal correction to Enthalpy=                  0.309597
 Thermal correction to Gibbs Free Energy=         0.252963
 Sum of electronic and zero-point Energies=           -594.610481
 Sum of electronic and thermal Energies=              -594.596021
 Sum of electronic and thermal Enthalpies=            -594.595077
 Sum of electronic and thermal Free Energies=         -594.651711

                     E (Thermal)             CV                S
                      KCal/Mol        Cal/Mol-Kelvin    Cal/Mol-Kelvin
 Total                  193.682             56.203            119.195
 Electronic               0.000              0.000              0.000
 Translational            0.889              2.981             41.680
 Rotational               0.889              2.981             31.651
 Vibrational            191.905             50.242             45.864
 Vibration     1          0.594              1.982              5.388
 Vibration     2          0.594              1.981              5.223
 Vibration     3          0.600              1.961              3.830
 Vibration     4          0.601              1.958              3.724
 Vibration     5          0.619              1.899              2.631
 Vibration     6          0.633              1.855              2.236
 Vibration     7          0.637              1.844              2.158
 Vibration     8          0.647              1.812              1.967
 Vibration     9          0.664              1.759              1.715
 Vibration    10          0.672              1.733              1.614
 Vibration    11          0.674              1.729              1.597
 Vibration    12          0.686              1.693              1.475
 Vibration    13          0.706              1.635              1.309
 Vibration    14          0.722              1.590              1.199
 Vibration    15          0.735              1.552              1.117
 Vibration    16          0.785              1.420              0.881
 Vibration    17          0.799              1.386              0.831
 Vibration    18          0.820              1.333              0.759
 Vibration    19          0.843              1.280              0.693
 Vibration    20          0.884              1.185              0.588
 Vibration    21          0.932              1.084              0.494
 Vibration    22          0.965              1.019              0.439

 Optimization completed.
    -- Stationary point found.
 Normal termination of Gaussian 16 at Thu Dec 10 09:42:33 2020.

 ----------------------------------------------------------------------
 # B3LYP/6-311++G(d,p) empiricaldispersion=gd3bj scf=xqc pop=npa geom=c
 heck
 ----------------------------------------------------------------------

 ---------------------------------------
 CID_152963998_JID_4060_Energie_neutraal
 ---------------------------------------
 Structure from the checkpoint file:  "JID_4060.chk"
 Charge =  0 Multiplicity = 1

 SCF Done:  E(RB3LYP) =  -595.071822087     A.U. after   15 cycles
 Normal termination of Gaussian 16 at Thu Dec 10 09:46:46 2020.

 ----------------------------------------------------------------------
 # B3LYP/6-311++G(d,p) empiricaldispersion=gd3bj scf=xqc pop=npa geom=c
 heck
 ----------------------------------------------------------------------

 -------------------------------------
 CID_152963998_JID_4060_Energie_kation
 -------------------------------------
 Structure from the checkpoint file:  "JID_4060.chk"
 Charge =  1 Multiplicity = 2

 SCF Done:  E(UB3LYP) =  -594.788129922     A.U. after   21 cycles
 Normal termination of Gaussian 16 at Thu Dec 10 09:55:13 2020.
 Gaussian 16:  ES64L-G16RevA.03 25-Dec-2016

 ----------------------------------------------------------------------
 # B3LYP/6-311++G(d,p) empiricaldispersion=gd3bj scf=xqc pop=npa geom=c
 heck
 ----------------------------------------------------------------------

 ------------------------------------
 CID_152963998_JID_4060_Energie_anion
 ------------------------------------
 Structure from the checkpoint file:  "JID_4060.chk"
 Charge = -1 Multiplicity = 2

                         Standard orientation:
 ---------------------------------------------------------------------
 Center     Atomic      Atomic             Coordinates (Angstroms)
 Number     Number       Type             X           Y           Z
 ---------------------------------------------------------------------
      1          6           0        0.153830    2.871131   -0.456929
      2          6           0       -0.762782    1.892669    0.281714
      3          6           0       -1.448873    0.924701   -0.695647
      4          6           0       -2.176923   -0.312350   -0.112685
      5          6           0       -2.907405    0.015917    1.201399
      6          6           0       -3.189146   -0.825584   -1.146615
      7          7           0       -1.212031   -1.436057    0.045984
      8          7           0       -0.152136   -1.238659    0.942073
      9          6           0        1.079178   -0.846357    0.436463
     10          6           0        1.474287   -1.138307   -0.882453
     11          6           0        2.732124   -0.720484   -1.289147
     12          6           0        3.563502   -0.040259   -0.391228
     13          6           0        3.075043    0.187563    0.891287
     14          7           0        1.861012   -0.192705    1.308464
     15          1           0        0.972456    2.332403   -0.948438
     16          1           0        0.598029    3.597668    0.232214
     17          1           0       -0.392346    3.428995   -1.228081
     18          1           0       -0.164855    1.357350    1.023631
     19          1           0       -1.525781    2.450568    0.840024
     20          1           0       -2.184225    1.502837   -1.271449
     21          1           0       -0.715946    0.555694   -1.422020
     22          1           0       -3.611506    0.843556    1.060785
     23          1           0       -3.476263   -0.853383    1.553304
     24          1           0       -2.215227    0.315337    1.995201
     25          1           0       -2.693909   -1.016175   -2.103833
     26          1           0       -3.657858   -1.760097   -0.812488
     27          1           0       -3.985848   -0.091150   -1.302120
     28          1           0       -1.716145   -2.268954    0.344824
     29          1           0       -0.359031   -0.800535    1.837337
     30          1           0        0.794044   -1.665952   -1.538610
     31          1           0        3.067503   -0.924859   -2.302602
     32          1           0        4.551861    0.302756   -0.677937
     33          1           0        3.680123    0.714057    1.627673
 ---------------------------------------------------------------------

 SCF Done:  E(UB3LYP) =  -595.057106957     A.U. after   33 cycles
 SCF Done:  E(UB3LYP) =  -595.057108081     a.u. after    3 cycles

 The electronic state is 2-A.
 Alpha  occ. eigenvalues --  -14.25023 -14.23464 -14.20960 -10.14643 -10.11304
 Alpha  occ. eigenvalues --  -10.11272 -10.09383 -10.07777 -10.07724 -10.06279
 Alpha  occ. eigenvalues --  -10.06236 -10.06080 -10.05922 -10.05896  -0.90666
 Alpha  occ. eigenvalues --   -0.84521  -0.74833  -0.70748  -0.69121  -0.66086
 Alpha  occ. eigenvalues --   -0.62746  -0.59288  -0.58084  -0.54190  -0.52131
 Alpha  occ. eigenvalues --   -0.49949  -0.46461  -0.44181  -0.42932  -0.39469
 Alpha  occ. eigenvalues --   -0.38643  -0.37401  -0.35131  -0.34867  -0.34640
 Alpha  occ. eigenvalues --   -0.32649  -0.31478  -0.30848  -0.30324  -0.29222
 Alpha  occ. eigenvalues --   -0.28847  -0.27768  -0.27552  -0.26882  -0.25804
 Alpha  occ. eigenvalues --   -0.23769  -0.22970  -0.21947  -0.20835  -0.18988
 Alpha  occ. eigenvalues --   -0.17291  -0.15433  -0.12225   0.04359
 Alpha virt. eigenvalues --    0.05926   0.06407   0.07127   0.07507   0.08335
 Alpha virt. eigenvalues --    0.08595   0.08628   0.09207   0.10123   0.10383
 Alpha virt. eigenvalues --    0.10777   0.11319   0.11949   0.12611   0.13203

  Beta  occ. eigenvalues --  -14.25016 -14.23442 -14.20956 -10.14642 -10.11301
  Beta  occ. eigenvalues --  -10.11266 -10.09366 -10.07770 -10.07713 -10.06262
  Beta  occ. eigenvalues --  -10.06225 -10.06038 -10.05884 -10.05882  -0.90648
  Beta  occ. eigenvalues --   -0.84506  -0.74810  -0.70722  -0.69095  -0.66060
  Beta  occ. eigenvalues --   -0.62709  -0.59217  -0.58037  -0.54160  -0.52103
  Beta  occ. eigenvalues --   -0.49897  -0.46414  -0.44149  -0.42887  -0.39432
  Beta  occ. eigenvalues --   -0.38608  -0.37376  -0.35105  -0.34844  -0.34616
  Beta  occ. eigenvalues --   -0.32600  -0.31458  -0.30813  -0.30285  -0.29183
  Beta  occ. eigenvalues --   -0.28810  -0.27737  -0.27529  -0.26841  -0.25768
  Beta  occ. eigenvalues --   -0.23750  -0.22937  -0.21911  -0.20814  -0.18963
  Beta  occ. eigenvalues --   -0.17279  -0.15407  -0.12211
  Beta virt. eigenvalues --    0.06403   0.06447   0.07084   0.07697   0.08149
  Beta virt. eigenvalues --    0.08600   0.08909   0.09231   0.09686   0.10422
  Beta virt. eigenvalues --    0.10808   0.11241   0.11699   0.12425   0.12860

 Mulliken charges and spin densities:
               1          2
     1  C    0.526083  -1.218989
     2  C   -1.590526   1.424750
     3  C    1.834251  -2.015596
     4  C   -2.112650   1.936569
     5  C    1.068002  -1.752549
     6  C    0.929172  -1.247114
     7  N    0.111009  -0.124373
     8  N   -0.136196   0.168138
     9  C    0.560612  -1.106991
    10  C   -0.633772   0.900116
    11  C    0.290214  -0.640429
    12  C    0.241228  -0.341522
    13  C   -0.113087  -0.147532
    14  N   -0.126254   0.089612
    15  H    0.121804   0.022876
    16  H   -0.063932   0.195562
    17  H   -0.097015   0.225333
    18  H    0.068552   0.058061
    19  H   -0.108364   0.272961
    20  H   -0.094844   0.296229
    21  H    0.315634  -0.169258
    22  H   -0.156352   0.320637
    23  H   -0.542045   0.711956
    24  H   -0.102423   0.214847
    25  H   -0.177970   0.339585
    26  H   -0.371476   0.507437
    27  H   -0.199421   0.349418
    28  H    0.061419   0.222328
    29  H    0.273376  -0.004121
    30  H    0.029860   0.183576
    31  H   -0.450922   0.640707
    32  H   -0.360384   0.520630
    33  H    0.006415   0.167144
 Sum of Mulliken charges =  -1.00000   1.00000

 Dipole moment (field-independent basis, Debye):
    X=              3.1528    Y=              0.6222    Z=              0.9619  Tot=              3.3544
 Quadrupole moment (field-independent basis, Debye-Ang):
   XX=           -169.0803   YY=           -130.5518   ZZ=           -124.8552
   XY=             -4.5902   XZ=              6.0629   YZ=              0.9385

 Summary of Natural Population Analysis:

                                       Natural Population
                Natural  -----------------------------------------------
    Atom  No    Charge         Core      Valence    Rydberg      Total
 -----------------------------------------------------------------------
      C    1   -0.28073      0.99967     2.27684    0.00422     3.28073
      C    2   -0.19720      0.99963     2.18993    0.00765     3.19720
      C    3   -0.19630      0.99957     2.18622    0.01051     3.19630
      C    4    0.05619      0.99957     1.93040    0.01384     2.94381
      C    5   -0.29806      0.99961     2.29121    0.00724     3.29806
      C    6   -0.28426      0.99961     2.27690    0.00774     3.28426
      N    7   -0.24888      0.99970     2.73488    0.01430     3.74888
      N    8   -0.22671      0.99966     2.71364    0.01341     3.72671
      C    9    0.20170      0.99953     1.78307    0.01571     2.79830
      C   10   -0.13985      0.99950     2.13149    0.00886     3.13985
      C   11   -0.07597      0.99957     2.06599    0.01041     3.07597
      C   12   -0.14862      0.99956     2.13895    0.01012     3.14862
      C   13    0.03317      0.99958     1.95271    0.01454     2.96683
      N   14   -0.26247      0.99967     2.75225    0.01054     3.76247
      H   15    0.09888      0.00000     0.39993    0.00119     0.40112
      H   16    0.09676      0.00000     0.40236    0.00088     0.40324
      H   17    0.09352      0.00000     0.40548    0.00100     0.40648
      H   18    0.09944      0.00000     0.39811    0.00245     0.40056
      H   19    0.09331      0.00000     0.40552    0.00116     0.40669
      H   20    0.10028      0.00000     0.39849    0.00123     0.39972
      H   21    0.10368      0.00000     0.39438    0.00193     0.39632
      H   22    0.10601      0.00000     0.39264    0.00134     0.39399
      H   23    0.10314      0.00000     0.39510    0.00176     0.39686
      H   24    0.09715      0.00000     0.40149    0.00137     0.40285
      H   25    0.10378      0.00000     0.39488    0.00134     0.39622
      H   26    0.10051      0.00000     0.39786    0.00163     0.39949
      H   27    0.10322      0.00000     0.39542    0.00136     0.39678
      H   28    0.17620      0.00000     0.32076    0.00303     0.32380
      H   29    0.17936      0.00000     0.31685    0.00379     0.32064
      H   30    0.11643      0.00000     0.38220    0.00137     0.38357
      H   31    0.10257      0.00000     0.39628    0.00115     0.39743
      H   32    0.10449      0.00000     0.39431    0.00120     0.39551
      H   33    0.08926      0.00000     0.40975    0.00099     0.41074
 =======================================================================
   * Total *    0.00000     13.99443    38.82628    0.17929    53.00000

 Normal termination of Gaussian 16 at Thu Dec 10 10:28:18 2020.
