 Gaussian 16, Revision A.03,

 -----------------------------------------------------------
 # opt freq B3LYP/6-31G(d) empiricaldispersion=gd3bj scf=xqc
 -----------------------------------------------------------

 ------------------------------
 CID_43689661_JID_8140_neutraal
 ------------------------------
 Symbolic Z-matrix:
 Charge =  0 Multiplicity = 1

 SCF Done:  E(RB3LYP) =  -1150.75714505     A.U. after   14 cycles
 SCF Done:  E(RB3LYP) =  -1150.76220486     A.U. after   12 cycles
 SCF Done:  E(RB3LYP) =  -1150.76359655     A.U. after   12 cycles
 SCF Done:  E(RB3LYP) =  -1150.76419114     A.U. after   12 cycles
 SCF Done:  E(RB3LYP) =  -1150.76440550     A.U. after   12 cycles
 SCF Done:  E(RB3LYP) =  -1150.76443534     A.U. after   10 cycles
 SCF Done:  E(RB3LYP) =  -1150.76444367     A.U. after    9 cycles
 SCF Done:  E(RB3LYP) =  -1150.76444508     A.U. after    8 cycles
 SCF Done:  E(RB3LYP) =  -1150.76444569     A.U. after    8 cycles
 SCF Done:  E(RB3LYP) =  -1150.76444575     A.U. after    7 cycles
 SCF Done:  E(RB3LYP) =  -1150.76444582     A.U. after    7 cycles
 Optimization completed.
    -- Stationary point found.
 Normal termination of Gaussian 16 at Fri Dec 11 18:51:09 2020.

 --------------------------------------------------------------------
 #N Geom=AllCheck Guess=TCheck SCRF=Check GenChk RB3LYP/6-31G(d) Freq
 --------------------------------------------------------------------

 Structure from the checkpoint file:  "JID_8140.chk"
 ------------------------------
 CID_43689661_JID_8140_neutraal
 ------------------------------
 Charge =  0 Multiplicity = 1

 SCF Done:  E(RB3LYP) =  -1150.76444582     A.U. after    1 cycles

  Exact polarizability: 259.889  -1.846 163.372   3.517  -6.698 127.416
 Approx polarizability: 322.688  -0.827 274.595  16.048 -21.371 192.100

                      1                      2                      3
                      A                      A                      A
 Frequencies --     21.5758                23.3326                53.1059
 Red. masses --      4.4530                 3.5369                 3.8717
 Frc consts  --      0.0012                 0.0011                 0.0064
 IR Inten    --      0.5013                 0.9007                 0.9986

                      4                      5                      6
                      A                      A                      A
 Frequencies --     54.5916                62.3030                68.6925
 Red. masses --      3.1690                 3.4112                 2.7746
 Frc consts  --      0.0056                 0.0078                 0.0077
 IR Inten    --      0.2649                 0.5537                 0.1419

                      7                      8                      9
                      A                      A                      A
 Frequencies --     97.1635               113.0952               140.1737
 Red. masses --      2.4171                 2.3137                 3.0743
 Frc consts  --      0.0134                 0.0174                 0.0356
 IR Inten    --      0.6541                 0.3685                 6.8786

                     10                     11                     12
                      A                      A                      A
 Frequencies --    163.7211               177.5230               197.1980
 Red. masses --      2.6504                 3.8647                 3.0382
 Frc consts  --      0.0419                 0.0718                 0.0696
 IR Inten    --      0.9067                 0.7319                 0.4428

                     13                     14                     15
                      A                      A                      A
 Frequencies --    220.4893               226.3748               235.5569
 Red. masses --      2.0564                 2.1030                 1.0909
 Frc consts  --      0.0589                 0.0635                 0.0357
 IR Inten    --      0.5686                 1.0141                 0.0242

                     16                     17                     18
                      A                      A                      A
 Frequencies --    250.5322               259.0328               305.2791
 Red. masses --      1.7423                 2.5794                 2.3184
 Frc consts  --      0.0644                 0.1020                 0.1273
 IR Inten    --      1.2225                 0.3864                 0.9983

                     19                     20                     21
                      A                      A                      A
 Frequencies --    316.6071               328.8586               346.7368
 Red. masses --      2.5357                 3.7516                 4.2966
 Frc consts  --      0.1498                 0.2391                 0.3043
 IR Inten    --      4.1188                 1.9605                19.2986

                     22                     23                     24
                      A                      A                      A
 Frequencies --    364.4059               399.7324               422.6784
 Red. masses --      2.7891                 2.0099                 3.2638
 Frc consts  --      0.2182                 0.1892                 0.3436
 IR Inten    --      1.5526                83.5136                 0.3847

                     25                     26                     27
                      A                      A                      A
 Frequencies --    433.1096               473.4184               482.6546
 Red. masses --      2.8300                 2.6768                 3.8797
 Frc consts  --      0.3128                 0.3535                 0.5325
 IR Inten    --     97.6557                 6.1047                59.6997

                     28                     29                     30
                      A                      A                      A
 Frequencies --    497.8504               535.7595               542.9144
 Red. masses --      3.6207                 3.3548                 3.8238
 Frc consts  --      0.5287                 0.5674                 0.6641
 IR Inten    --      3.6777                16.3752                41.4467

                     31                     32                     33
                      A                      A                      A
 Frequencies --    585.5819               648.6335               669.7346
 Red. masses --      2.3690                 6.8794                 5.1455
 Frc consts  --      0.4786                 1.7053                 1.3598
 IR Inten    --     10.7555                 1.1229                 9.5548

                     34                     35                     36
                      A                      A                      A
 Frequencies --    708.3744               738.2644               764.1124
 Red. masses --      3.3387                 4.6265                 1.6380
 Frc consts  --      0.9871                 1.4857                 0.5635
 IR Inten    --     30.1940                94.6309                 2.6638

                     37                     38                     39
                      A                      A                      A
 Frequencies --    788.9475               798.4046               820.3924
 Red. masses --      1.3084                 1.2802                 1.2684
 Frc consts  --      0.4798                 0.4808                 0.5030
 IR Inten    --      2.5892                57.5651                 2.0951

                     40                     41                     42
                      A                      A                      A
 Frequencies --    829.8607               836.1253               867.7687
 Red. masses --      1.5763                 1.7193                 3.4116
 Frc consts  --      0.6396                 0.7082                 1.5136
 IR Inten    --     17.9249                19.9562                 9.2398

                     43                     44                     45
                      A                      A                      A
 Frequencies --    913.2607               961.0798               967.3722
 Red. masses --      2.1234                 1.2983                 1.2707
 Frc consts  --      1.0435                 0.7066                 0.7006
 IR Inten    --      2.1374                 0.1882                 0.4236

                     46                     47                     48
                      A                      A                      A
 Frequencies --    986.0288               995.1248              1006.8528
 Red. masses --      1.3284                 1.7034                 1.7983
 Frc consts  --      0.7610                 0.9939                 1.0741
 IR Inten    --      3.2316                 2.9670                 3.0122

                     49                     50                     51
                      A                      A                      A
 Frequencies --   1025.3183              1032.8471              1042.0331
 Red. masses --      3.4106                 1.8100                 1.5113
 Frc consts  --      2.1125                 1.1376                 0.9669
 IR Inten    --      2.4547                 1.8850                 3.8064

                     52                     53                     54
                      A                      A                      A
 Frequencies --   1063.7287              1075.2189              1089.7874
 Red. masses --      1.5984                 2.1730                 2.1568
 Frc consts  --      1.0656                 1.4801                 1.5092
 IR Inten    --     24.2869                 1.3908                 2.3790

                     55                     56                     57
                      A                      A                      A
 Frequencies --   1093.8917              1110.9324              1141.1974
 Red. masses --      3.3329                 2.8238                 3.6491
 Frc consts  --      2.3497                 2.0533                 2.8000
 IR Inten    --     58.3527                 2.5761               327.5567

                     58                     59                     60
                      A                      A                      A
 Frequencies --   1148.4458              1171.4233              1181.9961
 Red. masses --      1.5152                 1.8937                 2.0730
 Frc consts  --      1.1774                 1.5311                 1.7064
 IR Inten    --     16.6056                 7.2983                18.0410

                     61                     62                     63
                      A                      A                      A
 Frequencies --   1197.1864              1221.4265              1269.6577
 Red. masses --      1.8951                 1.1974                 1.2969
 Frc consts  --      1.6003                 1.0525                 1.2317
 IR Inten    --      0.7543                13.2455                 5.2088

                     64                     65                     66
                      A                      A                      A
 Frequencies --   1277.3533              1292.1064              1296.6852
 Red. masses --      1.4124                 1.6515                 2.1820
 Frc consts  --      1.3578                 1.6245                 2.1616
 IR Inten    --     31.1429                41.7032                82.9854

                     67                     68                     69
                      A                      A                      A
 Frequencies --   1309.1660              1324.2905              1331.0017
 Red. masses --      1.3684                 1.3336                 1.7409
 Frc consts  --      1.3818                 1.3780                 1.8172
 IR Inten    --     29.7071                32.3541                45.4003

                     70                     71                     72
                      A                      A                      A
 Frequencies --   1343.5067              1355.0581              1370.0443
 Red. masses --      1.4715                 1.3165                 1.3950
 Frc consts  --      1.5649                 1.4243                 1.5427
 IR Inten    --      4.4398                 1.0824                15.8728

                     73                     74                     75
                      A                      A                      A
 Frequencies --   1383.9714              1398.0510              1421.9346
 Red. masses --      3.6122                 1.4703                 1.4879
 Frc consts  --      4.0764                 1.6932                 1.7725
 IR Inten    --    118.6639                 1.7146                 1.1363

                     76                     77                     78
                      A                      A                      A
 Frequencies --   1429.0759              1438.9097              1443.1410
 Red. masses --      1.4595                 1.2247                 1.2443
 Frc consts  --      1.7561                 1.4940                 1.5269
 IR Inten    --      0.1562                 3.5510                 0.3881

                     79                     80                     81
                      A                      A                      A
 Frequencies --   1448.4476              1460.6237              1485.7412
 Red. masses --      1.2925                 2.7193                 1.0957
 Frc consts  --      1.5976                 3.4182                 1.4250
 IR Inten    --      8.0193                19.8330                 5.1056

                     82                     83                     84
                      A                      A                      A
 Frequencies --   1518.3285              1522.7762              1523.8734
 Red. masses --      1.0597                 1.0553                 1.0504
 Frc consts  --      1.4393                 1.4417                 1.4372
 IR Inten    --      2.2149                 5.0014                 2.5881

                     85                     86                     87
                      A                      A                      A
 Frequencies --   1529.5003              1531.8550              1534.9437
 Red. masses --      1.5358                 1.0781                 1.0572
 Frc consts  --      2.1168                 1.4906                 1.4675
 IR Inten    --      6.5395                 9.0301                 1.7595

                     88                     89                     90
                      A                      A                      A
 Frequencies --   1536.9191              1540.1249              1546.4561
 Red. masses --      1.0494                 1.0913                 1.0843
 Frc consts  --      1.4605                 1.5251                 1.5278
 IR Inten    --      9.5720                 4.7808                38.1798

                     91                     92                     93
                      A                      A                      A
 Frequencies --   1550.7786              1566.1228              1630.2928
 Red. masses --      1.0963                 2.6117                 4.5831
 Frc consts  --      1.5534                 3.7742                 7.1770
 IR Inten    --     39.6616               152.0878                13.9077

                     94                     95                     96
                      A                      A                      A
 Frequencies --   1664.2538              2976.3605              2981.4865
 Red. masses --      5.5358                 1.0766                 1.0769
 Frc consts  --      9.0338                 5.6194                 5.6399
 IR Inten    --    338.9170                51.4797                30.2238

                     97                     98                     99
                      A                      A                      A
 Frequencies --   3042.5638              3046.4865              3048.0235
 Red. masses --      1.0603                 1.0560                 1.0479
 Frc consts  --      5.7833                 5.7746                 5.7360
 IR Inten    --     31.0825                 6.7296                40.7175

                    100                    101                    102
                      A                      A                      A
 Frequencies --   3054.4281              3065.7301              3067.7646
 Red. masses --      1.0427                 1.0355                 1.0851
 Frc consts  --      5.7316                 5.7341                 6.0166
 IR Inten    --     10.1942                17.6653                40.2621

                    103                    104                    105
                      A                      A                      A
 Frequencies --   3078.9462              3082.1624              3082.6244
 Red. masses --      1.0991                 1.0592                 1.0976
 Frc consts  --      6.1389                 5.9286                 6.1453
 IR Inten    --     23.3563                 4.7624                22.8606

                    106                    107                    108
                      A                      A                      A
 Frequencies --   3111.1963              3119.2801              3121.4025
 Red. masses --      1.1009                 1.1018                 1.1015
 Frc consts  --      6.2783                 6.3162                 6.3233
 IR Inten    --     42.3655                35.0009                76.7308

                    109                    110                    111
                      A                      A                      A
 Frequencies --   3123.8913              3129.8194              3136.0117
 Red. masses --      1.1023                 1.1030                 1.1045
 Frc consts  --      6.3377                 6.3662                 6.3997
 IR Inten    --     26.8341                12.8720                 9.3355

                    112                    113                    114
                      A                      A                      A
 Frequencies --   3155.8665              3180.5292              3213.9457
 Red. masses --      1.1041                 1.0893                 1.0879
 Frc consts  --      6.4790                 6.4922                 6.6210
 IR Inten    --     13.2898                16.0956                 2.4745

                    115                    116                    117
                      A                      A                      A
 Frequencies --   3226.8219              3230.5013              3592.7952
 Red. masses --      1.0922                 1.0931                 1.0758
 Frc consts  --      6.7006                 6.7213                 8.1816
 IR Inten    --      1.6663                11.8909                21.5574

 - Thermochemistry -
 -------------------
 Temperature   298.150 Kelvin.  Pressure   1.00000 Atm.
 Atom     1 has atomic number  6 and mass  12.00000

 Molecular mass:   269.14495 amu.
 Principal axes and moments of inertia in atomic units:
                           1         2         3
     Eigenvalues --  1782.57994********************
           X            0.99993   0.00165  -0.01143
           Y           -0.00151   0.99992   0.01287
           Z            0.01145  -0.01285   0.99985
 This molecule is an asymmetric top.
 Rotational symmetry number  1.
 Warning -- assumption of classical behavior for rotation
           may cause significant error
 Rotational temperatures (Kelvin)      0.04859     0.00583     0.00569
 Rotational constants (GHZ):           1.01243     0.12157     0.11860
 Zero-point vibrational energy     935715.7 (Joules/Mol)
                                  223.64142 (Kcal/Mol)
 Warning -- explicit consideration of  31 degrees of freedom as
           vibrations may cause significant error
 Vibrational temperatures:     31.04    33.57    76.41    78.55    89.64
          (Kelvin)             98.83   139.80   162.72   201.68   235.56
                              255.42   283.72   317.23   325.70   338.91
                              360.46   372.69   439.23   455.53   473.15
                              498.88   524.30   575.13   608.14   623.15
                              681.14   694.43   716.30   770.84   781.13
                              842.52   933.24   963.60  1019.19  1062.20
                             1099.39  1135.12  1148.73  1180.36  1193.98
                             1203.00  1248.53  1313.98  1382.78  1391.83
                             1418.68  1431.76  1448.64  1475.20  1486.04
                             1499.25  1530.47  1547.00  1567.96  1573.87
                             1598.38  1641.93  1652.36  1685.42  1700.63
                             1722.48  1757.36  1826.75  1837.83  1859.05
                             1865.64  1883.60  1905.36  1915.01  1933.01
                             1949.63  1971.19  1991.23  2011.48  2045.85
                             2056.12  2070.27  2076.36  2083.99  2101.51
                             2137.65  2184.54  2190.94  2192.51  2200.61
                             2204.00  2208.44  2211.28  2215.90  2225.01
                             2231.22  2253.30  2345.63  2394.49  4282.32
                             4289.69  4377.57  4383.21  4385.43  4394.64
                             4410.90  4413.83  4429.92  4434.54  4435.21
                             4476.32  4487.95  4491.00  4494.58  4503.11
                             4512.02  4540.59  4576.07  4624.15  4642.68
                             4647.97  5169.23

 Zero-point correction=                           0.356395 (Hartree/Particle)
 Thermal correction to Energy=                    0.376532
 Thermal correction to Enthalpy=                  0.377476
 Thermal correction to Gibbs Free Energy=         0.305867
 Sum of electronic and zero-point Energies=          -1150.408051
 Sum of electronic and thermal Energies=             -1150.387914
 Sum of electronic and thermal Enthalpies=           -1150.386970
 Sum of electronic and thermal Free Energies=        -1150.458579

                     E (Thermal)             CV                S
                      KCal/Mol        Cal/Mol-Kelvin    Cal/Mol-Kelvin
 Total                  236.277             74.851            150.714
 Electronic               0.000              0.000              0.000
 Translational            0.889              2.981             42.669
 Rotational               0.889              2.981             34.353
 Vibrational            234.500             68.890             73.691
 Vibration     1          0.593              1.985              6.484
 Vibration     2          0.593              1.985              6.328
 Vibration     3          0.596              1.976              4.698
 Vibration     4          0.596              1.976              4.644
 Vibration     5          0.597              1.972              4.383
 Vibration     6          0.598              1.969              4.190
 Vibration     7          0.603              1.951              3.510
 Vibration     8          0.607              1.939              3.215
 Vibration     9          0.615              1.913              2.802
 Vibration    10          0.623              1.887              2.506
 Vibration    11          0.628              1.870              2.354
 Vibration    12          0.637              1.844              2.159
 Vibration    13          0.647              1.810              1.955
 Vibration    14          0.650              1.801              1.908
 Vibration    15          0.655              1.786              1.836
 Vibration    16          0.663              1.762              1.727
 Vibration    17          0.668              1.747              1.668
 Vibration    18          0.696              1.664              1.388
 Vibration    19          0.703              1.642              1.328
 Vibration    20          0.712              1.618              1.266
 Vibration    21          0.725              1.582              1.181
 Vibration    22          0.738              1.546              1.103
 Vibration    23          0.766              1.471              0.964
 Vibration    24          0.785              1.421              0.883
 Vibration    25          0.794              1.398              0.849
 Vibration    26          0.830              1.309              0.728
 Vibration    27          0.839              1.289              0.703
 Vibration    28          0.853              1.255              0.664
 Vibration    29          0.891              1.171              0.574
 Vibration    30          0.898              1.155              0.559
 Vibration    31          0.943              1.063              0.475

                           ! Non-Optimized Parameters !
 Normal termination of Gaussian 16 at Fri Dec 11 19:06:25 2020.

 ----------------------------------------------------------------------
 # B3LYP/6-311++G(d,p) empiricaldispersion=gd3bj scf=xqc pop=npa geom=c
 heck
 ----------------------------------------------------------------------

 --------------------------------------
 CID_43689661_JID_8140_Energie_neutraal
 --------------------------------------
 Structure from the checkpoint file:  "JID_8140.chk"
 Charge =  0 Multiplicity = 1

 SCF Done:  E(RB3LYP) =  -1151.00205658     A.U. after   15 cycles
 Normal termination of Gaussian 16 at Fri Dec 11 19:13:31 2020.

 ----------------------------------------------------------------------
 # B3LYP/6-311++G(d,p) empiricaldispersion=gd3bj scf=xqc pop=npa geom=c
 heck
 ----------------------------------------------------------------------

 ------------------------------------
 CID_43689661_JID_8140_Energie_kation
 ------------------------------------
 Structure from the checkpoint file:  "JID_8140.chk"
 Charge =  1 Multiplicity = 2

 SCF Done:  E(UB3LYP) =  -1150.71637860     A.U. after   24 cycles
 Normal termination of Gaussian 16 at Fri Dec 11 19:28:54 2020.
 Gaussian 16:  ES64L-G16RevA.03 25-Dec-2016

 ----------------------------------------------------------------------
 # B3LYP/6-311++G(d,p) empiricaldispersion=gd3bj scf=xqc pop=npa geom=c
 heck
 ----------------------------------------------------------------------

 -----------------------------------
 CID_43689661_JID_8140_Energie_anion
 -----------------------------------
 Structure from the checkpoint file:  "JID_8140.chk"
 Charge = -1 Multiplicity = 2

                         Standard orientation:
 ---------------------------------------------------------------------
 Center     Atomic      Atomic             Coordinates (Angstroms)
 Number     Number       Type             X           Y           Z
 ---------------------------------------------------------------------
      1          6           0        6.007706   -1.589040   -0.634524
      2          6           0        4.646543   -0.898572   -0.747333
      3          6           0        4.216802   -0.138947    0.521416
      4          6           0        5.201365    0.969075    0.946740
      5          6           0        5.428198    2.076631   -0.088158
      6          6           0        2.796536    0.424779    0.370433
      7          7           0        1.821810   -0.646540    0.255004
      8          6           0        0.474373   -0.428699    0.078412
      9          6           0       -0.427205   -1.508824    0.212679
     10          6           0       -1.784835   -1.331241    0.008557
     11          6           0       -2.274867   -0.065973   -0.334337
     12          6           0       -1.401140    1.012597   -0.477501
     13          6           0       -0.038845    0.839660   -0.267792
     14         16           0       -4.022841    0.176074   -0.568840
     15          8           0       -4.212209    1.297586   -1.505591
     16          8           0       -4.634312   -1.141532   -0.822739
     17          6           0       -4.618886    0.748395    1.053484
     18          6           0       -4.478044   -0.303446    2.145657
     19          1           0        6.824647   -0.867868   -0.523872
     20          1           0        6.216400   -2.187432   -1.527755
     21          1           0        6.040141   -2.261739    0.231675
     22          1           0        4.653069   -0.204220   -1.597742
     23          1           0        3.877903   -1.644156   -0.982177
     24          1           0        4.189555   -0.864659    1.351991
     25          1           0        4.834130    1.417152    1.879644
     26          1           0        6.164138    0.507796    1.194995
     27          1           0        4.498065    2.598125   -0.340380
     28          1           0        6.127878    2.824904    0.298993
     29          1           0        5.850389    1.682170   -1.018615
     30          1           0        2.562735    1.085656    1.222454
     31          1           0        2.743261    1.040856   -0.534997
     32          1           0        2.060685   -1.498681    0.744857
     33          1           0       -0.040576   -2.493368    0.464824
     34          1           0       -2.473546   -2.164968    0.091923
     35          1           0       -1.791599    1.982489   -0.768194
     36          1           0        0.628627    1.685701   -0.380422
     37          1           0       -4.065724    1.666475    1.272244
     38          1           0       -5.665019    1.012776    0.866794
     39          1           0       -3.427233   -0.556159    2.317924
     40          1           0       -4.895524    0.076129    3.083989
     41          1           0       -5.013650   -1.215189    1.868512
 ---------------------------------------------------------------------

 SCF Done:  E(UB3LYP) =  -1150.99742015     A.U. after   33 cycles
 SCF Done:  E(UB3LYP) =  -1150.99742015     a.u. after    1 cycles

 The electronic state is 2-A.
 Alpha  occ. eigenvalues --  -88.95130 -19.02052 -19.01963 -14.23804 -10.13293
 Alpha  occ. eigenvalues --  -10.12806 -10.11489 -10.10252 -10.09925 -10.09910
 Alpha  occ. eigenvalues --  -10.09589 -10.08784 -10.08584 -10.08502 -10.07910
 Alpha  occ. eigenvalues --  -10.07632 -10.07437 -10.07041  -8.01569  -5.97848
 Alpha  occ. eigenvalues --   -5.97735  -5.97661  -1.01158  -0.90947  -0.85602
 Alpha  occ. eigenvalues --   -0.77202  -0.73179  -0.72057  -0.67283  -0.66855
 Alpha  occ. eigenvalues --   -0.66185  -0.62740  -0.59621  -0.56693  -0.54870
 Alpha  occ. eigenvalues --   -0.53591  -0.52327  -0.49174  -0.46842  -0.44746
 Alpha  occ. eigenvalues --   -0.42509  -0.41204  -0.40412  -0.38855  -0.38487
 Alpha  occ. eigenvalues --   -0.37094  -0.36709  -0.36352  -0.35720  -0.34303
 Alpha  occ. eigenvalues --   -0.33653  -0.33338  -0.33071  -0.32278  -0.31671
 Alpha  occ. eigenvalues --   -0.31101  -0.30604  -0.29354  -0.29109  -0.28306
 Alpha  occ. eigenvalues --   -0.27061  -0.26499  -0.26235  -0.24207  -0.23706
 Alpha  occ. eigenvalues --   -0.23310  -0.23280  -0.22951  -0.21789  -0.21347
 Alpha  occ. eigenvalues --   -0.19716  -0.17648  -0.12314   0.03582
 Alpha virt. eigenvalues --    0.05389   0.05685   0.06017   0.06846   0.06935
 Alpha virt. eigenvalues --    0.07270   0.07722   0.08571   0.08917   0.09187
 Alpha virt. eigenvalues --    0.09536   0.09888   0.10243   0.10920   0.11222

  Beta  occ. eigenvalues --  -88.95128 -19.02044 -19.01956 -14.23767 -10.13230
  Beta  occ. eigenvalues --  -10.12799 -10.11481 -10.10226 -10.09917 -10.09917
  Beta  occ. eigenvalues --  -10.09504 -10.08763 -10.08593 -10.08468 -10.07893
  Beta  occ. eigenvalues --  -10.07625 -10.07413 -10.07012  -8.01566  -5.97847
  Beta  occ. eigenvalues --   -5.97732  -5.97657  -1.01131  -0.90926  -0.85520
  Beta  occ. eigenvalues --   -0.77126  -0.73134  -0.72035  -0.67194  -0.66782
  Beta  occ. eigenvalues --   -0.66151  -0.62697  -0.59579  -0.56639  -0.54747
  Beta  occ. eigenvalues --   -0.53530  -0.52274  -0.49123  -0.46771  -0.44699
  Beta  occ. eigenvalues --   -0.42454  -0.41150  -0.40377  -0.38817  -0.38457
  Beta  occ. eigenvalues --   -0.37055  -0.36656  -0.36306  -0.35690  -0.34263
  Beta  occ. eigenvalues --   -0.33620  -0.33296  -0.33033  -0.32250  -0.31626
  Beta  occ. eigenvalues --   -0.31043  -0.30549  -0.29211  -0.29085  -0.28260
  Beta  occ. eigenvalues --   -0.27027  -0.26448  -0.26190  -0.24174  -0.23667
  Beta  occ. eigenvalues --   -0.23260  -0.23229  -0.22940  -0.21637  -0.21309
  Beta  occ. eigenvalues --   -0.19690  -0.17435  -0.12127
  Beta virt. eigenvalues --    0.05516   0.05858   0.06340   0.06765   0.06985
  Beta virt. eigenvalues --    0.07354   0.07556   0.07844   0.08645   0.09130
  Beta virt. eigenvalues --    0.09326   0.09897   0.10178   0.10309   0.11078

 Mulliken charges and spin densities:
               1          2
     1  C    0.648227  -1.292051
     2  C   -1.028552   0.805599
     3  C    0.545463   0.223555
     4  C    0.008888  -0.452753
     5  C    0.397232  -1.011872
     6  C   -0.778482  -0.218886
     7  N    0.067508   0.081731
     8  C    0.183038  -0.622044
     9  C   -0.503333   0.057448
    10  C   -0.205006  -0.190531
    11  C    0.594653  -0.462802
    12  C   -0.623029   0.355327
    13  C    0.380472  -0.052482
    14  S    1.104204  -0.640228
    15  O   -0.182817  -0.002592
    16  O   -0.204741  -0.005042
    17  C   -0.454001   0.074169
    18  C   -0.340323  -0.223689
    19  H    0.020108   0.116844
    20  H   -0.065439   0.195888
    21  H   -0.270754   0.423539
    22  H   -0.059631   0.186424
    23  H    0.305561  -0.145098
    24  H   -0.476563   0.665734
    25  H   -0.079474   0.216897
    26  H   -0.255868   0.441315
    27  H   -0.081226   0.217422
    28  H   -0.159793   0.305912
    29  H    0.010077   0.133047
    30  H   -0.038269   0.223411
    31  H    0.276118  -0.100001
    32  H   -0.130677   0.411585
    33  H   -0.467297   0.624444
    34  H    0.183663   0.042267
    35  H    0.098046   0.127135
    36  H    0.034761   0.116493
    37  H    0.099621   0.134018
    38  H    0.232059  -0.024817
    39  H    0.080360   0.083449
    40  H    0.015210   0.123653
    41  H    0.120007   0.057582
 Sum of Mulliken charges =  -1.00000   1.00000

 Dipole moment (field-independent basis, Debye):
    X=             -5.4116    Y=              2.2783    Z=              0.0453  Tot=              5.8718
 Quadrupole moment (field-independent basis, Debye-Ang):
   XX=           -247.6542   YY=           -160.6227   ZZ=           -156.0480
   XY=              1.0350   XZ=            -26.7781   YZ=              4.7741

 Summary of Natural Population Analysis:

                                       Natural Population
                Natural  -----------------------------------------------
    Atom  No    Charge         Core      Valence    Rydberg      Total
 -----------------------------------------------------------------------
      C    1   -0.28466      0.99967     2.28071    0.00428     3.28466
      C    2   -0.19241      0.99962     2.18402    0.00878     3.19241
      C    3   -0.11091      0.99959     2.09930    0.01202     3.11091
      C    4   -0.18974      0.99962     2.18072    0.00939     3.18974
      C    5   -0.28992      0.99966     2.28437    0.00589     3.28992
      C    6   -0.08428      0.99959     2.07303    0.01166     3.08428
      N    7   -0.30057      0.99966     2.79080    0.01011     3.80057
      C    8    0.11664      0.99951     1.87279    0.01107     2.88336
      C    9   -0.11680      0.99953     2.10743    0.00984     3.11680
      C   10   -0.08887      0.99951     2.07862    0.01074     3.08887
      C   11   -0.17534      0.99937     2.16012    0.01585     3.17534
      C   12   -0.06832      0.99952     2.05814    0.01067     3.06832
      C   13   -0.13691      0.99953     2.12854    0.00884     3.13691
      S   14    1.03217      4.99914     1.87233    0.09636     6.96783
      O   15   -0.47337      0.99991     3.46779    0.00567     4.47337
      O   16   -0.47523      0.99991     3.46959    0.00573     4.47523
      C   17   -0.28697      0.99960     2.27659    0.01078     3.28697
      C   18   -0.29914      0.99966     2.29386    0.00563     3.29914
      H   19    0.09585      0.00000     0.40304    0.00111     0.40415
      H   20    0.09773      0.00000     0.40143    0.00084     0.40227
      H   21    0.09918      0.00000     0.39950    0.00131     0.40082
      H   22    0.09317      0.00000     0.40575    0.00108     0.40683
      H   23    0.10192      0.00000     0.39678    0.00130     0.39808
      H   24    0.09876      0.00000     0.39800    0.00323     0.40124
      H   25    0.09723      0.00000     0.40146    0.00131     0.40277
      H   26    0.09979      0.00000     0.39897    0.00124     0.40021
      H   27    0.09509      0.00000     0.40405    0.00086     0.40491
      H   28    0.10087      0.00000     0.39827    0.00085     0.39913
      H   29    0.09682      0.00000     0.40234    0.00084     0.40318
      H   30    0.09038      0.00000     0.40815    0.00147     0.40962
      H   31    0.09338      0.00000     0.40493    0.00169     0.40662
      H   32    0.19108      0.00000     0.30409    0.00483     0.30892
      H   33    0.10455      0.00000     0.39431    0.00114     0.39545
      H   34    0.11367      0.00000     0.38529    0.00104     0.38633
      H   35    0.11067      0.00000     0.38833    0.00100     0.38933
      H   36    0.10406      0.00000     0.39461    0.00133     0.39594
      H   37    0.11187      0.00000     0.38682    0.00131     0.38813
      H   38    0.11019      0.00000     0.38846    0.00135     0.38981
      H   39    0.10866      0.00000     0.39025    0.00109     0.39134
      H   40    0.10176      0.00000     0.39716    0.00108     0.39824
      H   41    0.10792      0.00000     0.39078    0.00130     0.39208
 =======================================================================
   * Total *    0.00000     21.99259    50.72147    0.28594    73.00000

 Normal termination of Gaussian 16 at Fri Dec 11 19:50:04 2020.
