 Gaussian 16, Revision A.03,

 -----------------------------------------------------------
 # opt freq B3LYP/6-31G(d) empiricaldispersion=gd3bj scf=xqc
 -----------------------------------------------------------

 -------------------------------
 CID_113610544_JID_8263_neutraal
 -------------------------------
 Symbolic Z-matrix:
 Charge =  0 Multiplicity = 1

 SCF Done:  E(RB3LYP) =  -802.904955453     A.U. after   14 cycles
 SCF Done:  E(RB3LYP) =  -802.920052688     A.U. after   12 cycles
 SCF Done:  E(RB3LYP) =  -802.923652578     A.U. after   12 cycles
 SCF Done:  E(RB3LYP) =  -802.925928662     A.U. after   12 cycles
 SCF Done:  E(RB3LYP) =  -802.927030911     A.U. after   12 cycles
 SCF Done:  E(RB3LYP) =  -802.927321301     A.U. after   11 cycles
 SCF Done:  E(RB3LYP) =  -802.927232667     A.U. after   12 cycles
 SCF Done:  E(RB3LYP) =  -802.927446214     A.U. after   11 cycles
 SCF Done:  E(RB3LYP) =  -802.927487656     A.U. after   10 cycles
 SCF Done:  E(RB3LYP) =  -802.927521970     A.U. after   11 cycles
 SCF Done:  E(RB3LYP) =  -802.936837392     A.U. after    9 cycles
 SCF Done:  E(RB3LYP) =  -802.936839296     A.U. after    9 cycles
 SCF Done:  E(RB3LYP) =  -802.936840031     A.U. after    9 cycles
 SCF Done:  E(RB3LYP) =  -802.936840166     A.U. after    7 cycles
 SCF Done:  E(RB3LYP) =  -802.936840180     A.U. after    7 cycles
 Optimization completed.
    -- Stationary point found.
 Normal termination of Gaussian 16 at Fri Dec 11 20:22:45 2020.

 --------------------------------------------------------------------
 #N Geom=AllCheck Guess=TCheck SCRF=Check GenChk RB3LYP/6-31G(d) Freq
 --------------------------------------------------------------------

 Structure from the checkpoint file:  "JID_8263.chk"
 -------------------------------
 CID_113610544_JID_8263_neutraal
 -------------------------------
 Charge =  0 Multiplicity = 1

 SCF Done:  E(RB3LYP) =  -802.936840180     A.U. after    1 cycles

  Exact polarizability: 201.638  -3.152 179.795   1.053  13.027 120.215
 Approx polarizability: 293.105 -11.815 260.890   3.361  27.010 174.936

                      1                      2                      3
                      A                      A                      A
 Frequencies --     24.7831                46.1237                55.1016
 Red. masses --      3.8083                 3.9446                 4.4629
 Frc consts  --      0.0014                 0.0049                 0.0080
 IR Inten    --      1.0738                 0.1437                 1.4681

                      4                      5                      6
                      A                      A                      A
 Frequencies --    101.8101               115.4734               133.5082
 Red. masses --      3.5590                 2.3331                 4.3733
 Frc consts  --      0.0217                 0.0183                 0.0459
 IR Inten    --      1.1572                 0.2961                 0.8222

                      7                      8                      9
                      A                      A                      A
 Frequencies --    140.8633               158.4158               189.7237
 Red. masses --      3.7404                 3.8688                 1.7326
 Frc consts  --      0.0437                 0.0572                 0.0367
 IR Inten    --      0.1405                 1.3152                 2.6352

                     10                     11                     12
                      A                      A                      A
 Frequencies --    215.6539               228.6633               244.1767
 Red. masses --      1.6485                 3.5223                 3.0999
 Frc consts  --      0.0452                 0.1085                 0.1089
 IR Inten    --      2.2793                 3.5158                 2.0245

                     13                     14                     15
                      A                      A                      A
 Frequencies --    254.7401               261.2009               267.1437
 Red. masses --      1.5264                 1.7956                 1.8716
 Frc consts  --      0.0584                 0.0722                 0.0787
 IR Inten    --      0.2568                 2.6370                 1.2894

                     16                     17                     18
                      A                      A                      A
 Frequencies --    299.7846               316.8236               337.5267
 Red. masses --      2.0878                 2.7165                 2.6243
 Frc consts  --      0.1106                 0.1607                 0.1761
 IR Inten    --      1.1308                 4.2244                 2.0762

                     19                     20                     21
                      A                      A                      A
 Frequencies --    351.1840               421.2517               428.9719
 Red. masses --      2.4590                 2.4343                 1.8351
 Frc consts  --      0.1787                 0.2545                 0.1990
 IR Inten    --      1.6782                10.6493                24.6276

                     22                     23                     24
                      A                      A                      A
 Frequencies --    436.4245               452.1954               470.6549
 Red. masses --      1.9322                 2.4924                 2.5999
 Frc consts  --      0.2168                 0.3003                 0.3393
 IR Inten    --     15.6070                13.8759                 9.8196

                     25                     26                     27
                      A                      A                      A
 Frequencies --    511.1368               528.7083               550.7346
 Red. masses --      3.0861                 2.5100                 4.1504
 Frc consts  --      0.4751                 0.4134                 0.7417
 IR Inten    --      1.4634                 6.8443                 5.2350

                     28                     29                     30
                      A                      A                      A
 Frequencies --    569.5091               632.4074               643.8922
 Red. masses --      1.2085                 3.7454                 3.3593
 Frc consts  --      0.2309                 0.8826                 0.8206
 IR Inten    --     80.4816                 9.8580                 1.3839

                     31                     32                     33
                      A                      A                      A
 Frequencies --    680.4075               702.5730               742.6016
 Red. masses --      3.3284                 3.5725                 4.3906
 Frc consts  --      0.9079                 1.0390                 1.4265
 IR Inten    --      0.3349                 6.0362                 5.7016

                     34                     35                     36
                      A                      A                      A
 Frequencies --    766.4635               782.1131               793.7711
 Red. masses --      1.5054                 1.7145                 1.6748
 Frc consts  --      0.5210                 0.6179                 0.6217
 IR Inten    --     22.5735                19.1922                14.4400

                     37                     38                     39
                      A                      A                      A
 Frequencies --    807.7419               815.6603               847.1645
 Red. masses --      1.9407                 2.3947                 2.4774
 Frc consts  --      0.7460                 0.9387                 1.0476
 IR Inten    --     76.9913                26.3722                 0.9696

                     40                     41                     42
                      A                      A                      A
 Frequencies --    869.4111               873.7317               923.5632
 Red. masses --      2.6060                 2.9765                 2.0536
 Frc consts  --      1.1606                 1.3388                 1.0321
 IR Inten    --      2.7939                11.5311                 6.3387

                     43                     44                     45
                      A                      A                      A
 Frequencies --    933.3576               967.4173               977.7182
 Red. masses --      1.5112                 1.5874                 1.6855
 Frc consts  --      0.7757                 0.8753                 0.9493
 IR Inten    --      3.3141                 3.0984                 1.6462

                     46                     47                     48
                      A                      A                      A
 Frequencies --    988.3855               994.6014              1004.2242
 Red. masses --      1.3812                 7.9937                 2.0796
 Frc consts  --      0.7950                 4.6591                 1.2356
 IR Inten    --      1.2351                 5.4311                 3.2244

                     49                     50                     51
                      A                      A                      A
 Frequencies --   1023.6041              1042.7765              1066.0036
 Red. masses --      1.4518                 1.9841                 2.1790
 Frc consts  --      0.8962                 1.2711                 1.4589
 IR Inten    --      7.9412                12.3544                 3.2335

                     52                     53                     54
                      A                      A                      A
 Frequencies --   1086.4678              1108.6711              1133.8607
 Red. masses --      2.4629                 2.3446                 1.7358
 Frc consts  --      1.7129                 1.6980                 1.3148
 IR Inten    --     21.9929                10.7631                 8.4709

                     55                     56                     57
                      A                      A                      A
 Frequencies --   1154.5882              1166.5626              1180.8490
 Red. masses --      2.2437                 2.4840                 1.6667
 Frc consts  --      1.7622                 1.9917                 1.3693
 IR Inten    --     27.6622                22.0297                 1.6490

                     58                     59                     60
                      A                      A                      A
 Frequencies --   1189.0088              1199.7735              1220.6158
 Red. masses --      1.8439                 1.9566                 2.1920
 Frc consts  --      1.5359                 1.6594                 1.9242
 IR Inten    --     26.4953                25.3269                 6.3105

                     61                     62                     63
                      A                      A                      A
 Frequencies --   1250.0207              1264.1753              1277.3518
 Red. masses --      1.6104                 2.6975                 2.4270
 Frc consts  --      1.4825                 2.5399                 2.3331
 IR Inten    --     22.5461                24.2721                 0.8510

                     64                     65                     66
                      A                      A                      A
 Frequencies --   1280.3578              1293.6461              1307.9117
 Red. masses --      1.5642                 1.6305                 1.8529
 Frc consts  --      1.5108                 1.6077                 1.8675
 IR Inten    --      8.1527                22.8150                 6.6827

                     67                     68                     69
                      A                      A                      A
 Frequencies --   1319.7530              1342.5209              1371.0074
 Red. masses --      1.1938                 1.7927                 1.3676
 Frc consts  --      1.2251                 1.9037                 1.5146
 IR Inten    --      0.5918                13.9899                 4.5402

                     70                     71                     72
                      A                      A                      A
 Frequencies --   1378.3282              1396.5079              1404.7605
 Red. masses --      1.9467                 1.3418                 1.4143
 Frc consts  --      2.1790                 1.5418                 1.6443
 IR Inten    --     45.4315                93.9949                35.4680

                     73                     74                     75
                      A                      A                      A
 Frequencies --   1416.5208              1430.2333              1444.3665
 Red. masses --      1.3658                 1.2900                 1.3148
 Frc consts  --      1.6146                 1.5547                 1.6161
 IR Inten    --     74.6476                 6.3457                43.8982

                     76                     77                     78
                      A                      A                      A
 Frequencies --   1451.3355              1462.4841              1495.4010
 Red. masses --      1.2537                 1.6514                 1.1190
 Frc consts  --      1.5559                 2.0810                 1.4744
 IR Inten    --     14.2751                52.8832                 8.8735

                     79                     80                     81
                      A                      A                      A
 Frequencies --   1510.6663              1515.6321              1516.4535
 Red. masses --      1.1039                 1.0608                 1.0489
 Frc consts  --      1.4843                 1.4357                 1.4211
 IR Inten    --      1.8326                 4.4485                 2.2230

                     82                     83                     84
                      A                      A                      A
 Frequencies --   1522.1049              1531.5503              1534.8554
 Red. masses --      1.2609                 1.1081                 1.0563
 Frc consts  --      1.7212                 1.5314                 1.4661
 IR Inten    --     14.8686                 7.0416                 5.1770

                     85                     86                     87
                      A                      A                      A
 Frequencies --   1536.8791              1538.6190              1550.5849
 Red. masses --      1.3012                 1.2918                 1.0981
 Frc consts  --      1.8109                 1.8017                 1.5555
 IR Inten    --     11.0244                42.9505                26.6635

                     88                     89                     90
                      A                      A                      A
 Frequencies --   1556.4588              1582.4601              1601.6379
 Red. masses --      2.9011                 1.1628                 2.4297
 Frc consts  --      4.1409                 1.7156                 3.6722
 IR Inten    --     50.8851                 9.2506               709.0154

                     91                     92                     93
                      A                      A                      A
 Frequencies --   1649.3384              1658.2601              3023.4557
 Red. masses --      4.6048                 3.2864                 1.0655
 Frc consts  --      7.3804                 5.3245                 5.7389
 IR Inten    --    352.5062               449.2653                31.8203

                     94                     95                     96
                      A                      A                      A
 Frequencies --   3032.8009              3043.6284              3050.5211
 Red. masses --      1.0353                 1.0747                 1.0408
 Frc consts  --      5.6104                 5.8659                 5.7067
 IR Inten    --     30.6468                92.9353                26.0763

                     97                     98                     99
                      A                      A                      A
 Frequencies --   3054.2174              3069.6020              3074.6720
 Red. masses --      1.0377                 1.0968                 1.0829
 Frc consts  --      5.7034                 6.0891                 6.0315
 IR Inten    --     20.2043                32.8960                27.2834

                    100                    101                    102
                      A                      A                      A
 Frequencies --   3079.8304              3091.7064              3097.5165
 Red. masses --      1.0840                 1.0818                 1.0934
 Frc consts  --      6.0582                 6.0924                 6.1809
 IR Inten    --     45.6290                35.2881                71.9938

                    103                    104                    105
                      A                      A                      A
 Frequencies --   3105.4168              3111.7779              3114.0213
 Red. masses --      1.1017                 1.1003                 1.1016
 Frc consts  --      6.2596                 6.2771                 6.2940
 IR Inten    --     12.5385                39.2007                51.3963

                    106                    107                    108
                      A                      A                      A
 Frequencies --   3144.5088              3153.0929              3162.5726
 Red. masses --      1.1017                 1.0975                 1.1019
 Frc consts  --      6.4182                 6.4289                 6.4936
 IR Inten    --      8.3966                18.2631                15.5127

                    109                    110                    111
                      A                      A                      A
 Frequencies --   3166.2003              3184.9167              3212.3834
 Red. masses --      1.0898                 1.0894                 1.0941
 Frc consts  --      6.4368                 6.5109                 6.6519
 IR Inten    --     38.9650                 0.9895                12.9830

                    112                    113                    114
                      A                      A                      A
 Frequencies --   3420.2509              3612.6630              3630.6272
 Red. masses --      1.0685                 1.0754                 1.0764
 Frc consts  --      7.3645                 8.2695                 8.3595
 IR Inten    --    447.2834                42.3252                26.4372

 - Thermochemistry -
 -------------------
 Temperature   298.150 Kelvin.  Pressure   1.00000 Atm.
 Atom     1 has atomic number  6 and mass  12.00000

 Molecular mass:   250.17936 amu.
 Principal axes and moments of inertia in atomic units:
                           1         2         3
     Eigenvalues --  3258.719255035.135236997.55397
           X            0.99918  -0.04037  -0.00114
           Y            0.04036   0.99917  -0.00525
           Z            0.00135   0.00520   0.99999
 This molecule is an asymmetric top.
 Rotational symmetry number  1.
 Warning -- assumption of classical behavior for rotation
           may cause significant error
 Rotational temperatures (Kelvin)      0.02658     0.01720     0.01238
 Rotational constants (GHZ):           0.55382     0.35843     0.25791
 Zero-point vibrational energy     923881.0 (Joules/Mol)
                                  220.81286 (Kcal/Mol)
 Warning -- explicit consideration of  28 degrees of freedom as
           vibrations may cause significant error
 Vibrational temperatures:     35.66    66.36    79.28   146.48   166.14
          (Kelvin)            192.09   202.67   227.92   272.97   310.28
                              329.00   351.32   366.51   375.81   384.36
                              431.32   455.84   485.63   505.28   606.09
                              617.19   627.92   650.61   677.17   735.41
                              760.69   792.38   819.40   909.89   926.42
                              978.95  1010.85  1068.44  1102.77  1125.29
                             1142.06  1162.16  1173.55  1218.88  1250.89
                             1257.11  1328.80  1342.89  1391.90  1406.72
                             1422.07  1431.01  1444.85  1472.74  1500.32
                             1533.74  1563.18  1595.13  1631.37  1661.19
                             1678.42  1698.98  1710.72  1726.21  1756.19
                             1798.50  1818.87  1837.82  1842.15  1861.27
                             1881.79  1898.83  1931.59  1972.57  1983.11
                             2009.26  2021.14  2038.06  2057.79  2078.12
                             2088.15  2104.19  2151.55  2173.51  2180.66
                             2181.84  2189.97  2203.56  2208.31  2211.23
                             2213.73  2230.95  2239.40  2276.81  2304.40
                             2373.03  2385.87  4350.08  4363.52  4379.10
                             4389.02  4394.34  4416.47  4423.77  4431.19
                             4448.28  4456.64  4468.00  4477.15  4480.38
                             4524.25  4536.60  4550.24  4555.46  4582.38
                             4621.90  4920.98  5197.82  5223.66

 Zero-point correction=                           0.351888 (Hartree/Particle)
 Thermal correction to Energy=                    0.369888
 Thermal correction to Enthalpy=                  0.370832
 Thermal correction to Gibbs Free Energy=         0.306333
 Sum of electronic and zero-point Energies=           -802.584952
 Sum of electronic and thermal Energies=              -802.566952
 Sum of electronic and thermal Enthalpies=            -802.566008
 Sum of electronic and thermal Free Energies=         -802.630508

                     E (Thermal)             CV                S
                      KCal/Mol        Cal/Mol-Kelvin    Cal/Mol-Kelvin
 Total                  232.108             70.386            135.751
 Electronic               0.000              0.000              0.000
 Translational            0.889              2.981             42.451
 Rotational               0.889              2.981             33.107
 Vibrational            230.331             64.424             60.193
 Vibration     1          0.593              1.985              6.208
 Vibration     2          0.595              1.979              4.977
 Vibration     3          0.596              1.976              4.625
 Vibration     4          0.604              1.948              3.419
 Vibration     5          0.608              1.937              3.175
 Vibration     6          0.613              1.920              2.895
 Vibration     7          0.615              1.912              2.792
 Vibration     8          0.621              1.893              2.569
 Vibration     9          0.633              1.854              2.231
 Vibration    10          0.645              1.817              1.995
 Vibration    11          0.651              1.797              1.889
 Vibration    12          0.660              1.772              1.772
 Vibration    13          0.665              1.755              1.698
 Vibration    14          0.669              1.744              1.654
 Vibration    15          0.672              1.733              1.615
 Vibration    16          0.692              1.674              1.418
 Vibration    17          0.704              1.641              1.326
 Vibration    18          0.718              1.601              1.224
 Vibration    19          0.728              1.573              1.161
 Vibration    20          0.784              1.424              0.888
 Vibration    21          0.790              1.407              0.862
 Vibration    22          0.797              1.391              0.838
 Vibration    23          0.811              1.356              0.789
 Vibration    24          0.828              1.315              0.736
 Vibration    25          0.866              1.225              0.631
 Vibration    26          0.884              1.186              0.590
 Vibration    27          0.906              1.138              0.543
 Vibration    28          0.926              1.097              0.505

 Optimization completed.
    -- Stationary point found.
 Normal termination of Gaussian 16 at Fri Dec 11 20:42:39 2020.

 ----------------------------------------------------------------------
 # B3LYP/6-311++G(d,p) empiricaldispersion=gd3bj scf=xqc pop=npa geom=c
 heck
 ----------------------------------------------------------------------

 ---------------------------------------
 CID_113610544_JID_8263_Energie_neutraal
 ---------------------------------------
 Structure from the checkpoint file:  "JID_8263.chk"
 Charge =  0 Multiplicity = 1

 SCF Done:  E(RB3LYP) =  -803.164943757     A.U. after   14 cycles
 Normal termination of Gaussian 16 at Fri Dec 11 20:50:05 2020.

 ----------------------------------------------------------------------
 # B3LYP/6-311++G(d,p) empiricaldispersion=gd3bj scf=xqc pop=npa geom=c
 heck
 ----------------------------------------------------------------------

 -------------------------------------
 CID_113610544_JID_8263_Energie_kation
 -------------------------------------
 Structure from the checkpoint file:  "JID_8263.chk"
 Charge =  1 Multiplicity = 2

 SCF Done:  E(UB3LYP) =  -802.892448141     A.U. after   23 cycles
 Normal termination of Gaussian 16 at Fri Dec 11 21:06:39 2020.
 Gaussian 16:  ES64L-G16RevA.03 25-Dec-2016

 ----------------------------------------------------------------------
 # B3LYP/6-311++G(d,p) empiricaldispersion=gd3bj scf=xqc pop=npa geom=c
 heck
 ----------------------------------------------------------------------

 ------------------------------------
 CID_113610544_JID_8263_Energie_anion
 ------------------------------------
 Structure from the checkpoint file:  "JID_8263.chk"
 Charge = -1 Multiplicity = 2

                         Standard orientation:
 ---------------------------------------------------------------------
 Center     Atomic      Atomic             Coordinates (Angstroms)
 Number     Number       Type             X           Y           Z
 ---------------------------------------------------------------------
      1          6           0        1.981958   -2.392212    1.436742
      2          6           0        2.739624   -2.644096    0.131363
      3          6           0        2.447162   -1.610480   -0.967793
      4          7           0        2.812121   -0.259184   -0.580460
      5          6           0        2.023045    0.790112   -0.230599
      6          7           0        2.715899    1.877900    0.170173
      7          6           0        1.977053    2.948717    0.471550
      8          6           0        0.600643    2.985855    0.372672
      9          6           0       -0.037445    1.794475   -0.046107
     10          7           0        0.673697    0.680778   -0.317719
     11          7           0       -1.396767    1.813288   -0.174206
     12          6           0       -2.359922    0.803313   -0.580946
     13          6           0       -1.968131   -0.183399   -1.713123
     14          6           0       -1.967273   -1.358693   -0.695200
     15          6           0       -2.638175   -0.420685    0.372933
     16          6           0       -1.988772   -0.385614    1.748746
     17          6           0       -4.141012   -0.685571    0.479249
     18          8           0       -0.685818   -1.828917   -0.361386
     19          1           0        2.213467   -1.398637    1.837335
     20          1           0        2.261370   -3.130192    2.196902
     21          1           0        0.901687   -2.453902    1.277249
     22          1           0        3.822192   -2.655832    0.324719
     23          1           0        2.485627   -3.635356   -0.266104
     24          1           0        3.013643   -1.869400   -1.872123
     25          1           0        1.393018   -1.629404   -1.239110
     26          1           0        3.791276   -0.065619   -0.417631
     27          1           0        2.527712    3.827630    0.804418
     28          1           0        0.033068    3.880739    0.603195
     29          1           0       -1.810219    2.679348    0.136308
     30          1           0       -3.271432    1.367878   -0.798470
     31          1           0       -2.745048   -0.256581   -2.479912
     32          1           0       -1.008013   -0.002356   -2.197346
     33          1           0       -2.564967   -2.234455   -0.967939
     34          1           0       -2.431117    0.409714    2.361151
     35          1           0       -2.144833   -1.338894    2.265735
     36          1           0       -0.912280   -0.211628    1.695844
     37          1           0       -4.616867   -0.716763   -0.509086
     38          1           0       -4.330103   -1.648478    0.968207
     39          1           0       -4.640627    0.095724    1.065851
     40          1           0       -0.128201   -1.021995   -0.259532
 ---------------------------------------------------------------------

 SCF Done:  E(UB3LYP) =  -803.155994995     A.U. after   33 cycles
 SCF Done:  E(UB3LYP) =  -803.155994995     a.u. after    1 cycles

 The electronic state is 2-A.
 Alpha  occ. eigenvalues --  -19.00875 -14.24063 -14.23878 -14.21315 -14.19914
 Alpha  occ. eigenvalues --  -10.18187 -10.16513 -10.11631 -10.11526 -10.11514
 Alpha  occ. eigenvalues --  -10.11012 -10.08476 -10.07944 -10.06788 -10.06591
 Alpha  occ. eigenvalues --  -10.06546 -10.06406 -10.05693  -0.92123  -0.90930
 Alpha  occ. eigenvalues --   -0.86006  -0.81809  -0.78139  -0.73895  -0.69935
 Alpha  occ. eigenvalues --   -0.66606  -0.64515  -0.60705  -0.58963  -0.58176
 Alpha  occ. eigenvalues --   -0.54711  -0.53034  -0.51692  -0.50388  -0.47980
 Alpha  occ. eigenvalues --   -0.44837  -0.42281  -0.40515  -0.38875  -0.38419
 Alpha  occ. eigenvalues --   -0.37952  -0.36777  -0.36265  -0.36187  -0.35031
 Alpha  occ. eigenvalues --   -0.34457  -0.33692  -0.32134  -0.31384  -0.30573
 Alpha  occ. eigenvalues --   -0.29924  -0.29777  -0.28450  -0.28024  -0.27498
 Alpha  occ. eigenvalues --   -0.26803  -0.26264  -0.25130  -0.24852  -0.23966
 Alpha  occ. eigenvalues --   -0.22405  -0.21946  -0.21602  -0.19401  -0.16169
 Alpha  occ. eigenvalues --   -0.15647  -0.14845  -0.11431   0.04102
 Alpha virt. eigenvalues --    0.05657   0.06805   0.07160   0.07468   0.08140
 Alpha virt. eigenvalues --    0.08285   0.08434   0.09216   0.09473   0.09988
 Alpha virt. eigenvalues --    0.10534   0.10763   0.11140   0.11478   0.12088

  Beta  occ. eigenvalues --  -19.00873 -14.24059 -14.23838 -14.21301 -14.19914
  Beta  occ. eigenvalues --  -10.18185 -10.16513 -10.11621 -10.11522 -10.11508
  Beta  occ. eigenvalues --  -10.10986 -10.08468 -10.07946 -10.06763 -10.06583
  Beta  occ. eigenvalues --  -10.06539 -10.06377 -10.05675  -0.92115  -0.90914
  Beta  occ. eigenvalues --   -0.85958  -0.81786  -0.78109  -0.73865  -0.69917
  Beta  occ. eigenvalues --   -0.66574  -0.64483  -0.60686  -0.58915  -0.58137
  Beta  occ. eigenvalues --   -0.54676  -0.53002  -0.51658  -0.50360  -0.47941
  Beta  occ. eigenvalues --   -0.44787  -0.42242  -0.40454  -0.38832  -0.38387
  Beta  occ. eigenvalues --   -0.37919  -0.36735  -0.36226  -0.36162  -0.35010
  Beta  occ. eigenvalues --   -0.34428  -0.33673  -0.32110  -0.31357  -0.30560
  Beta  occ. eigenvalues --   -0.29899  -0.29740  -0.28416  -0.28004  -0.27472
  Beta  occ. eigenvalues --   -0.26780  -0.26252  -0.25112  -0.24835  -0.23935
  Beta  occ. eigenvalues --   -0.22379  -0.21922  -0.21572  -0.19377  -0.16157
  Beta  occ. eigenvalues --   -0.15636  -0.14815  -0.11406
  Beta virt. eigenvalues --    0.05760   0.06860   0.07181   0.07408   0.07577
  Beta virt. eigenvalues --    0.08442   0.08765   0.08946   0.09221   0.09486
  Beta virt. eigenvalues --    0.10330   0.10833   0.11127   0.11273   0.11603

 Mulliken charges and spin densities:
               1          2
     1  C   -0.419650   0.024155
     2  C    0.067637  -0.546301
     3  C   -0.070356   0.042656
     4  N   -0.076929  -0.044705
     5  C   -0.217485  -0.166429
     6  N   -0.169058   0.061582
     7  C    0.764616  -0.976465
     8  C    0.063429  -0.190780
     9  C    0.002439   0.027496
    10  N   -0.337003   0.046999
    11  N   -0.127605   0.043918
    12  C    1.067863  -1.010252
    13  C   -0.208336  -0.284374
    14  C    0.337187  -0.401862
    15  C   -1.396447   1.487190
    16  C    0.205133  -0.675947
    17  C    0.966977  -1.477761
    18  O   -0.205427   0.014826
    19  H    0.084628   0.064717
    20  H   -0.000195   0.138930
    21  H    0.160799   0.039747
    22  H   -0.007507   0.128534
    23  H    0.065875   0.047730
    24  H   -0.031510   0.201294
    25  H    0.307640  -0.034606
    26  H    0.243032   0.063865
    27  H   -0.005633   0.183206
    28  H   -1.007882   1.176008
    29  H   -0.147769   0.486441
    30  H   -1.088737   1.331610
    31  H   -0.209233   0.368196
    32  H    0.198915   0.017476
    33  H    0.099243   0.123752
    34  H   -0.150539   0.306563
    35  H    0.131651   0.009900
    36  H    0.234616  -0.097351
    37  H   -0.060862   0.205268
    38  H    0.037338   0.094207
    39  H   -0.192269   0.347178
    40  H    0.091417  -0.176609
 Sum of Mulliken charges =  -1.00000   1.00000

 Dipole moment (field-independent basis, Debye):
    X=              5.9863    Y=             -6.3988    Z=             -0.5282  Tot=              8.7784
 Quadrupole moment (field-independent basis, Debye-Ang):
   XX=           -181.9752   YY=           -174.0848   ZZ=           -141.1506
   XY=             15.2258   XZ=             -3.3969   YZ=             -2.0823

 Summary of Natural Population Analysis:

                                       Natural Population
                Natural  -----------------------------------------------
    Atom  No    Charge         Core      Valence    Rydberg      Total
 -----------------------------------------------------------------------
      C    1   -0.29485      0.99966     2.29049    0.00471     3.29485
      C    2   -0.19069      0.99964     2.18438    0.00668     3.19069
      C    3   -0.09405      0.99961     2.08285    0.01159     3.09405
      N    4   -0.30499      0.99965     2.79554    0.00979     3.80499
      C    5    0.31422      0.99959     1.66765    0.01854     2.68578
      N    6   -0.29714      0.99968     2.78732    0.01015     3.79714
      C    7    0.05155      0.99959     1.93433    0.01454     2.94845
      C    8   -0.18173      0.99951     2.17256    0.00967     3.18173
      C    9    0.23357      0.99953     1.75171    0.01519     2.76643
      N   10   -0.32609      0.99963     2.81687    0.00959     3.82609
      N   11   -0.29697      0.99965     2.78383    0.01350     3.79697
      C   12   -0.00425      0.99954     1.98687    0.01784     3.00425
      C   13   -0.20985      0.99961     2.20192    0.00832     3.20985
      C   14    0.07539      0.99951     1.90931    0.01579     2.92461
      C   15   -0.05379      0.99955     2.04107    0.01317     3.05379
      C   16   -0.28866      0.99961     2.28140    0.00765     3.28866
      C   17   -0.28170      0.99962     2.27501    0.00707     3.28170
      O   18   -0.40450      0.99989     3.39807    0.00653     4.40450
      H   19    0.09848      0.00000     0.40042    0.00110     0.40152
      H   20    0.09499      0.00000     0.40424    0.00078     0.40501
      H   21    0.11174      0.00000     0.38674    0.00152     0.38826
      H   22    0.08878      0.00000     0.40988    0.00134     0.41122
      H   23    0.09650      0.00000     0.40239    0.00111     0.40350
      H   24    0.09113      0.00000     0.40800    0.00087     0.40887
      H   25    0.11245      0.00000     0.38530    0.00225     0.38755
      H   26    0.19358      0.00000     0.30384    0.00258     0.30642
      H   27    0.08971      0.00000     0.40913    0.00116     0.41029
      H   28    0.11127      0.00000     0.38664    0.00209     0.38873
      H   29    0.20309      0.00000     0.28373    0.01318     0.29691
      H   30    0.10633      0.00000     0.38821    0.00546     0.39367
      H   31    0.10375      0.00000     0.39514    0.00111     0.39625
      H   32    0.10971      0.00000     0.38913    0.00116     0.39029
      H   33    0.08279      0.00000     0.41615    0.00106     0.41721
      H   34    0.10294      0.00000     0.39612    0.00093     0.39706
      H   35    0.10042      0.00000     0.39881    0.00078     0.39958
      H   36    0.10505      0.00000     0.39348    0.00147     0.39495
      H   37    0.09981      0.00000     0.39896    0.00122     0.40019
      H   38    0.09769      0.00000     0.40143    0.00088     0.40231
      H   39    0.10339      0.00000     0.39544    0.00117     0.39661
      H   40    0.25093      0.00000     0.24428    0.00479     0.24907
 =======================================================================
   * Total *   -0.00000     17.99305    49.75862    0.24832    68.00000

 Normal termination of Gaussian 16 at Fri Dec 11 21:30:04 2020.
