 Gaussian 16, Revision A.03,

 -----------------------------------------------------------
 # opt freq B3LYP/6-31G(d) empiricaldispersion=gd3bj scf=xqc
 -----------------------------------------------------------

 -------------------------------
 CID_149752101_JID_2580_neutraal
 -------------------------------
 Symbolic Z-matrix:
 Charge =  0 Multiplicity = 1

 SCF Done:  E(RB3LYP) =  -1021.03028251     A.U. after   17 cycles
 SCF Done:  E(RB3LYP) =  -1021.04369416     A.U. after   15 cycles
 SCF Done:  E(RB3LYP) =  -1021.04539963     A.U. after   13 cycles
 SCF Done:  E(RB3LYP) =  -1021.04719153     A.U. after   14 cycles
 SCF Done:  E(RB3LYP) =  -1021.04783652     A.U. after   13 cycles
 SCF Done:  E(RB3LYP) =  -1021.04786906     A.U. after   14 cycles
 SCF Done:  E(RB3LYP) =  -1021.04789733     A.U. after   14 cycles
 SCF Done:  E(RB3LYP) =  -1021.04808791     A.U. after   13 cycles
 SCF Done:  E(RB3LYP) =  -1021.04812802     A.U. after   12 cycles
 SCF Done:  E(RB3LYP) =  -1021.04817223     A.U. after   11 cycles
 SCF Done:  E(RB3LYP) =  -1021.05094559     A.U. after   14 cycles
 SCF Done:  E(RB3LYP) =  -1021.05097312     A.U. after   12 cycles
 SCF Done:  E(RB3LYP) =  -1021.05099136     A.U. after   11 cycles
 SCF Done:  E(RB3LYP) =  -1021.05099261     A.U. after    9 cycles
 SCF Done:  E(RB3LYP) =  -1021.05099337     A.U. after    9 cycles
 SCF Done:  E(RB3LYP) =  -1021.05099351     A.U. after    7 cycles
 Optimization completed.
    -- Stationary point found.
 Normal termination of Gaussian 16 at Wed Dec  9 17:42:36 2020.

 --------------------------------------------------------------------
 #N Geom=AllCheck Guess=TCheck SCRF=Check GenChk RB3LYP/6-31G(d) Freq
 --------------------------------------------------------------------

 Structure from the checkpoint file:  "JID_2580.chk"
 -------------------------------
 CID_149752101_JID_2580_neutraal
 -------------------------------
 Charge =  0 Multiplicity = 1

 SCF Done:  E(RB3LYP) =  -1021.05099351     A.U. after    1 cycles

  Exact polarizability:  96.637   7.547 103.872   3.225   2.351  73.289
 Approx polarizability: 144.404  38.830 191.836   4.116   8.164 114.859

                      1                      2                      3
                      A                      A                      A
 Frequencies --     40.0631                51.8366                65.8540
 Red. masses --      8.3066                 9.1080                 7.0151
 Frc consts  --      0.0079                 0.0144                 0.0179
 IR Inten    --      0.2695                 1.2608                 3.9651

                      4                      5                      6
                      A                      A                      A
 Frequencies --     91.3478               141.8080               170.6118
 Red. masses --      3.1962                12.0434                 6.5070
 Frc consts  --      0.0157                 0.1427                 0.1116
 IR Inten    --      1.4769                 2.3176                 3.9444

                      7                      8                      9
                      A                      A                      A
 Frequencies --    184.6359               203.1266               221.6767
 Red. masses --      6.6441                 4.0491                 2.6084
 Frc consts  --      0.1335                 0.0984                 0.0755
 IR Inten    --      4.1851                 0.8121                 8.3460

                     10                     11                     12
                      A                      A                      A
 Frequencies --    260.7662               316.4258               335.2000
 Red. masses --      2.9475                 3.5308                 4.8621
 Frc consts  --      0.1181                 0.2083                 0.3219
 IR Inten    --      3.1816                 0.2408                 2.0362

                     13                     14                     15
                      A                      A                      A
 Frequencies --    381.1588               397.5020               417.9209
 Red. masses --      7.8931                10.9962                 1.1815
 Frc consts  --      0.6756                 1.0237                 0.1216
 IR Inten    --     19.0314                 2.7431               199.8152

                     16                     17                     18
                      A                      A                      A
 Frequencies --    450.3943               514.6936               541.9741
 Red. masses --      2.9189                 4.9895                 4.4337
 Frc consts  --      0.3489                 0.7788                 0.7673
 IR Inten    --     41.1252               100.0788                26.6037

                     19                     20                     21
                      A                      A                      A
 Frequencies --    566.3615               572.4622               694.4894
 Red. masses --      6.6415                12.6163                10.0431
 Frc consts  --      1.2552                 2.4360                 2.8540
 IR Inten    --     43.5960                22.1495                 2.9657

                     22                     23                     24
                      A                      A                      A
 Frequencies --    738.1768               782.2244               883.7170
 Red. masses --     10.2530                 1.2689                 2.3103
 Frc consts  --      3.2917                 0.4574                 1.0630
 IR Inten    --     88.6819                 0.2815                 7.4724

                     25                     26                     27
                      A                      A                      A
 Frequencies --    927.0193               955.2280               990.7549
 Red. masses --      2.4692                 1.9354                 1.8049
 Frc consts  --      1.2502                 1.0405                 1.0438
 IR Inten    --      8.6655                30.0533                12.9179

                     28                     29                     30
                      A                      A                      A
 Frequencies --   1089.8069              1113.1501              1117.5260
 Red. masses --      3.2711                 1.4945                 3.4166
 Frc consts  --      2.2890                 1.0911                 2.5139
 IR Inten    --     20.2232                33.4280                43.5533

                     31                     32                     33
                      A                      A                      A
 Frequencies --   1126.9715              1183.6741              1235.4094
 Red. masses --     10.2474                 4.0058                 1.3974
 Frc consts  --      7.6681                 3.3068                 1.2566
 IR Inten    --    173.2659               112.5638                15.9625

                     34                     35                     36
                      A                      A                      A
 Frequencies --   1259.4281              1279.2877              1288.4785
 Red. masses --      6.0661                 1.2543                 1.3176
 Frc consts  --      5.6690                 1.2094                 1.2888
 IR Inten    --    196.6644                 2.9703                 6.4487

                     37                     38                     39
                      A                      A                      A
 Frequencies --   1331.4585              1343.5851              1368.1313
 Red. masses --      2.5901                 1.1799                 1.8552
 Frc consts  --      2.7053                 1.2550                 2.0460
 IR Inten    --    153.4638                12.4740                81.4111

                     40                     41                     42
                      A                      A                      A
 Frequencies --   1382.6632              1399.8723              1444.2287
 Red. masses --      1.2260                 1.2303                 1.2695
 Frc consts  --      1.3809                 1.4205                 1.5601
 IR Inten    --      4.4957                 1.4107                38.1517

                     43                     44                     45
                      A                      A                      A
 Frequencies --   1459.3337              1499.1702              1522.0400
 Red. masses --      1.2963                 1.1115                 1.1018
 Frc consts  --      1.6265                 1.4719                 1.5038
 IR Inten    --     19.7957                 3.9928                 1.0435

                     46                     47                     48
                      A                      A                      A
 Frequencies --   1547.4448              1549.7454              2264.7796
 Red. masses --      1.0881                 1.0888                13.9387
 Frc consts  --      1.5351                 1.5406                42.1235
 IR Inten    --      0.9203                 1.1456               385.0144

                     49                     50                     51
                      A                      A                      A
 Frequencies --   3006.3222              3057.0956              3067.8085
 Red. masses --      1.0711                 1.0612                 1.0618
 Frc consts  --      5.7034                 5.8435                 5.8877
 IR Inten    --     81.2135                 1.3321                27.9005

                     52                     53                     54
                      A                      A                      A
 Frequencies --   3083.7260              3100.2547              3107.9869
 Red. masses --      1.0951                 1.0645                 1.0939
 Frc consts  --      6.1355                 6.0281                 6.2256
 IR Inten    --     17.3367                 7.5910                45.2527

                     55                     56                     57
                      A                      A                      A
 Frequencies --   3149.6855              3160.8111              3717.7094
 Red. masses --      1.1091                 1.1038                 1.0662
 Frc consts  --      6.4827                 6.4973                 8.6824
 IR Inten    --     27.5202                 1.8113                48.0046

 - Thermochemistry -
 -------------------
 Temperature   298.150 Kelvin.  Pressure   1.00000 Atm.
 Atom     1 has atomic number  6 and mass  12.00000

 Molecular mass:   195.03138 amu.
 Principal axes and moments of inertia in atomic units:
                           1         2         3
     Eigenvalues --  1601.327682974.831573282.75253
           X            0.99997  -0.00771  -0.00194
           Y            0.00762   0.99899  -0.04418
           Z            0.00228   0.04417   0.99902
 This molecule is an asymmetric top.
 Rotational symmetry number  1.
 Warning -- assumption of classical behavior for rotation
           may cause significant error
 Rotational temperatures (Kelvin)      0.05409     0.02912     0.02638
 Rotational constants (GHZ):           1.12703     0.60667     0.54976
 Zero-point vibrational energy     413638.8 (Joules/Mol)
                                   98.86206 (Kcal/Mol)
 Warning -- explicit consideration of  20 degrees of freedom as
           vibrations may cause significant error
 Vibrational temperatures:     57.64    74.58    94.75   131.43   204.03
          (Kelvin)            245.47   265.65   292.25   318.94   375.18
                              455.27   482.28   548.40   571.92   601.30
                              648.02   740.53   779.78   814.87   823.65
                              999.22  1062.07  1125.45  1271.47  1333.77
                             1374.36  1425.48  1567.99  1601.57  1607.87
                             1621.46  1703.04  1777.48  1812.04  1840.61
                             1853.83  1915.67  1933.12  1968.44  1989.34
                             2014.10  2077.92  2099.66  2156.97  2189.88
                             2226.43  2229.74  3258.51  4325.43  4398.48
                             4413.89  4436.79  4460.58  4471.70  4531.69
                             4547.70  5348.95

 Zero-point correction=                           0.157547 (Hartree/Particle)
 Thermal correction to Energy=                    0.170485
 Thermal correction to Enthalpy=                  0.171430
 Thermal correction to Gibbs Free Energy=         0.117140
 Sum of electronic and zero-point Energies=          -1020.893447
 Sum of electronic and thermal Energies=             -1020.880508
 Sum of electronic and thermal Enthalpies=           -1020.879564
 Sum of electronic and thermal Free Energies=        -1020.933853

                     E (Thermal)             CV                S
                      KCal/Mol        Cal/Mol-Kelvin    Cal/Mol-Kelvin
 Total                  106.981             45.571            114.261
 Electronic               0.000              0.000              0.000
 Translational            0.889              2.981             41.709
 Rotational               0.889              2.981             31.126
 Vibrational            105.204             39.610             41.427
 Vibration     1          0.594              1.981              5.256
 Vibration     2          0.596              1.977              4.746
 Vibration     3          0.597              1.971              4.274
 Vibration     4          0.602              1.955              3.631
 Vibration     5          0.615              1.911              2.779
 Vibration     6          0.626              1.879              2.429
 Vibration     7          0.631              1.861              2.281
 Vibration     8          0.639              1.835              2.105
 Vibration     9          0.648              1.808              1.945
 Vibration    10          0.669              1.745              1.657
 Vibration    11          0.703              1.642              1.329
 Vibration    12          0.716              1.605              1.235
 Vibration    13          0.751              1.510              1.035
 Vibration    14          0.764              1.475              0.972
 Vibration    15          0.781              1.431              0.899
 Vibration    16          0.809              1.360              0.795
 Vibration    17          0.870              1.217              0.622
 Vibration    18          0.897              1.157              0.561
 Vibration    19          0.922              1.104              0.511
 Vibration    20          0.929              1.091              0.500

 Optimization completed.
    -- Stationary point found.
 Normal termination of Gaussian 16 at Wed Dec  9 17:47:17 2020.

 ----------------------------------------------------------------------
 # B3LYP/6-311++G(d,p) empiricaldispersion=gd3bj scf=xqc pop=npa geom=c
 heck
 ----------------------------------------------------------------------

 ---------------------------------------
 CID_149752101_JID_2580_Energie_neutraal
 ---------------------------------------
 Structure from the checkpoint file:  "JID_2580.chk"
 Charge =  0 Multiplicity = 1

 SCF Done:  E(RB3LYP) =  -1021.27161627     A.U. after   16 cycles
 Normal termination of Gaussian 16 at Wed Dec  9 17:49:24 2020.

 ----------------------------------------------------------------------
 # B3LYP/6-311++G(d,p) empiricaldispersion=gd3bj scf=xqc pop=npa geom=c
 heck
 ----------------------------------------------------------------------

 -------------------------------------
 CID_149752101_JID_2580_Energie_kation
 -------------------------------------
 Structure from the checkpoint file:  "JID_2580.chk"
 Charge =  1 Multiplicity = 2

 SCF Done:  E(UB3LYP) =  -1020.91253820     A.U. after   28 cycles
 Normal termination of Gaussian 16 at Wed Dec  9 17:53:14 2020.
 Gaussian 16:  ES64L-G16RevA.03 25-Dec-2016

 ----------------------------------------------------------------------
 # B3LYP/6-311++G(d,p) empiricaldispersion=gd3bj scf=xqc pop=npa geom=c
 heck
 ----------------------------------------------------------------------

 ------------------------------------
 CID_149752101_JID_2580_Energie_anion
 ------------------------------------
 Structure from the checkpoint file:  "JID_2580.chk"
 Charge = -1 Multiplicity = 2

                         Standard orientation:
 ---------------------------------------------------------------------
 Center     Atomic      Atomic             Coordinates (Angstroms)
 Number     Number       Type             X           Y           Z
 ---------------------------------------------------------------------
      1          6           0        2.260550   -0.805841    0.489015
      2          6           0        3.286236   -0.115680   -0.421709
      3          8           0        2.677638    0.759364   -1.357488
      4          6           0        1.379178    0.230448    1.176922
      5          8           0        0.164664   -0.269236    1.792706
      6          6           0       -0.575848   -1.225819    1.147071
      7         16           0       -1.349617   -0.646045   -0.446963
      8          8           0       -0.298878   -0.193515   -1.370188
      9          8           0       -2.357848   -1.613461   -0.856099
     10          7           0       -2.253983    0.754190    0.111656
     11          7           0       -1.558892    1.788694    0.160474
     12          7           0       -1.009448    2.779988    0.223845
     13          1           0        2.768384   -1.446347    1.220013
     14          1           0        1.657599   -1.458662   -0.151042
     15          1           0        3.971552    0.505450    0.166088
     16          1           0        3.892109   -0.886736   -0.922873
     17          1           0        1.909903    0.305636   -1.744850
     18          1           0        1.909664    0.702546    2.007002
     19          1           0        1.112799    1.009127    0.458729
     20          1           0       -0.030186   -2.129640    0.848895
     21          1           0       -1.426977   -1.488606    1.778375
 ---------------------------------------------------------------------

 SCF Done:  E(UB3LYP) =  -1021.28941347     A.U. after   29 cycles

 The electronic state is 2-A.
 Alpha  occ. eigenvalues --  -88.90275 -19.03869 -19.01252 -18.99294 -18.99123
 Alpha  occ. eigenvalues --  -14.28079 -14.20668 -14.19439 -10.14095 -10.12098
 Alpha  occ. eigenvalues --  -10.11167 -10.07254  -7.96996  -5.93239  -5.93171
 Alpha  occ. eigenvalues --   -5.93010  -0.99366  -0.96074  -0.94957  -0.91658
 Alpha  occ. eigenvalues --   -0.88362  -0.80708  -0.68537  -0.63611  -0.57239
 Alpha  occ. eigenvalues --   -0.53867  -0.49535  -0.43255  -0.40281  -0.40202
 Alpha  occ. eigenvalues --   -0.39151  -0.36709  -0.36120  -0.35294  -0.33236
 Alpha  occ. eigenvalues --   -0.32839  -0.32133  -0.31122  -0.29382  -0.28526
 Alpha  occ. eigenvalues --   -0.27077  -0.24584  -0.23488  -0.22841  -0.21194
 Alpha  occ. eigenvalues --   -0.20315  -0.19031  -0.17470  -0.16519  -0.14326
 Alpha  occ. eigenvalues --   -0.11871   0.04534
 Alpha virt. eigenvalues --    0.06631   0.08759   0.09066   0.10447   0.11833
 Alpha virt. eigenvalues --    0.12015   0.13004   0.13694   0.15048   0.15390
 Alpha virt. eigenvalues --    0.15989   0.16247   0.17691   0.17752   0.18312

  Beta  occ. eigenvalues --  -88.90104 -19.03853 -19.01244 -18.99239 -18.99068
  Beta  occ. eigenvalues --  -14.27552 -14.20646 -14.18615 -10.14032 -10.12090
  Beta  occ. eigenvalues --  -10.11162 -10.07239  -7.96807  -5.93107  -5.92882
  Beta  occ. eigenvalues --   -5.92817  -0.98966  -0.95115  -0.94882  -0.91639
  Beta  occ. eigenvalues --   -0.88204  -0.80034  -0.68499  -0.63411  -0.56961
  Beta  occ. eigenvalues --   -0.53342  -0.49225  -0.43037  -0.40230  -0.40097
  Beta  occ. eigenvalues --   -0.38931  -0.36574  -0.35819  -0.34142  -0.32903
  Beta  occ. eigenvalues --   -0.32325  -0.31482  -0.30854  -0.28978  -0.27171
  Beta  occ. eigenvalues --   -0.26837  -0.23966  -0.23336  -0.22812  -0.21037
  Beta  occ. eigenvalues --   -0.20072  -0.18784  -0.17370  -0.16022  -0.13420
  Beta  occ. eigenvalues --   -0.11525
  Beta virt. eigenvalues --    0.06870   0.08964   0.09085   0.10493   0.11660
  Beta virt. eigenvalues --    0.11950   0.12641   0.13209   0.14122   0.15210
  Beta virt. eigenvalues --    0.15471   0.16008   0.16496   0.17716   0.17914

 Mulliken charges and spin densities:
               1          2
     1  C   -0.007487   0.075784
     2  C   -0.004405  -0.470469
     3  O   -0.261036  -0.002035
     4  C   -0.475971  -0.092963
     5  O   -0.025588   0.014297
     6  C   -0.351569  -0.220891
     7  S    0.452478   0.109859
     8  O   -0.331886   0.018346
     9  O   -0.176861   0.027637
    10  N   -0.336884  -0.008543
    11  N    0.320900   0.116990
    12  N   -0.507689   0.485514
    13  H   -0.217871   0.357655
    14  H    0.210205  -0.053373
    15  H    0.090667   0.047602
    16  H   -0.053339   0.189273
    17  H    0.246725   0.035001
    18  H    0.091103   0.044033
    19  H    0.209568   0.016859
    20  H   -0.123309   0.323973
    21  H    0.252250  -0.014550
 Sum of Mulliken charges =  -1.00000   1.00000

 Dipole moment (field-independent basis, Debye):
    X=              3.5202    Y=             -2.7464    Z=              2.0542  Tot=              4.9147
 Quadrupole moment (field-independent basis, Debye-Ang):
   XX=           -111.1070   YY=           -109.9601   ZZ=            -94.1292
   XY=             -0.5150   XZ=             -0.3822   YZ=             -0.2869

 Summary of Natural Population Analysis:

                                       Natural Population
                Natural  -----------------------------------------------
    Atom  No    Charge         Core      Valence    Rydberg      Total
 -----------------------------------------------------------------------
      C    1   -0.22540      0.99963     2.21752    0.00825     3.22540
      C    2   -0.00396      0.99961     1.99304    0.01131     3.00396
      O    3   -0.37342      0.99990     3.36604    0.00748     4.37342
      C    4   -0.01855      0.99954     2.00534    0.01366     3.01855
      O    5   -0.28937      0.99988     3.27922    0.01027     4.28937
      C    6   -0.09735      0.99958     2.07831    0.01946     3.09735
      S    7    1.07797      4.99938     1.82388    0.09876     6.92203
      O    8   -0.48006      0.99990     3.47342    0.00674     4.48006
      O    9   -0.45863      0.99990     3.45295    0.00578     4.45863
      N   10   -0.33067      0.99974     2.81578    0.01515     3.83067
      N   11    0.14366      0.99971     2.34073    0.01590     3.35634
      N   12    0.07524      0.99981     2.41208    0.01286     3.42476
      H   13    0.09800      0.00000     0.40057    0.00143     0.40200
      H   14    0.10225      0.00000     0.39563    0.00212     0.39775
      H   15    0.07990      0.00000     0.41875    0.00135     0.42010
      H   16    0.07364      0.00000     0.42480    0.00156     0.42636
      H   17    0.24018      0.00000     0.25651    0.00332     0.25982
      H   18    0.08715      0.00000     0.41161    0.00124     0.41285
      H   19    0.10577      0.00000     0.39230    0.00193     0.39423
      H   20    0.08915      0.00000     0.40888    0.00197     0.41085
      H   21    0.10448      0.00000     0.39442    0.00110     0.39552
 =======================================================================
   * Total *   -0.00000     15.99658    34.76177    0.24164    51.00000

 Normal termination of Gaussian 16 at Wed Dec  9 17:57:51 2020.
