 Gaussian 16, Revision A.03,

 -----------------------------------------------------------
 # opt freq B3LYP/6-31G(d) empiricaldispersion=gd3bj scf=xqc
 -----------------------------------------------------------

 ------------------------------
 CID_66278336_JID_6555_neutraal
 ------------------------------
 Symbolic Z-matrix:
 Charge =  0 Multiplicity = 1

 SCF Done:  E(RB3LYP) =  -1404.93414535     A.U. after   15 cycles
 SCF Done:  E(RB3LYP) =  -1404.94163048     A.U. after   12 cycles
 SCF Done:  E(RB3LYP) =  -1404.94322205     A.U. after   12 cycles
 SCF Done:  E(RB3LYP) =  -1404.94372932     A.U. after   12 cycles
 SCF Done:  E(RB3LYP) =  -1404.94417106     A.U. after   12 cycles
 SCF Done:  E(RB3LYP) =  -1404.94430476     A.U. after   11 cycles
 SCF Done:  E(RB3LYP) =  -1404.94435464     A.U. after   11 cycles
 SCF Done:  E(RB3LYP) =  -1404.94437292     A.U. after    9 cycles
 SCF Done:  E(RB3LYP) =  -1404.94438513     A.U. after    9 cycles
 SCF Done:  E(RB3LYP) =  -1404.94439533     A.U. after    9 cycles
 SCF Done:  E(RB3LYP) =  -1404.94440852     A.U. after   10 cycles
 SCF Done:  E(RB3LYP) =  -1404.94441177     A.U. after    9 cycles
 SCF Done:  E(RB3LYP) =  -1404.94441273     A.U. after    8 cycles
 SCF Done:  E(RB3LYP) =  -1404.94441269     A.U. after    7 cycles
 Optimization completed.
    -- Stationary point found.
 Normal termination of Gaussian 16 at Thu Dec 10 23:32:59 2020.

 --------------------------------------------------------------------
 #N Geom=AllCheck Guess=TCheck SCRF=Check GenChk RB3LYP/6-31G(d) Freq
 --------------------------------------------------------------------

 Structure from the checkpoint file:  "JID_6555.chk"
 ------------------------------
 CID_66278336_JID_6555_neutraal
 ------------------------------
 Charge =  0 Multiplicity = 1

 SCF Done:  E(RB3LYP) =  -1404.94441269     A.U. after    1 cycles

  Exact polarizability: 221.639  -1.546 145.028  -1.254   8.660 125.353
 Approx polarizability: 300.044 -18.137 254.380  -9.408  29.536 202.210

                      1                      2                      3
                      A                      A                      A
 Frequencies --     28.6042                37.0778                59.4338
 Red. masses --      4.1908                 7.2372                 4.3772
 Frc consts  --      0.0020                 0.0059                 0.0091
 IR Inten    --      0.0439                 1.6504                 0.1848

                      4                      5                      6
                      A                      A                      A
 Frequencies --     77.1466               109.7116               129.1480
 Red. masses --      3.3251                 1.1036                 1.6327
 Frc consts  --      0.0117                 0.0078                 0.0160
 IR Inten    --      0.5824                 0.4308                 0.8297

                      7                      8                      9
                      A                      A                      A
 Frequencies --    140.4263               168.5859               189.0276
 Red. masses --      6.0649                 2.8255                 2.1452
 Frc consts  --      0.0705                 0.0473                 0.0452
 IR Inten    --      1.4017                 1.3466                 2.1141

                     10                     11                     12
                      A                      A                      A
 Frequencies --    206.7367               226.5543               236.5271
 Red. masses --      4.3268                 1.3341                 2.2010
 Frc consts  --      0.1090                 0.0403                 0.0725
 IR Inten    --      4.0924                 1.9278                 1.6037

                     13                     14                     15
                      A                      A                      A
 Frequencies --    258.4352               270.2052               297.2446
 Red. masses --      3.4685                 4.3776                 3.4353
 Frc consts  --      0.1365                 0.1883                 0.1788
 IR Inten    --      5.0140                 5.8918                 5.4250

                     16                     17                     18
                      A                      A                      A
 Frequencies --    304.5618               362.8140               382.0287
 Red. masses --      4.4740                 1.5965                 3.1584
 Frc consts  --      0.2445                 0.1238                 0.2716
 IR Inten    --      6.5149                24.5389                 2.7310

                     19                     20                     21
                      A                      A                      A
 Frequencies --    391.1122               446.8545               476.9377
 Red. masses --      2.7016                 3.0407                 1.4717
 Frc consts  --      0.2435                 0.3577                 0.1972
 IR Inten    --     15.0411                12.3447                65.4526

                     22                     23                     24
                      A                      A                      A
 Frequencies --    505.8980               507.3685               533.9273
 Red. masses --      5.0321                 3.9440                 3.7761
 Frc consts  --      0.7588                 0.5982                 0.6342
 IR Inten    --      2.0336                10.0130                10.1112

                     25                     26                     27
                      A                      A                      A
 Frequencies --    576.9679               585.3124               617.6693
 Red. masses --      2.1147                 4.3164                 3.8431
 Frc consts  --      0.4148                 0.8713                 0.8639
 IR Inten    --    222.6597                38.9966                22.7129

                     28                     29                     30
                      A                      A                      A
 Frequencies --    624.8175               650.6568               688.7782
 Red. masses --      4.0579                 4.1593                 4.3909
 Frc consts  --      0.9334                 1.0375                 1.2273
 IR Inten    --     63.9266                 8.1046                 2.4767

                     31                     32                     33
                      A                      A                      A
 Frequencies --    699.0589               719.9784               744.1172
 Red. masses --      4.7545                 4.6762                 8.1543
 Frc consts  --      1.3689                 1.4282                 2.6602
 IR Inten    --      0.6038                 4.1025                51.7083

                     34                     35                     36
                      A                      A                      A
 Frequencies --    762.7320               806.5160               847.1025
 Red. masses --      4.7376                 8.6435                 1.4035
 Frc consts  --      1.6239                 3.3126                 0.5934
 IR Inten    --     31.9222                32.2076                12.9013

                     37                     38                     39
                      A                      A                      A
 Frequencies --    870.1802               928.5377              1018.1139
 Red. masses --      2.5195                 2.2099                 1.7448
 Frc consts  --      1.1241                 1.1226                 1.0656
 IR Inten    --      3.0223                 1.8972                 1.3766

                     40                     41                     42
                      A                      A                      A
 Frequencies --   1027.3266              1059.0373              1066.9698
 Red. masses --      2.2640                 2.2788                 1.3783
 Frc consts  --      1.4078                 1.5058                 0.9245
 IR Inten    --      3.7632                37.3379                 2.2542

                     43                     44                     45
                      A                      A                      A
 Frequencies --   1073.6719              1113.9035              1141.1577
 Red. masses --      1.4025                 1.8927                 2.1933
 Frc consts  --      0.9526                 1.3837                 1.6828
 IR Inten    --      1.6122                 5.4279                11.5181

                     46                     47                     48
                      A                      A                      A
 Frequencies --   1149.7663              1154.9939              1177.4626
 Red. masses --      1.8877                 2.5202                 2.9115
 Frc consts  --      1.4703                 1.9809                 2.3782
 IR Inten    --     14.0081                33.4113                33.1176

                     49                     50                     51
                      A                      A                      A
 Frequencies --   1194.3776              1233.0667              1314.0020
 Red. masses --      2.7163                 2.2346                 3.9914
 Frc consts  --      2.2831                 2.0018                 4.0604
 IR Inten    --      1.4954                 7.6621                61.4785

                     52                     53                     54
                      A                      A                      A
 Frequencies --   1350.1403              1387.6610              1409.1743
 Red. masses --      1.9660                 1.2311                 1.9030
 Frc consts  --      2.1115                 1.3967                 2.2264
 IR Inten    --     43.6361                98.2486                11.4970

                     55                     56                     57
                      A                      A                      A
 Frequencies --   1438.2538              1441.3026              1445.3263
 Red. masses --      2.4303                 1.3320                 1.4500
 Frc consts  --      2.9620                 1.6303                 1.7846
 IR Inten    --    287.2239                65.3611                46.4257

                     58                     59                     60
                      A                      A                      A
 Frequencies --   1448.9328              1465.8731              1507.9309
 Red. masses --      1.2283                 1.7998                 1.0421
 Frc consts  --      1.5193                 2.2785                 1.3962
 IR Inten    --      4.6200                21.8961                 7.4098

                     61                     62                     63
                      A                      A                      A
 Frequencies --   1514.8029              1519.2108              1520.8766
 Red. masses --      1.1633                 1.1293                 1.0786
 Frc consts  --      1.5727                 1.5357                 1.4699
 IR Inten    --      4.2457                 2.3034                 4.1473

                     64                     65                     66
                      A                      A                      A
 Frequencies --   1528.6345              1530.1388              1564.2030
 Red. masses --      1.0873                 1.0471                 3.6344
 Frc consts  --      1.4970                 1.4445                 5.2392
 IR Inten    --      1.6275                 9.8249                10.9067

                     67                     68                     69
                      A                      A                      A
 Frequencies --   1572.5171              1626.2746              1633.1771
 Red. masses --      3.6745                 6.4896                 5.8289
 Frc consts  --      5.3535                10.1124                 9.1601
 IR Inten    --    108.1800               491.3273                73.7651

                     70                     71                     72
                      A                      A                      A
 Frequencies --   1669.2647              3009.6102              3045.7473
 Red. masses --      1.4070                 1.0842                 1.0388
 Frc consts  --      2.3099                 5.7859                 5.6776
 IR Inten    --    194.9926                17.5339                50.7329

                     73                     74                     75
                      A                      A                      A
 Frequencies --   3046.1889              3068.9298              3098.0675
 Red. masses --      1.0388                 1.0354                 1.1018
 Frc consts  --      5.6793                 5.7458                 6.2306
 IR Inten    --     15.7641                14.4832                17.8691

                     76                     77                     78
                      A                      A                      A
 Frequencies --   3099.1807              3130.0237              3137.2360
 Red. masses --      1.0985                 1.1009                 1.1028
 Frc consts  --      6.2165                 6.3549                 6.3952
 IR Inten    --      9.7176                11.8817                30.5542

                     79                     80                     81
                      A                      A                      A
 Frequencies --   3146.1274              3155.8223              3204.2476
 Red. masses --      1.0997                 1.1015                 1.0928
 Frc consts  --      6.4134                 6.4633                 6.6104
 IR Inten    --     11.0919                11.0176                 7.9727

                     82                     83                     84
                      A                      A                      A
 Frequencies --   3574.3182              3594.2302              3685.6182
 Red. masses --      1.0467                 1.0762                 1.1002
 Frc consts  --      7.8786                 8.1913                 8.8049
 IR Inten    --     35.4318                42.1999                25.7849

 - Thermochemistry -
 -------------------
 Temperature   298.150 Kelvin.  Pressure   1.00000 Atm.
 Atom     1 has atomic number  6 and mass  12.00000

 Molecular mass:   254.06599 amu.
 Principal axes and moments of inertia in atomic units:
                           1         2         3
     Eigenvalues --  1838.291439900.78893**********
           X            0.99994   0.01131   0.00051
           Y           -0.01088   0.97259  -0.23226
           Z           -0.00313   0.23224   0.97265
 This molecule is an asymmetric top.
 Rotational symmetry number  1.
 Warning -- assumption of classical behavior for rotation
           may cause significant error
 Rotational temperatures (Kelvin)      0.04712     0.00875     0.00862
 Rotational constants (GHZ):           0.98175     0.18228     0.17963
 Zero-point vibrational energy     626614.0 (Joules/Mol)
                                  149.76435 (Kcal/Mol)
 Warning -- explicit consideration of  27 degrees of freedom as
           vibrations may cause significant error
 Vibrational temperatures:     41.16    53.35    85.51   111.00   157.85
          (Kelvin)            185.82   202.04   242.56   271.97   297.45
                              325.96   340.31   371.83   388.76   427.67
                              438.20   522.01   549.65   562.72   642.92
                              686.21   727.87   729.99   768.20   830.13
                              842.13   888.69   898.97   936.15   991.00
                             1005.79  1035.89  1070.62  1097.40  1160.40
                             1218.79  1252.00  1335.96  1464.84  1478.09
                             1523.72  1535.13  1544.77  1602.66  1641.87
                             1654.26  1661.78  1694.11  1718.44  1774.11
                             1890.56  1942.55  1996.53  2027.49  2069.33
                             2073.71  2079.50  2084.69  2109.06  2169.58
                             2179.46  2185.81  2188.20  2199.36  2201.53
                             2250.54  2262.50  2339.85  2349.78  2401.70
                             4330.16  4382.15  4382.79  4415.51  4457.43
                             4459.03  4503.41  4513.78  4526.58  4540.52
                             4610.20  5142.65  5171.30  5302.78

 Zero-point correction=                           0.238665 (Hartree/Particle)
 Thermal correction to Energy=                    0.255510
 Thermal correction to Enthalpy=                  0.256454
 Thermal correction to Gibbs Free Energy=         0.193172
 Sum of electronic and zero-point Energies=          -1404.705748
 Sum of electronic and thermal Energies=             -1404.688903
 Sum of electronic and thermal Enthalpies=           -1404.687959
 Sum of electronic and thermal Free Energies=        -1404.751241

                     E (Thermal)             CV                S
                      KCal/Mol        Cal/Mol-Kelvin    Cal/Mol-Kelvin
 Total                  160.335             62.519            133.189
 Electronic               0.000              0.000              0.000
 Translational            0.889              2.981             42.497
 Rotational               0.889              2.981             33.569
 Vibrational            158.557             56.558             57.122
 Vibration     1          0.593              1.984              5.924
 Vibration     2          0.594              1.982              5.409
 Vibration     3          0.597              1.974              4.476
 Vibration     4          0.599              1.964              3.962
 Vibration     5          0.606              1.941              3.274
 Vibration     6          0.612              1.924              2.959
 Vibration     7          0.615              1.913              2.798
 Vibration     8          0.625              1.881              2.451
 Vibration     9          0.633              1.855              2.237
 Vibration    10          0.641              1.830              2.072
 Vibration    11          0.650              1.801              1.906
 Vibration    12          0.655              1.785              1.829
 Vibration    13          0.667              1.748              1.672
 Vibration    14          0.674              1.728              1.595
 Vibration    15          0.691              1.679              1.432
 Vibration    16          0.695              1.665              1.392
 Vibration    17          0.737              1.549              1.110
 Vibration    18          0.751              1.509              1.031
 Vibration    19          0.759              1.489              0.996
 Vibration    20          0.806              1.368              0.805
 Vibration    21          0.834              1.301              0.718
 Vibration    22          0.861              1.237              0.644
 Vibration    23          0.863              1.234              0.640
 Vibration    24          0.889              1.175              0.578
 Vibration    25          0.933              1.081              0.491
 Vibration    26          0.942              1.063              0.476
 Vibration    27          0.977              0.995              0.420

                           ! Non-Optimized Parameters !
 Normal termination of Gaussian 16 at Thu Dec 10 23:41:47 2020.

 ----------------------------------------------------------------------
 # B3LYP/6-311++G(d,p) empiricaldispersion=gd3bj scf=xqc pop=npa geom=c
 heck
 ----------------------------------------------------------------------

 --------------------------------------
 CID_66278336_JID_6555_Energie_neutraal
 --------------------------------------
 Structure from the checkpoint file:  "JID_6555.chk"
 Charge =  0 Multiplicity = 1

 SCF Done:  E(RB3LYP) =  -1405.16960331     A.U. after   17 cycles
 Normal termination of Gaussian 16 at Thu Dec 10 23:46:49 2020.

 ----------------------------------------------------------------------
 # B3LYP/6-311++G(d,p) empiricaldispersion=gd3bj scf=xqc pop=npa geom=c
 heck
 ----------------------------------------------------------------------

 ------------------------------------
 CID_66278336_JID_6555_Energie_kation
 ------------------------------------
 Structure from the checkpoint file:  "JID_6555.chk"
 Charge =  1 Multiplicity = 2

 SCF Done:  E(UB3LYP) =  -1404.89198874     A.U. after   30 cycles
 Normal termination of Gaussian 16 at Thu Dec 10 23:59:28 2020.
 Gaussian 16:  ES64L-G16RevA.03 25-Dec-2016

 ----------------------------------------------------------------------
 # B3LYP/6-311++G(d,p) empiricaldispersion=gd3bj scf=xqc pop=npa geom=c
 heck
 ----------------------------------------------------------------------

 -----------------------------------
 CID_66278336_JID_6555_Energie_anion
 -----------------------------------
 Structure from the checkpoint file:  "JID_6555.chk"
 Charge = -1 Multiplicity = 2

                         Standard orientation:
 ---------------------------------------------------------------------
 Center     Atomic      Atomic             Coordinates (Angstroms)
 Number     Number       Type             X           Y           Z
 ---------------------------------------------------------------------
      1          6           0       -4.738254   -1.773285    1.187182
      2          6           0       -3.658136   -0.903666    0.621790
      3          6           0       -2.410343   -1.261381    0.197189
      4          6           0       -1.613698   -0.170907   -0.286327
      5          6           0       -2.270762    1.035938   -0.221800
      6         16           0       -3.877663    0.821362    0.438629
      7          6           0       -1.826142    2.404927   -0.651048
      8          6           0       -0.211155   -0.376447   -0.815108
      9          6           0       -0.103923   -0.090233   -2.321211
     10          7           0        0.729850    0.449997   -0.039393
     11          6           0        2.046757    0.150010    0.088930
     12          7           0        2.829193    0.690009    0.993749
     13          6           0        4.094105    0.165708    0.843413
     14          7           0        4.355014   -0.738662   -0.078077
     15         16           0        2.911232   -1.003842   -0.930782
     16          7           0        5.090577    0.650976    1.663923
     17          1           0       -5.010986   -1.475918    2.206854
     18          1           0       -5.650619   -1.738805    0.579785
     19          1           0       -4.395434   -2.811928    1.220207
     20          1           0       -2.051212   -2.285597    0.228348
     21          1           0       -2.284808    2.694998   -1.604911
     22          1           0       -2.102195    3.165627    0.087581
     23          1           0       -0.741581    2.439156   -0.777473
     24          1           0        0.053829   -1.431612   -0.652276
     25          1           0       -0.388318    0.941174   -2.542990
     26          1           0        0.916107   -0.249239   -2.683860
     27          1           0       -0.772781   -0.760722   -2.869892
     28          1           0        0.344905    0.931195    0.764104
     29          1           0        4.759383    0.998586    2.553746
     30          1           0        5.903479    0.052539    1.725762
 ---------------------------------------------------------------------

 SCF Done:  E(UB3LYP) =  -1405.15969985     A.U. after   33 cycles
 SCF Done:  E(UB3LYP) =  -1405.15969985     a.u. after    1 cycles

 The electronic state is 2-A.
 Alpha  occ. eigenvalues --  -88.79399 -88.76113 -14.25279 -14.22947 -14.21191
 Alpha  occ. eigenvalues --  -14.21019 -10.18006 -10.17148 -10.13208 -10.09170
 Alpha  occ. eigenvalues --  -10.09167 -10.08168 -10.07910 -10.07480 -10.06978
 Alpha  occ. eigenvalues --  -10.06629  -7.87848  -7.84765  -5.84257  -5.83812
 Alpha  occ. eigenvalues --   -5.83297  -5.81055  -5.80695  -5.80357  -0.92126
 Alpha  occ. eigenvalues --   -0.86362  -0.80612  -0.77928  -0.76746  -0.69250
 Alpha  occ. eigenvalues --   -0.67169  -0.64186  -0.63128  -0.61263  -0.56591
 Alpha  occ. eigenvalues --   -0.54117  -0.50504  -0.50300  -0.44794  -0.43825
 Alpha  occ. eigenvalues --   -0.42719  -0.40620  -0.38937  -0.37898  -0.36626
 Alpha  occ. eigenvalues --   -0.35001  -0.34283  -0.33318  -0.32703  -0.32555
 Alpha  occ. eigenvalues --   -0.31828  -0.31182  -0.29506  -0.28625  -0.28087
 Alpha  occ. eigenvalues --   -0.27005  -0.25515  -0.24939  -0.24427  -0.22741
 Alpha  occ. eigenvalues --   -0.22292  -0.21392  -0.18424  -0.16065  -0.14757
 Alpha  occ. eigenvalues --   -0.12276  -0.12141   0.04252
 Alpha virt. eigenvalues --    0.05387   0.06401   0.07119   0.07862   0.08262
 Alpha virt. eigenvalues --    0.08795   0.09026   0.09390   0.09852   0.10342
 Alpha virt. eigenvalues --    0.10733   0.11055   0.11260   0.11702   0.12503

  Beta  occ. eigenvalues --  -88.79391 -88.76098 -14.25282 -14.22900 -14.21157
  Beta  occ. eigenvalues --  -14.21007 -10.17964 -10.17145 -10.13205 -10.08993
  Beta  occ. eigenvalues --  -10.08971 -10.08162 -10.07909 -10.07473 -10.06938
  Beta  occ. eigenvalues --  -10.06641  -7.87840  -7.84750  -5.84239  -5.83807
  Beta  occ. eigenvalues --   -5.83289  -5.81053  -5.80691  -5.80301  -0.92083
  Beta  occ. eigenvalues --   -0.86331  -0.80536  -0.77776  -0.76665  -0.69128
  Beta  occ. eigenvalues --   -0.66985  -0.64126  -0.63052  -0.61183  -0.56531
  Beta  occ. eigenvalues --   -0.54025  -0.50451  -0.50225  -0.44645  -0.43723
  Beta  occ. eigenvalues --   -0.42636  -0.40506  -0.38860  -0.37836  -0.36567
  Beta  occ. eigenvalues --   -0.34925  -0.34142  -0.33116  -0.32644  -0.32385
  Beta  occ. eigenvalues --   -0.31772  -0.31108  -0.29430  -0.28568  -0.28010
  Beta  occ. eigenvalues --   -0.26936  -0.25387  -0.24788  -0.24220  -0.22624
  Beta  occ. eigenvalues --   -0.22246  -0.21339  -0.18396  -0.16018  -0.14461
  Beta  occ. eigenvalues --   -0.12124  -0.11365
  Beta virt. eigenvalues --    0.06400   0.06509   0.07020   0.07722   0.08197
  Beta virt. eigenvalues --    0.08517   0.09059   0.09302   0.09908   0.10195
  Beta virt. eigenvalues --    0.10706   0.10935   0.11178   0.11321   0.11807

 Mulliken charges and spin densities:
               1          2
     1  C    0.708460  -0.872207
     2  C   -0.278486   0.662193
     3  C   -0.650031   0.333313
     4  C    0.101543   0.096184
     5  C   -0.213919   0.393286
     6  S   -0.356972  -0.236680
     7  C    0.067006  -0.681801
     8  C   -0.357351   0.122131
     9  C    0.207902  -0.733546
    10  N    0.126769  -0.065678
    11  C    0.487618  -0.768891
    12  N   -0.164185  -0.000664
    13  C   -0.176513   0.068152
    14  N   -0.220765  -0.055035
    15  S    0.278159  -0.025636
    16  N   -0.342896   0.049563
    17  H    0.148587  -0.001276
    18  H   -0.297233   0.471051
    19  H   -0.057184   0.205489
    20  H    0.065127   0.048950
    21  H   -0.330466   0.528996
    22  H    0.166546  -0.034322
    23  H    0.169365  -0.009598
    24  H    0.144444   0.036561
    25  H    0.039673   0.126078
    26  H   -0.094788   0.196016
    27  H   -0.215437   0.376440
    28  H    0.294656  -0.003341
    29  H   -0.092841   0.346025
    30  H   -0.156788   0.428250
 Sum of Mulliken charges =  -1.00000   1.00000

 Dipole moment (field-independent basis, Debye):
    X=             -0.7502    Y=             -0.1881    Z=              1.2423  Tot=              1.4634
 Quadrupole moment (field-independent basis, Debye-Ang):
   XX=           -227.3252   YY=           -137.0524   ZZ=           -143.3787
   XY=             -6.1970   XZ=            -17.4803   YZ=              0.6158

 Summary of Natural Population Analysis:

                                       Natural Population
                Natural  -----------------------------------------------
    Atom  No    Charge         Core      Valence    Rydberg      Total
 -----------------------------------------------------------------------
      C    1   -0.29838      0.99961     2.29245    0.00632     3.29838
      C    2   -0.06906      0.99951     2.05806    0.01149     3.06906
      C    3   -0.13055      0.99942     2.12061    0.01052     3.13055
      C    4   -0.05876      0.99940     2.04687    0.01248     3.05876
      C    5   -0.06301      0.99943     2.05203    0.01155     3.06301
      S    6    0.19933      4.99938     2.78256    0.01872     7.80067
      C    7   -0.30577      0.99962     2.29933    0.00682     3.30577
      C    8   -0.01251      0.99956     2.00058    0.01237     3.01251
      C    9   -0.28482      0.99964     2.27970    0.00549     3.28482
      N   10   -0.31194      0.99963     2.80133    0.01098     3.81194
      C   11    0.15091      0.99962     1.82932    0.02015     2.84909
      N   12   -0.29921      0.99962     2.78888    0.01071     3.79921
      C   13    0.27563      0.99965     1.70428    0.02044     2.72437
      N   14   -0.36048      0.99968     2.84958    0.01121     3.86048
      S   15    0.23754      4.99947     2.73950    0.02349     7.76246
      N   16   -0.39584      0.99970     2.88591    0.01023     3.89584
      H   17    0.10108      0.00000     0.39807    0.00085     0.39892
      H   18    0.10809      0.00000     0.38971    0.00220     0.39191
      H   19    0.10489      0.00000     0.39431    0.00080     0.39511
      H   20    0.10251      0.00000     0.39653    0.00096     0.39749
      H   21    0.11026      0.00000     0.38773    0.00202     0.38974
      H   22    0.10266      0.00000     0.39661    0.00073     0.39734
      H   23    0.10873      0.00000     0.39019    0.00109     0.39127
      H   24    0.09488      0.00000     0.40240    0.00272     0.40512
      H   25    0.10241      0.00000     0.39657    0.00101     0.39759
      H   26    0.09927      0.00000     0.39932    0.00141     0.40073
      H   27    0.10498      0.00000     0.39401    0.00101     0.39502
      H   28    0.20288      0.00000     0.29550    0.00162     0.29712
      H   29    0.19274      0.00000     0.30445    0.00280     0.30726
      H   30    0.19151      0.00000     0.30579    0.00269     0.30849
 =======================================================================
   * Total *   -0.00000     23.99294    42.78218    0.22488    67.00000

 Normal termination of Gaussian 16 at Fri Dec 11 00:14:35 2020.
