 Gaussian 16, Revision A.03,

 -----------------------------------------------------------
 # opt freq B3LYP/6-31G(d) empiricaldispersion=gd3bj scf=xqc
 -----------------------------------------------------------

 -------------------------------
 CID_149422494_JID_4938_neutraal
 -------------------------------
 Symbolic Z-matrix:
 Charge =  0 Multiplicity = 1

 SCF Done:  E(RB3LYP) =  -686.580865616     A.U. after   14 cycles
 SCF Done:  E(RB3LYP) =  -686.587100200     A.U. after   12 cycles
 SCF Done:  E(RB3LYP) =  -686.586503444     A.U. after   13 cycles
 SCF Done:  E(RB3LYP) =  -686.588110590     A.U. after   12 cycles
 SCF Done:  E(RB3LYP) =  -686.588508532     A.U. after   12 cycles
 SCF Done:  E(RB3LYP) =  -686.588856222     A.U. after   12 cycles
 SCF Done:  E(RB3LYP) =  -686.588914385     A.U. after   11 cycles
 SCF Done:  E(RB3LYP) =  -686.589044763     A.U. after   12 cycles
 SCF Done:  E(RB3LYP) =  -686.589079596     A.U. after   11 cycles
 SCF Done:  E(RB3LYP) =  -686.589095802     A.U. after   11 cycles
 SCF Done:  E(RB3LYP) =  -686.589104309     A.U. after    9 cycles
 SCF Done:  E(RB3LYP) =  -686.589105464     A.U. after    9 cycles
 SCF Done:  E(RB3LYP) =  -686.589107294     A.U. after    9 cycles
 SCF Done:  E(RB3LYP) =  -686.589107201     A.U. after   10 cycles
 SCF Done:  E(RB3LYP) =  -686.589107163     A.U. after    8 cycles
 SCF Done:  E(RB3LYP) =  -686.589107387     A.U. after    8 cycles
 Optimization completed.
    -- Stationary point found.
 Normal termination of Gaussian 16 at Thu Dec 10 11:00:34 2020.

 --------------------------------------------------------------------
 #N Geom=AllCheck Guess=TCheck SCRF=Check GenChk RB3LYP/6-31G(d) Freq
 --------------------------------------------------------------------

 Structure from the checkpoint file:  "JID_4938.chk"
 -------------------------------
 CID_149422494_JID_4938_neutraal
 -------------------------------
 Charge =  0 Multiplicity = 1

 SCF Done:  E(RB3LYP) =  -686.589107387     A.U. after    1 cycles

  Exact polarizability: 119.134  16.279 107.584   0.135  18.235  99.952
 Approx polarizability: 160.686  27.279 165.464   3.050  47.514 171.544

                      1                      2                      3
                      A                      A                      A
 Frequencies --     27.1935                51.2576                69.4381
 Red. masses --      3.8825                 4.7107                 4.3601
 Frc consts  --      0.0017                 0.0073                 0.0124
 IR Inten    --      0.3260                 1.4211                 1.8860

                      4                      5                      6
                      A                      A                      A
 Frequencies --    105.4183               119.9982               174.2665
 Red. masses --      5.9642                 5.2738                 5.4556
 Frc consts  --      0.0391                 0.0447                 0.0976
 IR Inten    --      4.0019                 0.2784                 3.4811

                      7                      8                      9
                      A                      A                      A
 Frequencies --    183.1077               187.8591               249.0633
 Red. masses --      3.9735                 1.0447                 2.9555
 Frc consts  --      0.0785                 0.0217                 0.1080
 IR Inten    --      3.0499                 0.3405                 1.3793

                     10                     11                     12
                      A                      A                      A
 Frequencies --    265.6456               269.4494               317.0073
 Red. masses --      3.0102                 2.1529                 1.5833
 Frc consts  --      0.1252                 0.0921                 0.0937
 IR Inten    --      2.8911                 6.3084                 1.9339

                     13                     14                     15
                      A                      A                      A
 Frequencies --    341.1229               370.1492               395.1820
 Red. masses --      3.2092                 2.6831                 3.0501
 Frc consts  --      0.2200                 0.2166                 0.2806
 IR Inten    --      7.6202                 2.5451                 1.1915

                     16                     17                     18
                      A                      A                      A
 Frequencies --    462.4299               484.9989               495.9564
 Red. masses --      2.7642                 2.1165                 3.3871
 Frc consts  --      0.3483                 0.2933                 0.4909
 IR Inten    --      6.9239                63.4364                16.0014

                     19                     20                     21
                      A                      A                      A
 Frequencies --    547.5517               563.3295               627.3812
 Red. masses --      2.5459                 3.1923                 1.9347
 Frc consts  --      0.4497                 0.5969                 0.4487
 IR Inten    --     62.4711                30.0225                 3.7396

                     22                     23                     24
                      A                      A                      A
 Frequencies --    653.1401               725.0897               742.2871
 Red. masses --      2.0787                 5.6675                 3.6463
 Frc consts  --      0.5225                 1.7556                 1.1837
 IR Inten    --      1.2840                18.9123                10.2491

                     25                     26                     27
                      A                      A                      A
 Frequencies --    759.1379               791.9661               820.2046
 Red. masses --      8.0690                 2.5275                 3.7150
 Frc consts  --      2.7397                 0.9340                 1.4725
 IR Inten    --     33.3081                12.4011                 0.7336

                     28                     29                     30
                      A                      A                      A
 Frequencies --    842.8862               865.1138               896.0042
 Red. masses --      3.1467                 1.5951                 1.8678
 Frc consts  --      1.3172                 0.7034                 0.8835
 IR Inten    --      8.9756                30.7085                46.3062

                     31                     32                     33
                      A                      A                      A
 Frequencies --    932.7656               961.8778               964.9386
 Red. masses --      4.9299                 1.3647                 1.8642
 Frc consts  --      2.5272                 0.7439                 1.0227
 IR Inten    --     26.0446                30.3013                18.8252

                     34                     35                     36
                      A                      A                      A
 Frequencies --    979.1440              1019.6264              1043.5057
 Red. masses --      1.7143                 1.7796                 1.4756
 Frc consts  --      0.9683                 1.0901                 0.9467
 IR Inten    --      1.6921                13.7100                15.5429

                     37                     38                     39
                      A                      A                      A
 Frequencies --   1070.6566              1079.4003              1090.2035
 Red. masses --      2.3667                 2.2042                 1.5032
 Frc consts  --      1.5985                 1.5131                 1.0526
 IR Inten    --     20.9682                49.2294                 2.6633

                     40                     41                     42
                      A                      A                      A
 Frequencies --   1094.7788              1115.7540              1160.8486
 Red. masses --      2.2148                 4.0490                 1.9644
 Frc consts  --      1.5640                 2.9698                 1.5597
 IR Inten    --     24.1579               120.3933                26.0262

                     43                     44                     45
                      A                      A                      A
 Frequencies --   1191.4618              1229.5387              1248.3515
 Red. masses --      2.8474                 2.6684                 1.8865
 Frc consts  --      2.3815                 2.3768                 1.7321
 IR Inten    --    108.6528                82.3193               141.4507

                     46                     47                     48
                      A                      A                      A
 Frequencies --   1260.9705              1308.1666              1371.2567
 Red. masses --      1.1444                 1.5767                 1.3405
 Frc consts  --      1.0721                 1.5897                 1.4851
 IR Inten    --      8.2340                10.6021                23.7607

                     49                     50                     51
                      A                      A                      A
 Frequencies --   1384.4238              1394.3965              1427.3458
 Red. masses --      2.4036                 1.3843                 1.3896
 Frc consts  --      2.7143                 1.5858                 1.6681
 IR Inten    --     74.7438                 4.3627                16.4101

                     52                     53                     54
                      A                      A                      A
 Frequencies --   1432.5496              1440.7550              1444.0570
 Red. masses --      1.3557                 1.3555                 1.4159
 Frc consts  --      1.6392                 1.6578                 1.7397
 IR Inten    --     32.7340                 6.4345                27.3208

                     55                     56                     57
                      A                      A                      A
 Frequencies --   1456.6131              1462.6473              1502.7249
 Red. masses --      1.4918                 1.2744                 1.0448
 Frc consts  --      1.8648                 1.6064                 1.3901
 IR Inten    --      9.2875                16.0394                 6.0207

                     58                     59                     60
                      A                      A                      A
 Frequencies --   1519.4956              1527.5516              1541.4682
 Red. masses --      1.0578                 1.0533                 1.0545
 Frc consts  --      1.4389                 1.4480                 1.4763
 IR Inten    --      9.7654                 2.6505                 5.3075

                     61                     62                     63
                      A                      A                      A
 Frequencies --   1543.0275              1691.3465              1728.3533
 Red. masses --      1.0949                 6.8853                 5.7542
 Frc consts  --      1.5359                11.6047                10.1275
 IR Inten    --     13.8982               111.6152                35.4592

                     64                     65                     66
                      A                      A                      A
 Frequencies --   1900.2098              3046.7040              3058.4864
 Red. masses --     11.3874                 1.0833                 1.0796
 Frc consts  --     24.2258                 5.9247                 5.9499
 IR Inten    --    493.0810                14.3100                26.3983

                     67                     68                     69
                      A                      A                      A
 Frequencies --   3061.8553              3062.1166              3080.0557
 Red. masses --      1.0367                 1.0424                 1.0703
 Frc consts  --      5.7265                 5.7588                 5.9826
 IR Inten    --     25.3728                 5.8708                54.7715

                     70                     71                     72
                      A                      A                      A
 Frequencies --   3122.4084              3123.1721              3142.0402
 Red. masses --      1.1004                 1.1009                 1.1041
 Frc consts  --      6.3209                 6.3270                 6.4223
 IR Inten    --     12.7341                31.5101                17.4587

                     73                     74                     75
                      A                      A                      A
 Frequencies --   3146.3470              3173.6707              3191.9725
 Red. masses --      1.1035                 1.0987                 1.0617
 Frc consts  --      6.4361                 6.5202                 6.3733
 IR Inten    --     13.2779                 8.5124                 5.7475

                     76                     77                     78
                      A                      A                      A
 Frequencies --   3280.9915              3551.0724              3632.6276
 Red. masses --      1.1145                 1.0732                 1.0775
 Frc consts  --      7.0685                 7.9733                 8.3778
 IR Inten    --      7.7010                 1.3762                29.1994

 - Thermochemistry -
 -------------------
 Temperature   298.150 Kelvin.  Pressure   1.00000 Atm.
 Atom     1 has atomic number  6 and mass  12.00000

 Molecular mass:   198.10044 amu.
 Principal axes and moments of inertia in atomic units:
                           1         2         3
     Eigenvalues --  2163.321732371.563283478.17637
           X            0.98410   0.17756  -0.00464
           Y           -0.17745   0.98396   0.01819
           Z            0.00780  -0.01708   0.99982
 This molecule is an asymmetric top.
 Rotational symmetry number  1.
 Warning -- assumption of classical behavior for rotation
           may cause significant error
 Rotational temperatures (Kelvin)      0.04004     0.03652     0.02490
 Rotational constants (GHZ):           0.83425     0.76099     0.51888
 Zero-point vibrational energy     613668.5 (Joules/Mol)
                                  146.67030 (Kcal/Mol)
 Warning -- explicit consideration of  20 degrees of freedom as
           vibrations may cause significant error
 Vibrational temperatures:     39.13    73.75    99.91   151.67   172.65
          (Kelvin)            250.73   263.45   270.29   358.35   382.20
                              387.68   456.10   490.80   532.56   568.58
                              665.33   697.81   713.57   787.80   810.51
                              902.66   939.72  1043.24  1067.99  1092.23
                             1139.46  1180.09  1212.73  1244.71  1289.15
                             1342.04  1383.93  1388.33  1408.77  1467.02
                             1501.37  1540.44  1553.02  1568.56  1575.14
                             1605.32  1670.20  1714.25  1769.03  1796.10
                             1814.26  1882.16  1972.93  1991.88  2006.23
                             2053.63  2061.12  2072.93  2077.68  2095.74
                             2104.42  2162.09  2186.22  2197.81  2217.83
                             2220.07  2433.47  2486.71  2733.98  4383.53
                             4400.48  4405.33  4405.70  4431.51  4492.45
                             4493.55  4520.70  4526.89  4566.20  4592.54
                             4720.61  5109.20  5226.54

 Zero-point correction=                           0.233734 (Hartree/Particle)
 Thermal correction to Energy=                    0.247645
 Thermal correction to Enthalpy=                  0.248589
 Thermal correction to Gibbs Free Energy=         0.192570
 Sum of electronic and zero-point Energies=           -686.355373
 Sum of electronic and thermal Energies=              -686.341463
 Sum of electronic and thermal Enthalpies=            -686.340518
 Sum of electronic and thermal Free Energies=         -686.396538

                     E (Thermal)             CV                S
                      KCal/Mol        Cal/Mol-Kelvin    Cal/Mol-Kelvin
 Total                  155.399             52.298            117.903
 Electronic               0.000              0.000              0.000
 Translational            0.889              2.981             41.756
 Rotational               0.889              2.981             31.257
 Vibrational            153.622             46.337             44.890
 Vibration     1          0.593              1.984              6.024
 Vibration     2          0.596              1.977              4.768
 Vibration     3          0.598              1.969              4.169
 Vibration     4          0.605              1.945              3.352
 Vibration     5          0.609              1.933              3.100
 Vibration     6          0.627              1.874              2.389
 Vibration     7          0.631              1.863              2.296
 Vibration     8          0.633              1.857              2.249
 Vibration     9          0.662              1.764              1.737
 Vibration    10          0.671              1.736              1.624
 Vibration    11          0.674              1.729              1.600
 Vibration    12          0.704              1.641              1.325
 Vibration    13          0.721              1.593              1.207
 Vibration    14          0.742              1.534              1.079
 Vibration    15          0.762              1.480              0.981
 Vibration    16          0.820              1.333              0.759
 Vibration    17          0.841              1.283              0.697
 Vibration    18          0.852              1.259              0.668
 Vibration    19          0.903              1.145              0.549
 Vibration    20          0.919              1.111              0.517

 Optimization completed.
    -- Stationary point found.
 Normal termination of Gaussian 16 at Thu Dec 10 11:10:13 2020.

 ----------------------------------------------------------------------
 # B3LYP/6-311++G(d,p) empiricaldispersion=gd3bj scf=xqc pop=npa geom=c
 heck
 ----------------------------------------------------------------------

 ---------------------------------------
 CID_149422494_JID_4938_Energie_neutraal
 ---------------------------------------
 Structure from the checkpoint file:  "JID_4938.chk"
 Charge =  0 Multiplicity = 1

 SCF Done:  E(RB3LYP) =  -686.792486662     A.U. after   16 cycles
 Normal termination of Gaussian 16 at Thu Dec 10 11:14:38 2020.

 ----------------------------------------------------------------------
 # B3LYP/6-311++G(d,p) empiricaldispersion=gd3bj scf=xqc pop=npa geom=c
 heck
 ----------------------------------------------------------------------

 -------------------------------------
 CID_149422494_JID_4938_Energie_kation
 -------------------------------------
 Structure from the checkpoint file:  "JID_4938.chk"
 Charge =  1 Multiplicity = 2

 SCF Done:  E(UB3LYP) =  -686.466983246     A.U. after   28 cycles
 Normal termination of Gaussian 16 at Thu Dec 10 11:25:46 2020.
 Gaussian 16:  ES64L-G16RevA.03 25-Dec-2016

 ----------------------------------------------------------------------
 # B3LYP/6-311++G(d,p) empiricaldispersion=gd3bj scf=xqc pop=npa geom=c
 heck
 ----------------------------------------------------------------------

 ------------------------------------
 CID_149422494_JID_4938_Energie_anion
 ------------------------------------
 Structure from the checkpoint file:  "JID_4938.chk"
 Charge = -1 Multiplicity = 2

                         Standard orientation:
 ---------------------------------------------------------------------
 Center     Atomic      Atomic             Coordinates (Angstroms)
 Number     Number       Type             X           Y           Z
 ---------------------------------------------------------------------
      1          6           0        2.228754    2.161204   -0.213248
      2          6           0        1.557308    0.902504   -0.773699
      3          6           0        1.919040   -0.360102    0.037895
      4          6           0        1.297134   -0.494843    1.451192
      5          8           0        0.165310   -1.359513    1.284218
      6          6           0        0.276050   -2.035839    0.098392
      7          8           0       -0.497814   -2.881207   -0.270751
      8          7           0        1.417031   -1.588782   -0.545792
      9          8           0        0.152176    0.988509   -1.050791
     10          6           0       -0.810379    1.259883   -0.097759
     11          7           0       -0.741313    2.109524    0.852261
     12          6           0       -2.051804    0.479338   -0.308546
     13          6           0       -2.176085   -0.356103   -1.347479
     14          6           0       -3.136669    0.684665    0.713397
     15          1           0        2.099107    2.276429    0.867128
     16          1           0        1.847137    3.054265   -0.715706
     17          1           0        3.306212    2.103325   -0.403347
     18          1           0        1.964709    0.746854   -1.779554
     19          1           0        3.013805   -0.379244    0.110297
     20          1           0        2.003633   -0.970030    2.139715
     21          1           0        0.943260    0.443404    1.875880
     22          1           0        1.464175   -1.757314   -1.541219
     23          1           0        0.136193    2.624235    0.845721
     24          1           0       -3.085423   -0.929968   -1.494269
     25          1           0       -1.377776   -0.502332   -2.063732
     26          1           0       -2.783449    0.388413    1.706866
     27          1           0       -3.419609    1.739822    0.782511
     28          1           0       -4.019469    0.090387    0.462147
 ---------------------------------------------------------------------

 SCF Done:  E(UB3LYP) =  -686.789707324     A.U. after   32 cycles

 The electronic state is 2-A.
 Alpha  occ. eigenvalues --  -19.05929 -19.04174 -18.99360 -14.23795 -14.17287
 Alpha  occ. eigenvalues --  -10.21368 -10.14960 -10.13988 -10.13211 -10.12328
 Alpha  occ. eigenvalues --  -10.07344 -10.06767 -10.05562 -10.04794  -1.01089
 Alpha  occ. eigenvalues --   -0.96138  -0.92267  -0.83047  -0.78422  -0.70172
 Alpha  occ. eigenvalues --   -0.68161  -0.64102  -0.58359  -0.56997  -0.54498
 Alpha  occ. eigenvalues --   -0.51439  -0.49028  -0.43686  -0.42521  -0.41321
 Alpha  occ. eigenvalues --   -0.39987  -0.37977  -0.36226  -0.34912  -0.33870
 Alpha  occ. eigenvalues --   -0.33407  -0.32039  -0.31755  -0.30768  -0.30607
 Alpha  occ. eigenvalues --   -0.29885  -0.29192  -0.27352  -0.26966  -0.25417
 Alpha  occ. eigenvalues --   -0.24378  -0.23062  -0.19706  -0.18533  -0.17640
 Alpha  occ. eigenvalues --   -0.16368  -0.15915  -0.14394   0.04130
 Alpha virt. eigenvalues --    0.05977   0.07745   0.08234   0.08484   0.09688
 Alpha virt. eigenvalues --    0.10648   0.11014   0.11393   0.12004   0.12509
 Alpha virt. eigenvalues --    0.13116   0.13599   0.13996   0.14998   0.15127

  Beta  occ. eigenvalues --  -19.05926 -19.04164 -18.99357 -14.23776 -14.17201
  Beta  occ. eigenvalues --  -10.21369 -10.14845 -10.13959 -10.13182 -10.12301
  Beta  occ. eigenvalues --  -10.07302 -10.06755 -10.05564 -10.04645  -1.01081
  Beta  occ. eigenvalues --   -0.96073  -0.92262  -0.83009  -0.78244  -0.70069
  Beta  occ. eigenvalues --   -0.68041  -0.64045  -0.58262  -0.56891  -0.54326
  Beta  occ. eigenvalues --   -0.51344  -0.48896  -0.43630  -0.42446  -0.41238
  Beta  occ. eigenvalues --   -0.39847  -0.37900  -0.36160  -0.34840  -0.33789
  Beta  occ. eigenvalues --   -0.33363  -0.32007  -0.31584  -0.30716  -0.30549
  Beta  occ. eigenvalues --   -0.29843  -0.29140  -0.27215  -0.26919  -0.25349
  Beta  occ. eigenvalues --   -0.24301  -0.22885  -0.19657  -0.18476  -0.17487
  Beta  occ. eigenvalues --   -0.16259  -0.15785  -0.13751
  Beta virt. eigenvalues --    0.07168   0.07323   0.08425   0.08611   0.09075
  Beta virt. eigenvalues --    0.10481   0.10706   0.11450   0.11749   0.12146
  Beta virt. eigenvalues --    0.12962   0.13309   0.13735   0.14120   0.15052

 Mulliken charges and spin densities:
               1          2
     1  C    1.152899  -1.767769
     2  C   -0.267563   0.175601
     3  C    0.160180  -0.207738
     4  C    0.436266  -0.872879
     5  O    0.033088   0.002266
     6  C    0.345379  -0.230655
     7  O   -0.334494   0.008441
     8  N   -0.130030  -0.038199
     9  O    0.016108  -0.010583
    10  C   -0.690923  -0.059295
    11  N   -0.204622   0.059806
    12  C    1.001173  -0.063658
    13  C   -0.643186   0.092229
    14  C   -0.548883  -0.007326
    15  H   -0.100803   0.234992
    16  H    0.097813   0.073868
    17  H   -0.640684   0.823456
    18  H   -0.466553   0.669424
    19  H   -1.023181   1.307796
    20  H   -0.280112   0.477869
    21  H    0.044561   0.118635
    22  H    0.066394   0.231527
    23  H    0.272227  -0.028505
    24  H    0.101517  -0.005351
    25  H    0.178578  -0.004161
    26  H    0.154120   0.024264
    27  H    0.153963  -0.001605
    28  H    0.116769  -0.002450
 Sum of Mulliken charges =  -1.00000   1.00000

 Dipole moment (field-independent basis, Debye):
    X=             -5.5647    Y=              1.1560    Z=              0.0971  Tot=              5.6843
 Quadrupole moment (field-independent basis, Debye-Ang):
   XX=           -146.4989   YY=           -121.6147   ZZ=           -110.4318
   XY=             -3.4513   XZ=              3.7006   YZ=              0.3858

 Summary of Natural Population Analysis:

                                       Natural Population
                Natural  -----------------------------------------------
    Atom  No    Charge         Core      Valence    Rydberg      Total
 -----------------------------------------------------------------------
      C    1   -0.30566      0.99963     2.29948    0.00654     3.30566
      C    2    0.06452      0.99950     1.91843    0.01755     2.93548
      C    3   -0.03434      0.99958     2.01860    0.01617     3.03434
      C    4   -0.01615      0.99956     2.00397    0.01262     3.01615
      O    5   -0.27837      0.99987     3.27136    0.00715     4.27837
      C    6    0.46186      0.99971     1.51025    0.02818     2.53814
      O    7   -0.31193      0.99986     3.30658    0.00550     4.31193
      N    8   -0.33416      0.99967     2.82411    0.01038     3.83416
      O    9   -0.30205      0.99985     3.29173    0.01046     4.30205
      C   10    0.29601      0.99951     1.68352    0.02096     2.70399
      N   11   -0.34834      0.99971     2.84147    0.00716     3.84834
      C   12   -0.04977      0.99939     2.03951    0.01087     3.04977
      C   13   -0.12772      0.99951     2.12231    0.00589     3.12772
      C   14   -0.28899      0.99960     2.28458    0.00481     3.28899
      H   15    0.09734      0.00000     0.40136    0.00130     0.40266
      H   16    0.10490      0.00000     0.39420    0.00091     0.39510
      H   17    0.11482      0.00000     0.38191    0.00327     0.38518
      H   18    0.09638      0.00000     0.40148    0.00213     0.40362
      H   19    0.11150      0.00000     0.37851    0.00999     0.38850
      H   20    0.09124      0.00000     0.40720    0.00156     0.40876
      H   21    0.10303      0.00000     0.39540    0.00157     0.39697
      H   22    0.20092      0.00000     0.29666    0.00242     0.29908
      H   23    0.16547      0.00000     0.33237    0.00216     0.33453
      H   24    0.08642      0.00000     0.41260    0.00098     0.41358
      H   25    0.09826      0.00000     0.40052    0.00122     0.40174
      H   26    0.10731      0.00000     0.39161    0.00108     0.39269
      H   27    0.10402      0.00000     0.39490    0.00108     0.39598
      H   28    0.09354      0.00000     0.40552    0.00093     0.40646
 =======================================================================
   * Total *    0.00005     13.99495    38.81014    0.19486    52.99995

 Normal termination of Gaussian 16 at Thu Dec 10 11:38:15 2020.
