 Gaussian 16, Revision A.03,

 -----------------------------------------------------------
 # opt freq B3LYP/6-31G(d) empiricaldispersion=gd3bj scf=xqc
 -----------------------------------------------------------

 -------------------------------
 CID_116564879_JID_2554_neutraal
 -------------------------------
 Symbolic Z-matrix:
 Charge =  0 Multiplicity = 1

 SCF Done:  E(RB3LYP) =  -522.533835233     A.U. after   13 cycles
 SCF Done:  E(RB3LYP) =  -522.537114767     A.U. after   12 cycles
 SCF Done:  E(RB3LYP) =  -522.537424949     A.U. after   12 cycles
 SCF Done:  E(RB3LYP) =  -522.536518260     A.U. after   13 cycles
 SCF Done:  E(RB3LYP) =  -522.537968678     A.U. after   12 cycles
 SCF Done:  E(RB3LYP) =  -522.538189410     A.U. after   13 cycles
 SCF Done:  E(RB3LYP) =  -522.538172212     A.U. after   12 cycles
 SCF Done:  E(RB3LYP) =  -522.538317046     A.U. after   12 cycles
 SCF Done:  E(RB3LYP) =  -522.538352392     A.U. after   11 cycles
 SCF Done:  E(RB3LYP) =  -522.538354635     A.U. after    9 cycles
 SCF Done:  E(RB3LYP) =  -522.538354895     A.U. after    9 cycles
 SCF Done:  E(RB3LYP) =  -522.538355176     A.U. after    8 cycles
 SCF Done:  E(RB3LYP) =  -522.538355234     A.U. after    7 cycles
 Optimization completed.
    -- Stationary point found.
 Normal termination of Gaussian 16 at Wed Dec  9 17:35:55 2020.

 --------------------------------------------------------------------
 #N Geom=AllCheck Guess=TCheck SCRF=Check GenChk RB3LYP/6-31G(d) Freq
 --------------------------------------------------------------------

 Structure from the checkpoint file:  "JID_2554.chk"
 -------------------------------
 CID_116564879_JID_2554_neutraal
 -------------------------------
 Charge =  0 Multiplicity = 1

 SCF Done:  E(RB3LYP) =  -522.538355234     A.U. after    1 cycles

  Exact polarizability: 122.563   0.291 107.756   0.225   0.943  99.783
 Approx polarizability: 152.641  -0.530 145.969  -2.046   2.356 163.557

                      1                      2                      3
                      A                      A                      A
 Frequencies --     34.7831                51.0468               114.8755
 Red. masses --      4.1528                 3.0817                 2.8223
 Frc consts  --      0.0030                 0.0047                 0.0219
 IR Inten    --      0.3229                 0.2133                 4.4382

                      4                      5                      6
                      A                      A                      A
 Frequencies --    118.9683               152.3424               186.2633
 Red. masses --      2.5530                 3.2730                 2.0886
 Frc consts  --      0.0213                 0.0448                 0.0427
 IR Inten    --      0.3207                 1.0956                 3.0988

                      7                      8                      9
                      A                      A                      A
 Frequencies --    214.6646               231.1263               232.4743
 Red. masses --      2.7288                 1.0732                 1.8691
 Frc consts  --      0.0741                 0.0338                 0.0595
 IR Inten    --      0.4306                 0.2053                 0.5665

                     10                     11                     12
                      A                      A                      A
 Frequencies --    259.5178               285.7687               329.9734
 Red. masses --      1.9332                 1.9753                 3.1603
 Frc consts  --      0.0767                 0.0950                 0.2027
 IR Inten    --      1.0124                 1.4369                17.7736

                     13                     14                     15
                      A                      A                      A
 Frequencies --    369.9979               387.9203               438.0586
 Red. masses --      1.6810                 3.3480                 3.2319
 Frc consts  --      0.1356                 0.2968                 0.3654
 IR Inten    --      0.5665                 4.0194                 1.1675

                     16                     17                     18
                      A                      A                      A
 Frequencies --    469.7154               481.9531               547.8111
 Red. masses --      3.2053                 2.3833                 2.0127
 Frc consts  --      0.4167                 0.3262                 0.3559
 IR Inten    --      3.1111                 0.6498                 0.8850

                     19                     20                     21
                      A                      A                      A
 Frequencies --    677.9172               753.2631               786.5912
 Red. masses --      3.1656                 2.9289                 2.1746
 Frc consts  --      0.8572                 0.9792                 0.7927
 IR Inten    --      2.2502                10.5660                39.3147

                     22                     23                     24
                      A                      A                      A
 Frequencies --    799.9555               814.3606               832.2664
 Red. masses --      1.4934                 3.6638                 1.9933
 Frc consts  --      0.5631                 1.4316                 0.8135
 IR Inten    --      1.0019                11.3495                72.1871

                     25                     26                     27
                      A                      A                      A
 Frequencies --    875.3416               879.1260               901.2227
 Red. masses --      2.3874                 2.4776                 1.6067
 Frc consts  --      1.0778                 1.1282                 0.7689
 IR Inten    --      2.9395                 0.1459                 0.7664

                     28                     29                     30
                      A                      A                      A
 Frequencies --    917.9089               955.9317              1012.6751
 Red. masses --      1.4776                 1.3565                 2.6074
 Frc consts  --      0.7335                 0.7304                 1.5754
 IR Inten    --     16.8941                 3.5158                59.3297

                     31                     32                     33
                      A                      A                      A
 Frequencies --   1041.3639              1045.2639              1049.0181
 Red. masses --      1.7299                 2.0844                 1.9320
 Frc consts  --      1.1053                 1.3418                 1.2526
 IR Inten    --     10.7156                 1.0720                 1.2377

                     34                     35                     36
                      A                      A                      A
 Frequencies --   1072.2859              1081.2183              1105.3499
 Red. masses --      1.8352                 2.2895                 1.8478
 Frc consts  --      1.2432                 1.5770                 1.3302
 IR Inten    --     10.1508                46.1764                 0.9327

                     37                     38                     39
                      A                      A                      A
 Frequencies --   1113.4168              1142.8742              1152.9220
 Red. masses --      1.4225                 1.4002                 1.4555
 Frc consts  --      1.0390                 1.0776                 1.1399
 IR Inten    --      1.8537                 3.5697                 6.1325

                     40                     41                     42
                      A                      A                      A
 Frequencies --   1160.4433              1179.4929              1184.9948
 Red. masses --      2.2066                 1.5774                 1.6483
 Frc consts  --      1.7507                 1.2930                 1.3637
 IR Inten    --     11.8330                26.8892                 6.1959

                     43                     44                     45
                      A                      A                      A
 Frequencies --   1264.2965              1270.0251              1301.9585
 Red. masses --      1.9587                 1.4564                 1.2959
 Frc consts  --      1.8447                 1.3841                 1.2942
 IR Inten    --      7.1539                14.2121                 0.3417

                     46                     47                     48
                      A                      A                      A
 Frequencies --   1315.5439              1324.5978              1332.5585
 Red. masses --      1.2482                 1.3296                 1.3832
 Frc consts  --      1.2728                 1.3745                 1.4471
 IR Inten    --      0.4175                 4.6261                 1.6399

                     49                     50                     51
                      A                      A                      A
 Frequencies --   1369.5666              1372.7882              1390.1436
 Red. masses --      1.3073                 1.3200                 1.6130
 Frc consts  --      1.4447                 1.4656                 1.8365
 IR Inten    --      0.0393                 6.7631                 9.4618

                     52                     53                     54
                      A                      A                      A
 Frequencies --   1404.0678              1404.6072              1406.3127
 Red. masses --      1.3982                 1.4248                 1.4364
 Frc consts  --      1.6240                 1.6562                 1.6738
 IR Inten    --      0.7839                 1.2582                 1.5516

                     55                     56                     57
                      A                      A                      A
 Frequencies --   1427.6004              1432.6584              1481.3533
 Red. masses --      1.2396                 1.5329                 1.1720
 Frc consts  --      1.4885                 1.8537                 1.5152
 IR Inten    --      5.7844                 4.0343                 0.3822

                     58                     59                     60
                      A                      A                      A
 Frequencies --   1508.3676              1509.5888              1513.9047
 Red. masses --      1.0878                 1.0915                 1.0919
 Frc consts  --      1.4582                 1.4655                 1.4745
 IR Inten    --      3.3175                 3.2875                 0.2048

                     61                     62                     63
                      A                      A                      A
 Frequencies --   1518.4867              1520.9038              1523.6257
 Red. masses --      1.0869                 1.0619                 1.0806
 Frc consts  --      1.4766                 1.4472                 1.4779
 IR Inten    --     10.0413                 4.0124                 5.6165

                     64                     65                     66
                      A                      A                      A
 Frequencies --   1525.2278              1533.8363              1536.3582
 Red. masses --      1.0595                 1.0990                 1.0996
 Frc consts  --      1.4522                 1.5234                 1.5292
 IR Inten    --     19.6991                 2.8080                 3.7545

                     67                     68                     69
                      A                      A                      A
 Frequencies --   1552.0476              1793.4103              2980.7905
 Red. masses --      1.0793                10.5170                 1.0557
 Frc consts  --      1.5318                19.9298                 5.5265
 IR Inten    --     13.5040                83.2601                66.1049

                     70                     71                     72
                      A                      A                      A
 Frequencies --   3016.4056              3020.0288              3029.9770
 Red. masses --      1.0680                 1.0758                 1.0670
 Frc consts  --      5.7256                 5.7808                 5.7715
 IR Inten    --     23.9128                25.4149                17.9788

                     73                     74                     75
                      A                      A                      A
 Frequencies --   3039.6990              3042.6408              3051.5913
 Red. masses --      1.0669                 1.0644                 1.0824
 Frc consts  --      5.8080                 5.8055                 5.9385
 IR Inten    --     44.8074                17.1916                23.5233

                     76                     77                     78
                      A                      A                      A
 Frequencies --   3053.3586              3055.0106              3073.8010
 Red. masses --      1.0693                 1.0366                 1.0975
 Frc consts  --      5.8739                 5.6999                 6.1095
 IR Inten    --     47.8777                22.5820                48.8498

                     79                     80                     81
                      A                      A                      A
 Frequencies --   3074.9634              3076.3493              3080.4394
 Red. masses --      1.0915                 1.0822                 1.0969
 Frc consts  --      6.0806                 6.0342                 6.1323
 IR Inten    --     32.5765                68.3742                27.3030

                     82                     83                     84
                      A                      A                      A
 Frequencies --   3085.6282              3120.5723              3121.7272
 Red. masses --      1.1051                 1.0967                 1.1022
 Frc consts  --      6.1993                 6.2925                 6.3287
 IR Inten    --     53.1614                21.5093                25.1252

                     85                     86                     87
                      A                      A                      A
 Frequencies --   3123.0884              3145.0752              3476.0576
 Red. masses --      1.1013                 1.1026                 1.0726
 Frc consts  --      6.3291                 6.4260                 7.6360
 IR Inten    --     42.3215                17.6458                 1.8691

 - Thermochemistry -
 -------------------
 Temperature   298.150 Kelvin.  Pressure   1.00000 Atm.
 Atom     1 has atomic number  6 and mass  12.00000

 Molecular mass:   169.14666 amu.
 Principal axes and moments of inertia in atomic units:
                           1         2         3
     Eigenvalues --  1166.355922942.796193366.28653
           X            0.99999   0.00170   0.00448
           Y           -0.00177   0.99989   0.01491
           Z           -0.00446  -0.01492   0.99988
 This molecule is an asymmetric top.
 Rotational symmetry number  1.
 Warning -- assumption of classical behavior for rotation
           may cause significant error
 Rotational temperatures (Kelvin)      0.07426     0.02943     0.02573
 Rotational constants (GHZ):           1.54733     0.61327     0.53612
 Zero-point vibrational energy     745533.7 (Joules/Mol)
                                  178.18684 (Kcal/Mol)
 Warning -- explicit consideration of  18 degrees of freedom as
           vibrations may cause significant error
 Vibrational temperatures:     50.05    73.44   165.28   171.17   219.19
          (Kelvin)            267.99   308.85   332.54   334.48   373.39
                              411.16   474.76   532.34   558.13   630.27
                              675.82   693.42   788.18   975.37  1083.78
                             1131.73  1150.96  1171.68  1197.45  1259.42
                             1264.87  1296.66  1320.67  1375.37  1457.01
                             1498.29  1503.90  1509.30  1542.78  1555.63
                             1590.35  1601.96  1644.34  1658.80  1669.62
                             1697.03  1704.94  1819.04  1827.28  1873.23
                             1892.77  1905.80  1917.25  1970.50  1975.14
                             2000.11  2020.14  2020.92  2023.37  2054.00
                             2061.28  2131.34  2170.20  2171.96  2178.17
                             2184.76  2188.24  2192.16  2194.46  2206.85
                             2210.48  2233.05  2580.32  4288.69  4339.93
                             4345.15  4359.46  4373.45  4377.68  4390.56
                             4393.10  4395.48  4422.51  4424.19  4426.18
                             4432.07  4439.53  4489.81  4491.47  4493.43
                             4525.06  5001.27

 Zero-point correction=                           0.283959 (Hartree/Particle)
 Thermal correction to Energy=                    0.296879
 Thermal correction to Enthalpy=                  0.297823
 Thermal correction to Gibbs Free Energy=         0.244597
 Sum of electronic and zero-point Energies=           -522.254396
 Sum of electronic and thermal Energies=              -522.241476
 Sum of electronic and thermal Enthalpies=            -522.240532
 Sum of electronic and thermal Free Energies=         -522.293758

                     E (Thermal)             CV                S
                      KCal/Mol        Cal/Mol-Kelvin    Cal/Mol-Kelvin
 Total                  186.294             48.983            112.025
 Electronic               0.000              0.000              0.000
 Translational            0.889              2.981             41.285
 Rotational               0.889              2.981             30.825
 Vibrational            184.517             43.021             39.915
 Vibration     1          0.594              1.983              5.536
 Vibration     2          0.595              1.977              4.776
 Vibration     3          0.608              1.937              3.185
 Vibration     4          0.609              1.934              3.117
 Vibration     5          0.619              1.900              2.643
 Vibration     6          0.632              1.859              2.265
 Vibration     7          0.645              1.819              2.004
 Vibration     8          0.653              1.793              1.870
 Vibration     9          0.653              1.791              1.860
 Vibration    10          0.668              1.747              1.665
 Vibration    11          0.684              1.700              1.499
 Vibration    12          0.713              1.616              1.260
 Vibration    13          0.742              1.534              1.080
 Vibration    14          0.756              1.496              1.008
 Vibration    15          0.798              1.387              0.833
 Vibration    16          0.827              1.317              0.738
 Vibration    17          0.838              1.290              0.705
 Vibration    18          0.903              1.144              0.549

 Optimization completed.
    -- Stationary point found.
 Normal termination of Gaussian 16 at Wed Dec  9 17:44:27 2020.

 ----------------------------------------------------------------------
 # B3LYP/6-311++G(d,p) empiricaldispersion=gd3bj scf=xqc pop=npa geom=c
 heck
 ----------------------------------------------------------------------

 ---------------------------------------
 CID_116564879_JID_2554_Energie_neutraal
 ---------------------------------------
 Structure from the checkpoint file:  "JID_2554.chk"
 Charge =  0 Multiplicity = 1

 SCF Done:  E(RB3LYP) =  -522.687704531     A.U. after   15 cycles
 Normal termination of Gaussian 16 at Wed Dec  9 17:48:01 2020.

 ----------------------------------------------------------------------
 # B3LYP/6-311++G(d,p) empiricaldispersion=gd3bj scf=xqc pop=npa geom=c
 heck
 ----------------------------------------------------------------------

 -------------------------------------
 CID_116564879_JID_2554_Energie_kation
 -------------------------------------
 Structure from the checkpoint file:  "JID_2554.chk"
 Charge =  1 Multiplicity = 2

 SCF Done:  E(UB3LYP) =  -522.387413219     A.U. after   21 cycles
 Normal termination of Gaussian 16 at Wed Dec  9 17:54:44 2020.
 Gaussian 16:  ES64L-G16RevA.03 25-Dec-2016

 ----------------------------------------------------------------------
 # B3LYP/6-311++G(d,p) empiricaldispersion=gd3bj scf=xqc pop=npa geom=c
 heck
 ----------------------------------------------------------------------

 ------------------------------------
 CID_116564879_JID_2554_Energie_anion
 ------------------------------------
 Structure from the checkpoint file:  "JID_2554.chk"
 Charge = -1 Multiplicity = 2

                         Standard orientation:
 ---------------------------------------------------------------------
 Center     Atomic      Atomic             Coordinates (Angstroms)
 Number     Number       Type             X           Y           Z
 ---------------------------------------------------------------------
      1          6           0        2.581081    1.741199    0.404524
      2          6           0        1.961080    0.334506    0.383550
      3          6           0        0.551303    0.451123   -0.230385
      4          8           0        0.414760    0.334656   -1.437592
      5          6           0       -0.601291    0.716962    0.723836
      6          6           0       -1.783935    1.467869    0.083541
      7          6           0       -2.616719    0.604127   -0.875845
      8          6           0       -3.056490   -0.709887   -0.218407
      9          6           0       -1.850363   -1.483552    0.328883
     10          6           0       -1.064269   -0.634134    1.334015
     11          7           0        2.826167   -0.578580   -0.349593
     12          6           0        2.418277   -1.976624   -0.222705
     13          1           0        2.673485    2.124234   -0.618017
     14          1           0        3.578721    1.693101    0.848790
     15          1           0        1.969226    2.446829    0.977359
     16          1           0        1.876487   -0.029077    1.415858
     17          1           0       -0.194819    1.322720    1.546120
     18          1           0       -2.429343    1.824225    0.898950
     19          1           0       -1.413402    2.357776   -0.438689
     20          1           0       -2.017163    0.383826   -1.763809
     21          1           0       -3.494468    1.173424   -1.206553
     22          1           0       -3.608162   -1.326855   -0.938119
     23          1           0       -3.749675   -0.495113    0.609077
     24          1           0       -1.195267   -1.769843   -0.504432
     25          1           0       -2.175525   -2.413415    0.811409
     26          1           0       -0.202415   -1.192070    1.720979
     27          1           0       -1.704811   -0.408862    2.197336
     28          1           0        2.763942   -0.315004   -1.333423
     29          1           0        1.377845   -2.180642   -0.529807
     30          1           0        3.079707   -2.599961   -0.832308
     31          1           0        2.532345   -2.292009    0.821122
 ---------------------------------------------------------------------

 SCF Done:  E(UB3LYP) =  -522.673219162     A.U. after   33 cycles
 SCF Done:  E(UB3LYP) =  -522.673219162     a.u. after    1 cycles

 The electronic state is 2-A.
 Alpha  occ. eigenvalues --  -19.01625 -14.20198 -10.15531 -10.10535 -10.08984
 Alpha  occ. eigenvalues --  -10.07653 -10.06842 -10.06737 -10.06069 -10.05903
 Alpha  occ. eigenvalues --  -10.05771 -10.05377  -0.94840  -0.81183  -0.73195
 Alpha  occ. eigenvalues --   -0.67274  -0.64562  -0.63843  -0.56682  -0.55392
 Alpha  occ. eigenvalues --   -0.50929  -0.50268  -0.46292  -0.43042  -0.38877
 Alpha  occ. eigenvalues --   -0.38195  -0.36246  -0.35828  -0.35276  -0.33691
 Alpha  occ. eigenvalues --   -0.33162  -0.32481  -0.30118  -0.28786  -0.28445
 Alpha  occ. eigenvalues --   -0.27715  -0.27249  -0.26841  -0.26576  -0.25670
 Alpha  occ. eigenvalues --   -0.24994  -0.23803  -0.22039  -0.20141  -0.19920
 Alpha  occ. eigenvalues --   -0.16175  -0.12780   0.04620
 Alpha virt. eigenvalues --    0.06790   0.07137   0.07318   0.08042   0.08865
 Alpha virt. eigenvalues --    0.09461   0.09741   0.10159   0.10728   0.11795
 Alpha virt. eigenvalues --    0.12105   0.12217   0.12601   0.13074   0.13805

  Beta  occ. eigenvalues --  -19.01620 -14.20192 -10.15532 -10.10521 -10.08965
  Beta  occ. eigenvalues --  -10.07639 -10.06814 -10.06709 -10.06046 -10.05889
  Beta  occ. eigenvalues --  -10.05754 -10.05369  -0.94830  -0.81168  -0.73156
  Beta  occ. eigenvalues --   -0.67242  -0.64524  -0.63802  -0.56629  -0.55348
  Beta  occ. eigenvalues --   -0.50878  -0.50213  -0.46244  -0.43009  -0.38834
  Beta  occ. eigenvalues --   -0.38140  -0.36208  -0.35794  -0.35247  -0.33661
  Beta  occ. eigenvalues --   -0.33142  -0.32454  -0.30096  -0.28746  -0.28409
  Beta  occ. eigenvalues --   -0.27674  -0.27214  -0.26807  -0.26541  -0.25638
  Beta  occ. eigenvalues --   -0.24962  -0.23762  -0.22006  -0.20098  -0.19880
  Beta  occ. eigenvalues --   -0.16160  -0.12764
  Beta virt. eigenvalues --    0.06795   0.07112   0.07711   0.07870   0.08667
  Beta virt. eigenvalues --    0.09314   0.10043   0.10091   0.10856   0.11059
  Beta virt. eigenvalues --    0.12079   0.12479   0.12587   0.12970   0.13474

 Mulliken charges and spin densities:
               1          2
     1  C    0.945019  -1.511919
     2  C   -0.020536  -0.738527
     3  C   -0.608946   0.642868
     4  O   -0.230356  -0.000454
     5  C   -0.170747   0.787820
     6  C    0.872173  -1.382569
     7  C   -0.407465   0.171475
     8  C    0.716263  -1.307066
     9  C   -0.602975   0.465793
    10  C    0.931350  -1.464639
    11  N   -0.136773   0.189033
    12  C    0.091792  -0.437367
    13  H    0.047411   0.107027
    14  H   -0.018404   0.186093
    15  H   -0.339478   0.491351
    16  H   -0.231720   0.427684
    17  H   -0.430041   0.697755
    18  H   -0.495074   0.663871
    19  H    0.053877   0.098338
    20  H    0.059969   0.127087
    21  H   -0.045977   0.202345
    22  H   -0.194499   0.345346
    23  H   -0.027104   0.156609
    24  H    0.181269  -0.074456
    25  H   -0.352816   0.532976
    26  H   -0.002781   0.154112
    27  H   -0.578979   0.769100
    28  H    0.240681   0.021344
    29  H   -0.045261   0.193231
    30  H   -0.028460   0.167866
    31  H   -0.171410   0.317874
 Sum of Mulliken charges =  -1.00000   1.00000

 Dipole moment (field-independent basis, Debye):
    X=              2.0560    Y=             -0.8515    Z=             -5.0017  Tot=              5.4744
 Quadrupole moment (field-independent basis, Debye-Ang):
   XX=           -135.4592   YY=           -118.2340   ZZ=           -119.5072
   XY=             -0.7932   XZ=              0.7727   YZ=             -1.8283

 Summary of Natural Population Analysis:

                                       Natural Population
                Natural  -----------------------------------------------
    Atom  No    Charge         Core      Valence    Rydberg      Total
 -----------------------------------------------------------------------
      C    1   -0.28143      0.99964     2.27518    0.00661     3.28143
      C    2   -0.05572      0.99955     2.04237    0.01380     3.05572
      C    3    0.30774      0.99960     1.66858    0.02408     2.69226
      O    4   -0.30234      0.99987     3.29588    0.00659     4.30234
      C    5   -0.15913      0.99953     2.14594    0.01366     3.15913
      C    6   -0.18657      0.99962     2.17627    0.01067     3.18657
      C    7   -0.19304      0.99962     2.18496    0.00846     3.19304
      C    8   -0.18798      0.99963     2.18057    0.00779     3.18798
      C    9   -0.19330      0.99962     2.18414    0.00954     3.19330
      C   10   -0.18334      0.99961     2.17372    0.01001     3.18334
      N   11   -0.33687      0.99975     2.82550    0.01162     3.83687
      C   12   -0.18012      0.99966     2.17269    0.00778     3.18012
      H   13    0.09743      0.00000     0.40151    0.00106     0.40257
      H   14    0.10569      0.00000     0.39299    0.00133     0.39431
      H   15    0.10419      0.00000     0.39458    0.00123     0.39581
      H   16    0.10186      0.00000     0.39580    0.00234     0.39814
      H   17    0.11243      0.00000     0.38412    0.00345     0.38757
      H   18    0.09986      0.00000     0.39845    0.00169     0.40014
      H   19    0.10052      0.00000     0.39832    0.00115     0.39948
      H   20    0.10404      0.00000     0.39457    0.00139     0.39596
      H   21    0.09503      0.00000     0.40410    0.00087     0.40497
      H   22    0.09598      0.00000     0.40307    0.00095     0.40402
      H   23    0.09286      0.00000     0.40566    0.00148     0.40714
      H   24    0.09435      0.00000     0.40395    0.00170     0.40565
      H   25    0.10035      0.00000     0.39843    0.00122     0.39965
      H   26    0.10134      0.00000     0.39668    0.00198     0.39866
      H   27    0.10319      0.00000     0.39436    0.00245     0.39681
      H   28    0.17516      0.00000     0.32195    0.00289     0.32484
      H   29    0.08281      0.00000     0.41575    0.00144     0.41719
      H   30    0.09194      0.00000     0.40732    0.00073     0.40806
      H   31    0.09306      0.00000     0.40575    0.00119     0.40694
 =======================================================================
   * Total *   -0.00000     11.99569    34.84314    0.16117    47.00000

 Normal termination of Gaussian 16 at Wed Dec  9 18:04:14 2020.
