 Gaussian 16, Revision A.03,

 -----------------------------------------------------------
 # opt freq B3LYP/6-31G(d) empiricaldispersion=gd3bj scf=xqc
 -----------------------------------------------------------

 ------------------------------
 CID_150702843_JID_739_neutraal
 ------------------------------
 Symbolic Z-matrix:
 Charge =  0 Multiplicity = 1

 SCF Done:  E(RB3LYP) =  -632.868193594     A.U. after   17 cycles
 SCF Done:  E(RB3LYP) =  -632.884699309     A.U. after   15 cycles
 SCF Done:  E(RB3LYP) =  -632.887651577     A.U. after   14 cycles
 SCF Done:  E(RB3LYP) =  -632.888287994     A.U. after   13 cycles
 SCF Done:  E(RB3LYP) =  -632.888385747     A.U. after   13 cycles
 SCF Done:  E(RB3LYP) =  -632.888211670     A.U. after   14 cycles
 SCF Done:  E(RB3LYP) =  -632.888316955     A.U. after   13 cycles
 SCF Done:  E(RB3LYP) =  -632.888404012     A.U. after    8 cycles
 SCF Done:  E(RB3LYP) =  -632.888407516     A.U. after   11 cycles
 Optimization completed.
    -- Stationary point found.
 Normal termination of Gaussian 16 at Sun Dec 13 19:53:05 2020.

 --------------------------------------------------------------------
 #N Geom=AllCheck Guess=TCheck SCRF=Check GenChk RB3LYP/6-31G(d) Freq
 --------------------------------------------------------------------

 Structure from the checkpoint file:  "JID_739.chk"
 ------------------------------
 CID_150702843_JID_739_neutraal
 ------------------------------
 Charge =  0 Multiplicity = 1

 SCF Done:  E(RB3LYP) =  -632.888407516     A.U. after    1 cycles

  Exact polarizability: 109.049   0.952  51.725   0.008   0.004  23.369
 Approx polarizability: 171.009   2.361 115.177   0.025   0.015  34.457

 ******    2 imaginary frequencies (negative Signs) ******

                      1                      2                      3
                      A                      A                      A
 Frequencies --    -93.7270               -29.4868                34.5309
 Red. masses --     14.2587                15.5885                15.8544
 Frc consts  --      0.0738                 0.0080                 0.0111
 IR Inten    --      1.0831                 0.1410                 0.0628

                      4                      5                      6
                      A                      A                      A
 Frequencies --     93.8274               140.3661               197.2763
 Red. masses --     14.9655                15.4377                14.6216
 Frc consts  --      0.0776                 0.1792                 0.3353
 IR Inten    --      0.3468                 1.8119                 0.2904

                      7                      8                      9
                      A                      A                      A
 Frequencies --    289.1357               346.3386               406.8146
 Red. masses --     15.0304                15.3069                15.4426
 Frc consts  --      0.7403                 1.0818                 1.5058
 IR Inten    --     13.0930                 5.3652                 0.2757

                     10                     11                     12
                      A                      A                      A
 Frequencies --    477.6804               494.9924               521.4605
 Red. masses --     13.9270                13.8638                14.9678
 Frc consts  --      1.8723                 2.0014                 2.3980
 IR Inten    --      0.0392                34.3201                 4.4408

                     13                     14                     15
                      A                      A                      A
 Frequencies --    645.7188               761.4210               789.9912
 Red. masses --     14.6959                13.2469                14.6742
 Frc consts  --      3.6102                 4.5249                 5.3957
 IR Inten    --      7.9226                 0.7619                23.8061

                     16                     17                     18
                      A                      A                      A
 Frequencies --    842.8261               927.4857               981.2725
 Red. masses --     15.0417                15.1327                15.3643
 Frc consts  --      6.2954                 7.6698                 8.7165
 IR Inten    --    124.2554                21.3452                21.1929

                     19                     20                     21
                      A                      A                      A
 Frequencies --   1169.2889              1259.1397              1384.3344
 Red. masses --     13.4496                14.0357                15.0869
 Frc consts  --     10.8344                13.1109                17.0346
 IR Inten    --    233.4484                11.9119               123.5059

                     22                     23                     24
                      A                      A                      A
 Frequencies --   1712.1825              1948.8734              2206.5915
 Red. masses --     14.6036                13.1978                14.0037
 Frc consts  --     25.2238                29.5339                40.1733
 IR Inten    --    241.2453               282.6840               288.0576

 - Thermochemistry -
 -------------------
 Temperature   298.150 Kelvin.  Pressure   1.00000 Atm.
 Atom     1 has atomic number  6 and mass  12.00000

 Molecular mass:   147.98687 amu.
 Principal axes and moments of inertia in atomic units:
                           1         2         3
     Eigenvalues --   366.474653132.863823499.33837
           X            1.00000   0.00001  -0.00000
           Y           -0.00001   1.00000  -0.00000
           Z            0.00000   0.00000   1.00000
 This molecule is an asymmetric top.
 Rotational symmetry number  1.
 Rotational temperatures (Kelvin)      0.23634     0.02765     0.02475
 Rotational constants (GHZ):           4.92460     0.57607     0.51574
    2 imaginary frequencies ignored.
 Zero-point vibrational energy     105460.1 (Joules/Mol)
                                   25.20556 (Kcal/Mol)
 Warning -- explicit consideration of  10 degrees of freedom as
           vibrations may cause significant error
 Vibrational temperatures:     49.68   135.00   201.96   283.84   416.00
          (Kelvin)            498.30   585.32   687.28   712.18   750.27
                              929.05  1095.51  1136.62  1212.64  1334.44
                             1411.83  1682.35  1811.62  1991.75  2463.45
                             2803.99  3174.79

 Zero-point correction=                           0.040168 (Hartree/Particle)
 Thermal correction to Energy=                    0.048126
 Thermal correction to Enthalpy=                  0.049070
 Thermal correction to Gibbs Free Energy=         0.005509
 Sum of electronic and zero-point Energies=           -632.848240
 Sum of electronic and thermal Energies=              -632.840282
 Sum of electronic and thermal Enthalpies=            -632.839338
 Sum of electronic and thermal Free Energies=         -632.882899

                     E (Thermal)             CV                S
                      KCal/Mol        Cal/Mol-Kelvin    Cal/Mol-Kelvin
 Total                   30.199             26.476             91.682
 Electronic               0.000              0.000              0.000
 Translational            0.889              2.981             40.886
 Rotational               0.889              2.981             29.775
 Vibrational             28.422             20.515             21.020
 Vibration     1          0.594              1.983              5.550
 Vibration     2          0.603              1.954              3.579
 Vibration     3          0.615              1.913              2.799
 Vibration     4          0.637              1.844              2.158
 Vibration     5          0.686              1.694              1.479
 Vibration     6          0.724              1.583              1.183
 Vibration     7          0.772              1.455              0.938
 Vibration     8          0.834              1.300              0.716
 Vibration     9          0.851              1.261              0.671
 Vibration    10          0.876              1.202              0.607

 Optimization completed.
    -- Stationary point found.
 Normal termination of Gaussian 16 at Sun Dec 13 19:54:08 2020.

 ----------------------------------------------------------------------
 # B3LYP/6-311++G(d,p) empiricaldispersion=gd3bj scf=xqc pop=npa geom=c
 heck
 ----------------------------------------------------------------------

 --------------------------------------
 CID_150702843_JID_739_Energie_neutraal
 --------------------------------------
 Structure from the checkpoint file:  "JID_739.chk"
 Charge =  0 Multiplicity = 1

 SCF Done:  E(RB3LYP) =  -633.080585096     A.U. after   16 cycles
 Normal termination of Gaussian 16 at Sun Dec 13 19:54:27 2020.

 ----------------------------------------------------------------------
 # B3LYP/6-311++G(d,p) empiricaldispersion=gd3bj scf=xqc pop=npa geom=c
 heck
 ----------------------------------------------------------------------

 ------------------------------------
 CID_150702843_JID_739_Energie_kation
 ------------------------------------
 Structure from the checkpoint file:  "JID_739.chk"
 Charge =  1 Multiplicity = 2

 SCF Done:  E(UB3LYP) =  -632.693241135     A.U. after   33 cycles
 SCF Done:  E(UB3LYP) =  -632.693241135     a.u. after    1 cycles
 Normal termination of Gaussian 16 at Sun Dec 13 19:55:23 2020.
 Gaussian 16:  ES64L-G16RevA.03 25-Dec-2016

 ----------------------------------------------------------------------
 # B3LYP/6-311++G(d,p) empiricaldispersion=gd3bj scf=xqc pop=npa geom=c
 heck
 ----------------------------------------------------------------------

 -----------------------------------
 CID_150702843_JID_739_Energie_anion
 -----------------------------------
 Structure from the checkpoint file:  "JID_739.chk"
 Charge = -1 Multiplicity = 2

                         Standard orientation:
 ---------------------------------------------------------------------
 Center     Atomic      Atomic             Coordinates (Angstroms)
 Number     Number       Type             X           Y           Z
 ---------------------------------------------------------------------
      1          6           0       -1.059904    0.506887   -0.000187
      2          8           0       -1.037422    1.690819   -0.000102
      3          7           0       -2.390104   -0.308494    0.000121
      4          8           0       -2.301980   -1.525973    0.000116
      5          8           0       -3.392276    0.378432    0.000346
      6          8           0       -0.066715   -0.389046   -0.000231
      7          8           0        1.173597    0.369495   -0.000346
      8          7           0        2.133715   -0.729937   -0.000452
      9          7           0        3.254177   -0.174355    0.000144
     10          7           0        4.339039    0.179766    0.000596
 ---------------------------------------------------------------------

 SCF Done:  E(UB3LYP) =  -633.150824117     A.U. after   29 cycles

 The electronic state is 2-A.
 Alpha  occ. eigenvalues --  -19.10506 -19.09935 -19.00880 -19.00685 -19.00509
 Alpha  occ. eigenvalues --  -14.38207 -14.33264 -14.27199 -14.24641 -10.20750
 Alpha  occ. eigenvalues --   -1.09048  -1.06442  -1.00834  -0.95445  -0.92005
 Alpha  occ. eigenvalues --   -0.88537  -0.77541  -0.59727  -0.46864  -0.46092
 Alpha  occ. eigenvalues --   -0.41595  -0.40966  -0.38549  -0.38224  -0.37259
 Alpha  occ. eigenvalues --   -0.35603  -0.34734  -0.32658  -0.30133  -0.27163
 Alpha  occ. eigenvalues --   -0.22777  -0.21511  -0.20085  -0.18233  -0.16249
 Alpha  occ. eigenvalues --   -0.14680  -0.11012   0.00016
 Alpha virt. eigenvalues --    0.02407   0.10521   0.13155   0.13931   0.14732
 Alpha virt. eigenvalues --    0.15029   0.16845   0.17362   0.18235   0.19248
 Alpha virt. eigenvalues --    0.21121   0.21774   0.22723   0.23750   0.24830

  Beta  occ. eigenvalues --  -19.10343 -19.09557 -19.00723 -19.00364 -19.00203
  Beta  occ. eigenvalues --  -14.37793 -14.33052 -14.27176 -14.24049 -10.20651
  Beta  occ. eigenvalues --   -1.08394  -1.05809  -1.00242  -0.95049  -0.91417
  Beta  occ. eigenvalues --   -0.88031  -0.76842  -0.58852  -0.46380  -0.45425
  Beta  occ. eigenvalues --   -0.41026  -0.39590  -0.37957  -0.37478  -0.36563
  Beta  occ. eigenvalues --   -0.34876  -0.33892  -0.31375  -0.29503  -0.26448
  Beta  occ. eigenvalues --   -0.22378  -0.20594  -0.19471  -0.16195  -0.15868
  Beta  occ. eigenvalues --   -0.14373  -0.10658
  Beta virt. eigenvalues --    0.06070   0.06605   0.11633   0.13462   0.14014
  Beta virt. eigenvalues --    0.15234   0.16079   0.16897   0.17853   0.18239
  Beta virt. eigenvalues --    0.19387   0.21274   0.21872   0.22750   0.24023

 Mulliken charges and spin densities:
               1          2
     1  C    0.204636   0.076044
     2  O   -0.294691   0.048984
     3  N   -0.239389   0.141717
     4  O   -0.139113   0.112886
     5  O   -0.129538   0.115338
     6  O   -0.041155   0.047979
     7  O    0.164838   0.052262
     8  N   -0.357981   0.046484
     9  N    0.373372   0.063328
    10  N   -0.540979   0.294977
 Sum of Mulliken charges =  -1.00000   1.00000

 Dipole moment (field-independent basis, Debye):
    X=              1.2791    Y=              0.0036    Z=              0.0444  Tot=              1.2799
 Quadrupole moment (field-independent basis, Debye-Ang):
   XX=           -107.2972   YY=            -69.1608   ZZ=            -54.7895
   XY=             -1.7895   XZ=             -0.0456   YZ=             -0.0125

 Summary of Natural Population Analysis:

                                       Natural Population
                Natural  -----------------------------------------------
    Atom  No    Charge         Core      Valence    Rydberg      Total
 -----------------------------------------------------------------------
      C    1    0.44050      0.99975     1.53077    0.02898     2.55950
      O    2   -0.25984      0.99985     3.25279    0.00720     4.25984
      N    3    0.25273      0.99980     2.21349    0.03398     3.24727
      O    4   -0.17630      0.99989     3.16762    0.00878     4.17630
      O    5   -0.16945      0.99989     3.16024    0.00932     4.16945
      O    6   -0.11396      0.99986     3.10438    0.00973     4.11396
      O    7   -0.04980      0.99993     3.03982    0.01005     4.04980
      N    8   -0.06750      0.99973     2.55086    0.01691     3.56750
      N    9    0.09854      0.99972     2.38563    0.01611     3.40146
      N   10    0.04507      0.99982     2.44121    0.01389     3.45493
 =======================================================================
   * Total *   -0.00000      9.99824    26.84681    0.15495    37.00000

 Normal termination of Gaussian 16 at Sun Dec 13 19:56:12 2020.
