 Gaussian 16, Revision A.03,

 -----------------------------------------------------------
 # opt freq B3LYP/6-31G(d) empiricaldispersion=gd3bj scf=xqc
 -----------------------------------------------------------

 ------------------------------
 CID_70597135_JID_2865_neutraal
 ------------------------------
 Symbolic Z-matrix:
 Charge =  0 Multiplicity = 1

 SCF Done:  E(RB3LYP) =  -573.220467834     A.U. after   16 cycles
 SCF Done:  E(RB3LYP) =  -573.224105577     A.U. after   13 cycles
 SCF Done:  E(RB3LYP) =  -573.224318616     A.U. after   12 cycles
 SCF Done:  E(RB3LYP) =  -573.225024442     A.U. after   12 cycles
 SCF Done:  E(RB3LYP) =  -573.225119809     A.U. after   11 cycles
 SCF Done:  E(RB3LYP) =  -573.225140373     A.U. after   10 cycles
 SCF Done:  E(RB3LYP) =  -573.225150866     A.U. after   10 cycles
 SCF Done:  E(RB3LYP) =  -573.225154888     A.U. after   10 cycles
 SCF Done:  E(RB3LYP) =  -573.225156399     A.U. after    9 cycles
 SCF Done:  E(RB3LYP) =  -573.225156820     A.U. after    8 cycles
 Optimization completed.
    -- Stationary point found.
 Normal termination of Gaussian 16 at Wed Dec  9 18:07:07 2020.

 --------------------------------------------------------------------
 #N Geom=AllCheck Guess=TCheck SCRF=Check GenChk RB3LYP/6-31G(d) Freq
 --------------------------------------------------------------------

 Structure from the checkpoint file:  "JID_2865.chk"
 ------------------------------
 CID_70597135_JID_2865_neutraal
 ------------------------------
 Charge =  0 Multiplicity = 1

 SCF Done:  E(RB3LYP) =  -573.225156820     A.U. after    1 cycles

  Exact polarizability: 118.366   1.822  99.263   0.548  -2.163  78.448
 Approx polarizability: 185.735  -2.255 150.047   1.271  -8.839 114.170

                      1                      2                      3
                      A                      A                      A
 Frequencies --     77.5378               114.6034               184.9224
 Red. masses --      5.2858                 4.1998                 2.7921
 Frc consts  --      0.0187                 0.0325                 0.0563
 IR Inten    --      0.5816                 0.4689                 1.8142

                      4                      5                      6
                      A                      A                      A
 Frequencies --    229.1075               239.5957               249.9887
 Red. masses --      1.0648                 1.9157                 1.6057
 Frc consts  --      0.0329                 0.0648                 0.0591
 IR Inten    --      0.2469                 1.6337                 1.1462

                      7                      8                      9
                      A                      A                      A
 Frequencies --    264.4808               289.6288               309.1063
 Red. masses --      2.6519                 1.0867                 1.4054
 Frc consts  --      0.1093                 0.0537                 0.0791
 IR Inten    --      1.9244                 0.3835                 0.6708

                     10                     11                     12
                      A                      A                      A
 Frequencies --    323.4644               329.5695               352.0251
 Red. masses --      3.0130                 2.3181                 2.1075
 Frc consts  --      0.1857                 0.1483                 0.1539
 IR Inten    --      2.3762                 4.1018                 3.4736

                     13                     14                     15
                      A                      A                      A
 Frequencies --    366.5444               380.0155               404.0154
 Red. masses --      2.5742                 2.8018                 5.0921
 Frc consts  --      0.2038                 0.2384                 0.4897
 IR Inten    --      7.4833                 1.7194                19.2557

                     16                     17                     18
                      A                      A                      A
 Frequencies --    464.0244               483.1696               487.1222
 Red. masses --      1.5198                 3.5317                 3.9216
 Frc consts  --      0.1928                 0.4858                 0.5483
 IR Inten    --     41.6880                 8.2563                 8.2367

                     19                     20                     21
                      A                      A                      A
 Frequencies --    514.0825               529.1038               599.5892
 Red. masses --      1.9758                 3.7014                 4.1731
 Frc consts  --      0.3077                 0.6105                 0.8839
 IR Inten    --     25.2831                 3.3506                 0.1091

                     22                     23                     24
                      A                      A                      A
 Frequencies --    654.4737               748.0562               780.6394
 Red. masses --      5.2970                 5.7499                 3.9901
 Frc consts  --      1.3368                 1.8958                 1.4326
 IR Inten    --      4.1250                 2.7837                15.1089

                     25                     26                     27
                      A                      A                      A
 Frequencies --    784.6370               914.7413               926.0208
 Red. masses --      4.5900                 2.3058                 2.1301
 Frc consts  --      1.6649                 1.1367                 1.0762
 IR Inten    --     11.4367                 5.5495                 9.1718

                     28                     29                     30
                      A                      A                      A
 Frequencies --    947.4462               963.6860               967.5141
 Red. masses --      1.7273                 1.6031                 1.4332
 Frc consts  --      0.9135                 0.8772                 0.7904
 IR Inten    --      1.6087                 0.6222                 0.6859

                     31                     32                     33
                      A                      A                      A
 Frequencies --    981.5634              1033.8952              1048.2216
 Red. masses --      1.6641                 1.2981                 1.3479
 Frc consts  --      0.9447                 0.8175                 0.8726
 IR Inten    --      1.9706                 0.4582                 1.4516

                     34                     35                     36
                      A                      A                      A
 Frequencies --   1073.1128              1095.5485              1170.6411
 Red. masses --      4.8396                 2.8307                 2.8941
 Frc consts  --      3.2836                 2.0018                 2.3368
 IR Inten    --     49.4820                28.0782                17.9724

                     37                     38                     39
                      A                      A                      A
 Frequencies --   1200.5561              1228.5741              1247.3631
 Red. masses --      2.6931                 2.9979                 3.0004
 Frc consts  --      2.2870                 2.6661                 2.7506
 IR Inten    --     45.5769                 4.5191                15.2207

                     40                     41                     42
                      A                      A                      A
 Frequencies --   1258.9234              1290.7501              1337.8956
 Red. masses --      2.9410                 3.5538                 3.7483
 Frc consts  --      2.7463                 3.4884                 3.9530
 IR Inten    --     18.2809                 8.6860                97.4544

                     43                     44                     45
                      A                      A                      A
 Frequencies --   1422.7549              1424.8808              1426.8629
 Red. masses --      1.2604                 1.2979                 1.2454
 Frc consts  --      1.5033                 1.5526                 1.4939
 IR Inten    --     11.3556                19.1742                16.1784

                     46                     47                     48
                      A                      A                      A
 Frequencies --   1441.5441              1457.2223              1508.8464
 Red. masses --      1.2342                 1.2187                 1.0500
 Frc consts  --      1.5110                 1.5248                 1.4084
 IR Inten    --     12.0604                 8.2187                 1.4069

                     49                     50                     51
                      A                      A                      A
 Frequencies --   1516.0750              1518.8038              1523.0293
 Red. masses --      1.0583                 1.0656                 1.2261
 Frc consts  --      1.4332                 1.4482                 1.6757
 IR Inten    --      4.6006                18.8754                93.6872

                     52                     53                     54
                      A                      A                      A
 Frequencies --   1526.8041              1535.1028              1538.6728
 Red. masses --      1.0868                 1.0659                 1.0532
 Frc consts  --      1.4927                 1.4800                 1.4691
 IR Inten    --     13.3008                28.9782                 6.3070

                     55                     56                     57
                      A                      A                      A
 Frequencies --   1547.4659              1551.5353              1714.0443
 Red. masses --      1.0776                 1.0593                10.1122
 Frc consts  --      1.5203                 1.5024                17.5041
 IR Inten    --      1.1692                 3.5262                96.6131

                     58                     59                     60
                      A                      A                      A
 Frequencies --   1762.5250              3060.3202              3063.3984
 Red. masses --      9.4715                 1.0359                 1.0363
 Frc consts  --     17.3355                 5.7159                 5.7297
 IR Inten    --    340.0810                 9.1038                17.4510

                     61                     62                     63
                      A                      A                      A
 Frequencies --   3066.0746              3079.8703              3100.9219
 Red. masses --      1.0360                 1.0381                 1.0884
 Frc consts  --      5.7383                 5.8018                 6.1663
 IR Inten    --     12.4298                14.3737                31.1020

                     64                     65                     66
                      A                      A                      A
 Frequencies --   3124.4328              3128.2316              3136.3007
 Red. masses --      1.1017                 1.1011                 1.1020
 Frc consts  --      6.3364                 6.3486                 6.3867
 IR Inten    --      1.2242                33.3961                28.7055

                     67                     68                     69
                      A                      A                      A
 Frequencies --   3142.8411              3150.0232              3153.5619
 Red. masses --      1.1022                 1.1019                 1.1013
 Frc consts  --      6.4147                 6.4421                 6.4532
 IR Inten    --     16.3709                 2.4850                 8.5044

                     70                     71                     72
                      A                      A                      A
 Frequencies --   3154.0640              3167.2117              3471.8037
 Red. masses --      1.1024                 1.1029                 1.0643
 Frc consts  --      6.4615                 6.5186                 7.5582
 IR Inten    --     25.8575                11.8278                83.6358

 - Thermochemistry -
 -------------------
 Temperature   298.150 Kelvin.  Pressure   1.00000 Atm.
 Atom     1 has atomic number  6 and mass  12.00000

 Molecular mass:   170.10553 amu.
 Principal axes and moments of inertia in atomic units:
                           1         2         3
     Eigenvalues --  1321.943481923.998172435.23130
           X            0.99959   0.02768   0.00701
           Y           -0.02783   0.99935   0.02312
           Z           -0.00636  -0.02330   0.99971
 This molecule is an asymmetric top.
 Rotational symmetry number  1.
 Warning -- assumption of classical behavior for rotation
           may cause significant error
 Rotational temperatures (Kelvin)      0.06552     0.04502     0.03557
 Rotational constants (GHZ):           1.36522     0.93802     0.74110
 Zero-point vibrational energy     581751.1 (Joules/Mol)
                                  139.04184 (Kcal/Mol)
 Warning -- explicit consideration of  21 degrees of freedom as
           vibrations may cause significant error
 Vibrational temperatures:    111.56   164.89   266.06   329.63   344.72
          (Kelvin)            359.68   380.53   416.71   444.73   465.39
                              474.18   506.49   527.38   546.76   581.29
                              667.63   695.17   700.86   739.65   761.26
                              862.68   941.64  1076.29  1123.17  1128.92
                             1316.11  1332.34  1363.16  1386.53  1392.04
                             1412.25  1487.54  1508.16  1543.97  1576.25
                             1684.29  1727.33  1767.64  1794.68  1811.31
                             1857.10  1924.93  2047.03  2050.09  2052.94
                             2074.06  2096.62  2170.89  2181.29  2185.22
                             2191.30  2196.73  2208.67  2213.81  2226.46
                             2232.31  2466.13  2535.88  4403.12  4407.55
                             4411.40  4431.25  4461.54  4495.36  4500.83
                             4512.44  4521.85  4532.18  4537.27  4537.99
                             4556.91  4995.15

 Zero-point correction=                           0.221577 (Hartree/Particle)
 Thermal correction to Energy=                    0.233659
 Thermal correction to Enthalpy=                  0.234604
 Thermal correction to Gibbs Free Energy=         0.185240
 Sum of electronic and zero-point Energies=           -573.003580
 Sum of electronic and thermal Energies=              -572.991497
 Sum of electronic and thermal Enthalpies=            -572.990553
 Sum of electronic and thermal Free Energies=         -573.039916

                     E (Thermal)             CV                S
                      KCal/Mol        Cal/Mol-Kelvin    Cal/Mol-Kelvin
 Total                  146.624             48.093            103.894
 Electronic               0.000              0.000              0.000
 Translational            0.889              2.981             41.302
 Rotational               0.889              2.981             30.205
 Vibrational            144.846             42.132             32.387
 Vibration     1          0.599              1.964              3.952
 Vibration     2          0.608              1.937              3.189
 Vibration     3          0.631              1.860              2.278
 Vibration     4          0.652              1.797              1.886
 Vibration     5          0.657              1.780              1.806
 Vibration     6          0.663              1.763              1.731
 Vibration     7          0.671              1.738              1.632
 Vibration     8          0.686              1.693              1.476
 Vibration     9          0.698              1.656              1.367
 Vibration    10          0.708              1.628              1.293
 Vibration    11          0.712              1.616              1.262
 Vibration    12          0.729              1.571              1.157
 Vibration    13          0.739              1.541              1.094
 Vibration    14          0.750              1.513              1.039
 Vibration    15          0.769              1.461              0.948
 Vibration    16          0.822              1.330              0.754
 Vibration    17          0.839              1.287              0.702
 Vibration    18          0.843              1.279              0.691
 Vibration    19          0.869              1.219              0.624
 Vibration    20          0.884              1.186              0.589
 Vibration    21          0.958              1.033              0.450

 Optimization completed.
    -- Stationary point found.
 Normal termination of Gaussian 16 at Wed Dec  9 18:13:51 2020.

 ----------------------------------------------------------------------
 # B3LYP/6-311++G(d,p) empiricaldispersion=gd3bj scf=xqc pop=npa geom=c
 heck
 ----------------------------------------------------------------------

 --------------------------------------
 CID_70597135_JID_2865_Energie_neutraal
 --------------------------------------
 Structure from the checkpoint file:  "JID_2865.chk"
 Charge =  0 Multiplicity = 1

 SCF Done:  E(RB3LYP) =  -573.395479965     A.U. after   17 cycles
 Normal termination of Gaussian 16 at Wed Dec  9 18:17:39 2020.

 ----------------------------------------------------------------------
 # B3LYP/6-311++G(d,p) empiricaldispersion=gd3bj scf=xqc pop=npa geom=c
 heck
 ----------------------------------------------------------------------

 ------------------------------------
 CID_70597135_JID_2865_Energie_kation
 ------------------------------------
 Structure from the checkpoint file:  "JID_2865.chk"
 Charge =  1 Multiplicity = 2

 SCF Done:  E(UB3LYP) =  -573.074296276     A.U. after   26 cycles
 Normal termination of Gaussian 16 at Wed Dec  9 18:23:33 2020.
 Gaussian 16:  ES64L-G16RevA.03 25-Dec-2016

 ----------------------------------------------------------------------
 # B3LYP/6-311++G(d,p) empiricaldispersion=gd3bj scf=xqc pop=npa geom=c
 heck
 ----------------------------------------------------------------------

 -----------------------------------
 CID_70597135_JID_2865_Energie_anion
 -----------------------------------
 Structure from the checkpoint file:  "JID_2865.chk"
 Charge = -1 Multiplicity = 2

                         Standard orientation:
 ---------------------------------------------------------------------
 Center     Atomic      Atomic             Coordinates (Angstroms)
 Number     Number       Type             X           Y           Z
 ---------------------------------------------------------------------
      1          6           0       -1.601810   -0.570703   -1.618135
      2          6           0       -1.268166   -0.433911   -0.111597
      3          6           0       -0.536369   -1.708446    0.259505
      4          7           0        0.726601   -1.901891    0.286374
      5          6           0        1.572560   -0.804592   -0.013590
      6          8           0        2.795449   -0.902256    0.010995
      7          7           0        0.978146    0.380164   -0.390398
      8          6           0       -0.328649    0.781768    0.176027
      9          6           0       -0.163610    1.058354    1.682255
     10          6           0       -0.789895    2.059333   -0.534789
     11          8           0        1.898498    1.453451   -0.430530
     12          6           0       -2.579971   -0.357213    0.687431
     13          1           0       -0.695372   -0.533043   -2.227155
     14          1           0       -2.274788    0.231072   -1.936228
     15          1           0       -2.108516   -1.523200   -1.807468
     16          1           0       -1.166653   -2.575854    0.482421
     17          1           0        0.676297    1.744270    1.818783
     18          1           0       -1.059383    1.524663    2.102046
     19          1           0        0.044526    0.140789    2.242266
     20          1           0       -0.733634    1.956782   -1.620361
     21          1           0       -1.820190    2.296324   -0.252792
     22          1           0       -0.153745    2.896924   -0.242907
     23          1           0        2.744923    0.967548   -0.280693
     24          1           0       -3.126615    0.561585    0.454569
     25          1           0       -3.225718   -1.201408    0.422359
     26          1           0       -2.410477   -0.391461    1.766967
 ---------------------------------------------------------------------

 SCF Done:  E(UB3LYP) =  -573.403808041     A.U. after   33 cycles
 SCF Done:  E(UB3LYP) =  -573.403808041     a.u. after    1 cycles

 The electronic state is 2-A.
 Alpha  occ. eigenvalues --  -19.01171 -18.92299 -14.22335 -14.12138 -10.10680
 Alpha  occ. eigenvalues --  -10.09380 -10.05691 -10.04377 -10.04163 -10.03627
 Alpha  occ. eigenvalues --  -10.03222 -10.01985  -0.95237  -0.86289  -0.77567
 Alpha  occ. eigenvalues --   -0.71235  -0.67279  -0.62176  -0.57896  -0.55841
 Alpha  occ. eigenvalues --   -0.51470  -0.46903  -0.46556  -0.39449  -0.37179
 Alpha  occ. eigenvalues --   -0.34819  -0.32823  -0.32319  -0.30481  -0.28566
 Alpha  occ. eigenvalues --   -0.28313  -0.28052  -0.27072  -0.26331  -0.25801
 Alpha  occ. eigenvalues --   -0.24947  -0.24371  -0.23740  -0.22665  -0.22315
 Alpha  occ. eigenvalues --   -0.20114  -0.19284  -0.14589  -0.11847  -0.09290
 Alpha  occ. eigenvalues --   -0.08166   0.05418
 Alpha virt. eigenvalues --    0.07901   0.09553   0.09829   0.10947   0.11840
 Alpha virt. eigenvalues --    0.12243   0.12522   0.13199   0.13829   0.14877
 Alpha virt. eigenvalues --    0.15482   0.15644   0.16642   0.16863   0.17725

  Beta  occ. eigenvalues --  -19.01154 -18.91967 -14.22285 -14.11947 -10.10429
  Beta  occ. eigenvalues --  -10.09353 -10.05739 -10.04343 -10.04156 -10.03624
  Beta  occ. eigenvalues --  -10.03139 -10.01299  -0.95112  -0.85741  -0.77100
  Beta  occ. eigenvalues --   -0.70829  -0.67042  -0.62080  -0.57833  -0.55749
  Beta  occ. eigenvalues --   -0.50948  -0.46488  -0.46030  -0.39214  -0.37020
  Beta  occ. eigenvalues --   -0.34688  -0.32681  -0.31912  -0.30143  -0.28321
  Beta  occ. eigenvalues --   -0.28183  -0.27923  -0.26874  -0.26159  -0.25417
  Beta  occ. eigenvalues --   -0.24815  -0.24201  -0.23465  -0.22411  -0.21492
  Beta  occ. eigenvalues --   -0.19678  -0.19082  -0.12140  -0.11489  -0.08922
  Beta  occ. eigenvalues --   -0.07619
  Beta virt. eigenvalues --    0.07883   0.09388   0.09585   0.10790   0.11781
  Beta virt. eigenvalues --    0.12258   0.12404   0.13121   0.13581   0.13817
  Beta virt. eigenvalues --    0.14943   0.15401   0.15629   0.16494   0.16744

 Mulliken charges and spin densities:
               1          2
     1  C    0.127683  -0.707997
     2  C    0.227205   0.683809
     3  C   -0.522656   0.495112
     4  N   -0.191575   0.073677
     5  C    0.150817   0.110876
     6  O   -0.429852   0.114444
     7  N   -0.145692   0.004346
     8  C    0.059769  -0.259330
     9  C   -0.549155   0.005628
    10  C   -0.749148   0.058132
    11  O   -0.011304   0.005151
    12  C   -0.464180  -0.177801
    13  H    0.166110   0.024629
    14  H   -0.066231   0.189067
    15  H   -0.004944   0.151291
    16  H    0.126693  -0.041701
    17  H    0.153937  -0.002456
    18  H    0.089916   0.042143
    19  H    0.187594  -0.003006
    20  H    0.095659   0.078671
    21  H    0.116529   0.006050
    22  H    0.159513   0.011327
    23  H    0.202738   0.001989
    24  H    0.100360   0.012789
    25  H    0.130501   0.002329
    26  H    0.039713   0.120833
 Sum of Mulliken charges =  -1.00000   1.00000

 Dipole moment (field-independent basis, Debye):
    X=             -4.6472    Y=              4.4407    Z=              0.6714  Tot=              6.4628
 Quadrupole moment (field-independent basis, Debye-Ang):
   XX=           -103.0988   YY=            -97.8497   ZZ=            -89.0330
   XY=              6.7776   XZ=             -1.4226   YZ=              3.3712

 Summary of Natural Population Analysis:

                                       Natural Population
                Natural  -----------------------------------------------
    Atom  No    Charge         Core      Valence    Rydberg      Total
 -----------------------------------------------------------------------
      C    1   -0.27666      0.99963     2.26973    0.00730     3.27666
      C    2   -0.07770      0.99951     2.06704    0.01114     3.07770
      C    3    0.20993      0.99959     1.76988    0.02060     2.79007
      N    4   -0.25683      0.99966     2.74425    0.01292     3.75683
      C    5    0.41802      0.99965     1.55770    0.02464     2.58198
      O    6   -0.31165      0.99987     3.30577    0.00602     4.31165
      N    7   -0.12272      0.99954     2.60845    0.01473     3.62272
      C    8    0.08078      0.99954     1.90534    0.01435     2.91922
      C    9   -0.30064      0.99962     2.29437    0.00665     3.30064
      C   10   -0.29182      0.99962     2.28431    0.00790     3.29182
      O   11   -0.30417      0.99990     3.29714    0.00713     4.30417
      C   12   -0.27838      0.99964     2.27208    0.00666     3.27838
      H   13    0.10753      0.00000     0.39115    0.00132     0.39247
      H   14    0.09320      0.00000     0.40558    0.00122     0.40680
      H   15    0.09823      0.00000     0.40095    0.00082     0.40177
      H   16    0.06546      0.00000     0.43308    0.00146     0.43454
      H   17    0.10552      0.00000     0.39351    0.00097     0.39448
      H   18    0.09325      0.00000     0.40545    0.00130     0.40675
      H   19    0.10961      0.00000     0.38952    0.00087     0.39039
      H   20    0.10606      0.00000     0.39294    0.00100     0.39394
      H   21    0.09399      0.00000     0.40527    0.00074     0.40601
      H   22    0.10568      0.00000     0.39342    0.00090     0.39432
      H   23    0.24094      0.00000     0.25493    0.00413     0.25906
      H   24    0.09285      0.00000     0.40638    0.00077     0.40715
      H   25    0.09837      0.00000     0.40079    0.00083     0.40163
      H   26    0.10116      0.00000     0.39773    0.00112     0.39884
 =======================================================================
   * Total *    0.00000     11.99577    33.84675    0.15748    46.00000

 Normal termination of Gaussian 16 at Wed Dec  9 18:31:28 2020.
