 Gaussian 16, Revision A.03,

 -----------------------------------------------------------
 # opt freq B3LYP/6-31G(d) empiricaldispersion=gd3bj scf=xqc
 -----------------------------------------------------------

 -------------------------------
 CID_106813860_JID_8945_neutraal
 -------------------------------
 Symbolic Z-matrix:
 Charge =  0 Multiplicity = 1

 SCF Done:  E(RB3LYP) =  -809.173310436     A.U. after   14 cycles
 SCF Done:  E(RB3LYP) =  -809.178131731     A.U. after   12 cycles
 SCF Done:  E(RB3LYP) =  -809.178647379     A.U. after   12 cycles
 SCF Done:  E(RB3LYP) =  -809.178194554     A.U. after   12 cycles
 SCF Done:  E(RB3LYP) =  -809.178862779     A.U. after   12 cycles
 SCF Done:  E(RB3LYP) =  -809.178876770     A.U. after   10 cycles
 SCF Done:  E(RB3LYP) =  -809.178883528     A.U. after    9 cycles
 SCF Done:  E(RB3LYP) =  -809.178888314     A.U. after    9 cycles
 SCF Done:  E(RB3LYP) =  -809.178893320     A.U. after    9 cycles
 SCF Done:  E(RB3LYP) =  -809.178897005     A.U. after    9 cycles
 SCF Done:  E(RB3LYP) =  -809.178911970     A.U. after    9 cycles
 SCF Done:  E(RB3LYP) =  -809.178916942     A.U. after    9 cycles
 SCF Done:  E(RB3LYP) =  -809.178918631     A.U. after    9 cycles
 SCF Done:  E(RB3LYP) =  -809.178918857     A.U. after    7 cycles
 SCF Done:  E(RB3LYP) =  -809.178918913     A.U. after    7 cycles
 Optimization completed.
    -- Stationary point found.
 Normal termination of Gaussian 16 at Fri Dec 11 21:41:30 2020.

 --------------------------------------------------------------------
 #N Geom=AllCheck Guess=TCheck SCRF=Check GenChk RB3LYP/6-31G(d) Freq
 --------------------------------------------------------------------

 Structure from the checkpoint file:  "JID_8945.chk"
 -------------------------------
 CID_106813860_JID_8945_neutraal
 -------------------------------
 Charge =  0 Multiplicity = 1

 SCF Done:  E(RB3LYP) =  -809.178918913     A.U. after    1 cycles

  Exact polarizability: 190.503   1.157 149.225   3.381   2.875 144.718
 Approx polarizability: 220.558   7.975 222.506   6.101   4.151 225.284

                      1                      2                      3
                      A                      A                      A
 Frequencies --     18.3655                25.2590                30.3002
 Red. masses --      2.9881                 4.1617                 2.7680
 Frc consts  --      0.0006                 0.0016                 0.0015
 IR Inten    --      0.0105                 0.1223                 0.0916

                      4                      5                      6
                      A                      A                      A
 Frequencies --     40.3272                47.7832                64.3828
 Red. masses --      5.0000                 4.9086                 5.1177
 Frc consts  --      0.0048                 0.0066                 0.0125
 IR Inten    --      0.5377                 0.3784                 0.7834

                      7                      8                      9
                      A                      A                      A
 Frequencies --     92.4859               124.0408               139.0525
 Red. masses --      3.0700                 3.7846                 3.2643
 Frc consts  --      0.0155                 0.0343                 0.0372
 IR Inten    --      0.2402                 1.0602                 0.3646

                     10                     11                     12
                      A                      A                      A
 Frequencies --    195.9775               210.7181               229.6653
 Red. masses --      2.4771                 2.6247                 1.8081
 Frc consts  --      0.0561                 0.0687                 0.0562
 IR Inten    --      1.3122                 1.9113                 0.2276

                     13                     14                     15
                      A                      A                      A
 Frequencies --    247.2775               260.6125               281.8323
 Red. masses --      3.6083                 3.9825                 2.3635
 Frc consts  --      0.1300                 0.1594                 0.1106
 IR Inten    --      1.9101                10.7944                 0.2646

                     16                     17                     18
                      A                      A                      A
 Frequencies --    314.2891               347.9839               386.9284
 Red. masses --      2.8713                 2.5838                 2.5286
 Frc consts  --      0.1671                 0.1843                 0.2230
 IR Inten    --      1.3970                 3.7737                 6.0910

                     19                     20                     21
                      A                      A                      A
 Frequencies --    391.8606               430.5487               451.7163
 Red. masses --      2.3758                 1.7801                 1.8948
 Frc consts  --      0.2149                 0.1944                 0.2278
 IR Inten    --      2.9243                 1.2156                 2.5191

                     22                     23                     24
                      A                      A                      A
 Frequencies --    494.0833               505.7641               532.4046
 Red. masses --      3.0965                 1.8007                 2.8215
 Frc consts  --      0.4454                 0.2714                 0.4712
 IR Inten    --      9.9394                16.7382                 2.1088

                     25                     26                     27
                      A                      A                      A
 Frequencies --    547.0330               574.9157               636.0066
 Red. masses --      3.1508                 2.2019                 3.0732
 Frc consts  --      0.5555                 0.4288                 0.7324
 IR Inten    --     18.2478                 1.5905                 5.3624

                     28                     29                     30
                      A                      A                      A
 Frequencies --    655.1284               686.3662               690.9220
 Red. masses --      3.4235                 1.5354                 2.2235
 Frc consts  --      0.8657                 0.4262                 0.6254
 IR Inten    --      9.3394                88.3947                21.3662

                     31                     32                     33
                      A                      A                      A
 Frequencies --    769.0808               784.5306               797.9654
 Red. masses --      2.1199                 1.7488                 1.8076
 Frc consts  --      0.7388                 0.6342                 0.6781
 IR Inten    --      3.7566                10.5900                94.0499

                     34                     35                     36
                      A                      A                      A
 Frequencies --    832.1175               836.8022               872.0243
 Red. masses --      2.3204                 2.1977                 2.5647
 Frc consts  --      0.9467                 0.9067                 1.1491
 IR Inten    --      0.8419                 0.7074                19.5201

                     37                     38                     39
                      A                      A                      A
 Frequencies --    880.7662               882.0135               900.4491
 Red. masses --      2.0912                 1.8878                 1.5092
 Frc consts  --      0.9558                 0.8653                 0.7210
 IR Inten    --      1.4294                 0.4313                13.6887

                     40                     41                     42
                      A                      A                      A
 Frequencies --    904.4825               915.9802               919.4126
 Red. masses --      1.8915                 2.3198                 2.1980
 Frc consts  --      0.9117                 1.1468                 1.0947
 IR Inten    --      1.2451                 0.7753                 1.2942

                     43                     44                     45
                      A                      A                      A
 Frequencies --    963.6047               970.5851               982.8390
 Red. masses --      2.0236                 1.8822                 1.7052
 Frc consts  --      1.1071                 1.0447                 0.9705
 IR Inten    --     10.8997                 5.0496                 3.5267

                     46                     47                     48
                      A                      A                      A
 Frequencies --   1002.0902              1024.6259              1031.2400
 Red. masses --      1.8835                 1.7899                 1.6442
 Frc consts  --      1.1144                 1.1072                 1.0302
 IR Inten    --      2.9461                 1.1816                 0.9397

                     49                     50                     51
                      A                      A                      A
 Frequencies --   1037.9236              1044.3654              1070.9363
 Red. masses --      1.5747                 1.9534                 2.1224
 Frc consts  --      0.9995                 1.2553                 1.4342
 IR Inten    --      0.3337                 7.8559                 8.1890

                     52                     53                     54
                      A                      A                      A
 Frequencies --   1078.9554              1092.0382              1116.5111
 Red. masses --      2.1019                 1.8929                 2.6013
 Frc consts  --      1.4417                 1.3300                 1.9106
 IR Inten    --      2.3266                 1.5510                 7.6743

                     55                     56                     57
                      A                      A                      A
 Frequencies --   1126.8678              1148.1986              1158.4044
 Red. masses --      2.1321                 2.3327                 1.9903
 Frc consts  --      1.5952                 1.8120                 1.5736
 IR Inten    --     12.0643                21.7572                27.2255

                     58                     59                     60
                      A                      A                      A
 Frequencies --   1166.0155              1186.2319              1188.7784
 Red. masses --      3.4587                 1.6831                 1.3668
 Frc consts  --      2.7706                 1.3954                 1.1380
 IR Inten    --    325.8417                15.1309                 3.2569

                     61                     62                     63
                      A                      A                      A
 Frequencies --   1205.2515              1210.2694              1223.9724
 Red. masses --      1.4432                 2.2122                 1.4744
 Frc consts  --      1.2352                 1.9092                 1.3014
 IR Inten    --      0.6266                41.5251                10.9748

                     64                     65                     66
                      A                      A                      A
 Frequencies --   1247.0952              1255.0394              1270.2909
 Red. masses --      1.4785                 1.5371                 1.3065
 Frc consts  --      1.3548                 1.4265                 1.2421
 IR Inten    --      6.4012                10.1678                 1.8677

                     67                     68                     69
                      A                      A                      A
 Frequencies --   1281.3120              1285.7880              1316.6478
 Red. masses --      1.2364                 1.3086                 1.2919
 Frc consts  --      1.1960                 1.2747                 1.3195
 IR Inten    --      2.6778                 3.8804                 1.4259

                     70                     71                     72
                      A                      A                      A
 Frequencies --   1321.3196              1329.8731              1332.4309
 Red. masses --      1.2765                 1.3620                 1.3628
 Frc consts  --      1.3131                 1.4192                 1.4256
 IR Inten    --      3.6485                 3.3689                11.9914

                     73                     74                     75
                      A                      A                      A
 Frequencies --   1342.5060              1346.4947              1356.4666
 Red. masses --      1.3981                 1.2137                 1.4156
 Frc consts  --      1.4846                 1.2965                 1.5347
 IR Inten    --      0.5396                 0.7076                12.2508

                     76                     77                     78
                      A                      A                      A
 Frequencies --   1358.8146              1365.8307              1375.4842
 Red. masses --      1.4801                 1.3040                 1.3001
 Frc consts  --      1.6102                 1.4333                 1.4493
 IR Inten    --      2.7056                 1.1774                 0.6354

                     79                     80                     81
                      A                      A                      A
 Frequencies --   1379.1299              1383.3841              1400.4486
 Red. masses --      1.5248                 1.4115                 1.5075
 Frc consts  --      1.7087                 1.5915                 1.7419
 IR Inten    --      6.5090                 8.0170                 3.1484

                     82                     83                     84
                      A                      A                      A
 Frequencies --   1406.6082              1411.7260              1416.7188
 Red. masses --      1.5590                 1.3846                 1.5553
 Frc consts  --      1.8174                 1.6258                 1.8392
 IR Inten    --     14.7231                42.5011                21.5880

                     85                     86                     87
                      A                      A                      A
 Frequencies --   1423.1645              1438.0020              1446.4359
 Red. masses --      1.3911                 1.4768                 1.4095
 Frc consts  --      1.6600                 1.7992                 1.7374
 IR Inten    --      5.2505                 6.0937                 8.4608

                     88                     89                     90
                      A                      A                      A
 Frequencies --   1485.0249              1500.3269              1514.8784
 Red. masses --      1.0887                 1.0886                 1.1476
 Frc consts  --      1.4145                 1.4437                 1.5517
 IR Inten    --     11.1122                 1.5804                17.9323

                     91                     92                     93
                      A                      A                      A
 Frequencies --   1516.7346              1519.2833              1523.3275
 Red. masses --      1.0956                 1.0785                 1.1029
 Frc consts  --      1.4849                 1.4667                 1.5079
 IR Inten    --      2.8533                 2.0526                 5.3493

                     94                     95                     96
                      A                      A                      A
 Frequencies --   1524.2894              1525.7860              1537.2512
 Red. masses --      1.0923                 1.0889                 1.1171
 Frc consts  --      1.4953                 1.4936                 1.5553
 IR Inten    --      1.1223                 1.4838                20.8854

                     97                     98                     99
                      A                      A                      A
 Frequencies --   1546.5912              1552.0554              1555.8185
 Red. masses --      1.1068                 1.1251                 1.0800
 Frc consts  --      1.5597                 1.5968                 1.5402
 IR Inten    --      2.2836                 5.7871                 7.2189

                    100                    101                    102
                      A                      A                      A
 Frequencies --   1838.4825              2915.6331              2932.9612
 Red. masses --      9.6658                 1.0731                 1.0714
 Frc consts  --     19.2489                 5.3749                 5.4304
 IR Inten    --    254.7628                51.5399               100.5827

                    103                    104                    105
                      A                      A                      A
 Frequencies --   3012.5924              3020.8837              3026.9523
 Red. masses --      1.0600                 1.0569                 1.0685
 Frc consts  --      5.6682                 5.6824                 5.7683
 IR Inten    --     33.5147                31.5564                13.8470

                    106                    107                    108
                      A                      A                      A
 Frequencies --   3027.6008              3034.1991              3041.9149
 Red. masses --      1.0763                 1.0790                 1.0682
 Frc consts  --      5.8127                 5.8526                 5.8236
 IR Inten    --     16.8965                 6.1814                42.4041

                    109                    110                    111
                      A                      A                      A
 Frequencies --   3042.2943              3043.9444              3046.0764
 Red. masses --      1.0701                 1.0871                 1.0634
 Frc consts  --      5.8353                 5.9345                 5.8134
 IR Inten    --     39.5919                15.1214                12.7992

                    112                    113                    114
                      A                      A                      A
 Frequencies --   3053.2632              3055.9420              3057.2906
 Red. masses --      1.0674                 1.0936                 1.0662
 Frc consts  --      5.8629                 6.0174                 5.8719
 IR Inten    --     26.5165                35.5376                44.3068

                    115                    116                    117
                      A                      A                      A
 Frequencies --   3058.9445              3064.0888              3073.2365
 Red. masses --      1.0972                 1.0928                 1.0933
 Frc consts  --      6.0492                 6.0452                 6.0839
 IR Inten    --     10.0784               116.2838                69.0205

                    118                    119                    120
                      A                      A                      A
 Frequencies --   3077.4567              3085.9083              3096.3057
 Red. masses --      1.0876                 1.0987                 1.0972
 Frc consts  --      6.0687                 6.1646                 6.1977
 IR Inten    --     33.0613                25.6798                34.9030

                    121                    122                    123
                      A                      A                      A
 Frequencies --   3103.3737              3103.5672              3104.9801
 Red. masses --      1.0955                 1.1003                 1.0989
 Frc consts  --      6.2165                 6.2444                 6.2422
 IR Inten    --      9.1176                21.6531                52.3707

                    124                    125                    126
                      A                      A                      A
 Frequencies --   3110.6336              3505.7532              3674.1662
 Red. masses --      1.1025                 1.0723                 1.0640
 Frc consts  --      6.2854                 7.7646                 8.4628
 IR Inten    --     82.9730                 1.2082                36.9145

 - Thermochemistry -
 -------------------
 Temperature   298.150 Kelvin.  Pressure   1.00000 Atm.
 Atom     1 has atomic number  6 and mass  12.00000

 Molecular mass:   254.19943 amu.
 Principal axes and moments of inertia in atomic units:
                           1         2         3
     Eigenvalues --  2007.32531********************
           X            0.99997  -0.00741   0.00378
           Y            0.00726   0.99923   0.03848
           Z           -0.00406  -0.03845   0.99925
 This molecule is an asymmetric top.
 Rotational symmetry number  1.
 Warning -- assumption of classical behavior for rotation
           may cause significant error
 Rotational temperatures (Kelvin)      0.04315     0.00756     0.00723
 Rotational constants (GHZ):           0.89908     0.15742     0.15061
 Zero-point vibrational energy    1052595.3 (Joules/Mol)
                                  251.57630 (Kcal/Mol)
 Warning -- explicit consideration of  26 degrees of freedom as
           vibrations may cause significant error
 Vibrational temperatures:     26.42    36.34    43.60    58.02    68.75
          (Kelvin)             92.63   133.07   178.47   200.07   281.97
                              303.18   330.44   355.78   374.96   405.49
                              452.19   500.67   556.70   563.80   619.46
                              649.92   710.88   727.68   766.01   787.06
                              827.18   915.07   942.58   987.53   994.08
                             1106.54  1128.76  1148.09  1197.23  1203.97
                             1254.65  1267.23  1269.02  1295.55  1301.35
                             1317.89  1322.83  1386.41  1396.46  1414.09
                             1441.78  1474.21  1483.72  1493.34  1502.61
                             1540.84  1552.38  1571.20  1606.41  1621.31
                             1652.00  1666.69  1677.64  1706.72  1710.39
                             1734.09  1741.31  1761.02  1794.29  1805.72
                             1827.67  1843.52  1849.96  1894.36  1901.08
                             1913.39  1917.07  1931.57  1937.31  1951.65
                             1955.03  1965.13  1979.02  1984.26  1990.38
                             2014.93  2023.80  2031.16  2038.34  2047.62
                             2068.96  2081.10  2136.62  2158.64  2179.57
                             2182.24  2185.91  2191.73  2193.11  2195.27
                             2211.76  2225.20  2233.06  2238.48  2645.17
                             4194.95  4219.88  4334.45  4346.38  4355.11
                             4356.04  4365.54  4376.64  4377.18  4379.56
                             4382.62  4392.96  4396.82  4398.76  4401.14
                             4408.54  4421.70  4427.77  4439.93  4454.89
                             4465.06  4465.34  4467.37  4475.51  5044.00
                             5286.31

 Zero-point correction=                           0.400912 (Hartree/Particle)
 Thermal correction to Energy=                    0.419124
 Thermal correction to Enthalpy=                  0.420068
 Thermal correction to Gibbs Free Energy=         0.351267
 Sum of electronic and zero-point Energies=           -808.778007
 Sum of electronic and thermal Energies=              -808.759795
 Sum of electronic and thermal Enthalpies=            -808.758851
 Sum of electronic and thermal Free Energies=         -808.827652

                     E (Thermal)             CV                S
                      KCal/Mol        Cal/Mol-Kelvin    Cal/Mol-Kelvin
 Total                  263.004             69.519            144.803
 Electronic               0.000              0.000              0.000
 Translational            0.889              2.981             42.499
 Rotational               0.889              2.981             33.977
 Vibrational            261.227             63.558             68.327
 Vibration     1          0.593              1.986              6.804
 Vibration     2          0.593              1.985              6.171
 Vibration     3          0.594              1.984              5.810
 Vibration     4          0.594              1.981              5.243
 Vibration     5          0.595              1.978              4.907
 Vibration     6          0.597              1.971              4.318
 Vibration     7          0.602              1.955              3.607
 Vibration     8          0.610              1.929              3.036
 Vibration     9          0.615              1.914              2.817
 Vibration    10          0.636              1.845              2.171
 Vibration    11          0.643              1.824              2.037
 Vibration    12          0.652              1.796              1.882
 Vibration    13          0.661              1.767              1.750
 Vibration    14          0.669              1.745              1.658
 Vibration    15          0.681              1.707              1.523
 Vibration    16          0.702              1.646              1.340
 Vibration    17          0.726              1.579              1.175
 Vibration    18          0.755              1.498              1.012
 Vibration    19          0.759              1.488              0.993
 Vibration    20          0.792              1.404              0.857
 Vibration    21          0.810              1.357              0.791
 Vibration    22          0.850              1.263              0.673
 Vibration    23          0.861              1.237              0.644
 Vibration    24          0.887              1.178              0.582
 Vibration    25          0.902              1.146              0.550
 Vibration    26          0.931              1.086              0.495

                           ! Non-Optimized Parameters !
 Normal termination of Gaussian 16 at Fri Dec 11 22:01:09 2020.

 ----------------------------------------------------------------------
 # B3LYP/6-311++G(d,p) empiricaldispersion=gd3bj scf=xqc pop=npa geom=c
 heck
 ----------------------------------------------------------------------

 ---------------------------------------
 CID_106813860_JID_8945_Energie_neutraal
 ---------------------------------------
 Structure from the checkpoint file:  "JID_8945.chk"
 Charge =  0 Multiplicity = 1

 SCF Done:  E(RB3LYP) =  -809.415009304     A.U. after   14 cycles
 Normal termination of Gaussian 16 at Fri Dec 11 22:11:20 2020.

 ----------------------------------------------------------------------
 # B3LYP/6-311++G(d,p) empiricaldispersion=gd3bj scf=xqc pop=npa geom=c
 heck
 ----------------------------------------------------------------------

 -------------------------------------
 CID_106813860_JID_8945_Energie_kation
 -------------------------------------
 Structure from the checkpoint file:  "JID_8945.chk"
 Charge =  1 Multiplicity = 2

 SCF Done:  E(UB3LYP) =  -809.147425405     A.U. after   21 cycles
 Normal termination of Gaussian 16 at Fri Dec 11 22:33:03 2020.
 Gaussian 16:  ES64L-G16RevA.03 25-Dec-2016

 ----------------------------------------------------------------------
 # B3LYP/6-311++G(d,p) empiricaldispersion=gd3bj scf=xqc pop=npa geom=c
 heck
 ----------------------------------------------------------------------

 ------------------------------------
 CID_106813860_JID_8945_Energie_anion
 ------------------------------------
 Structure from the checkpoint file:  "JID_8945.chk"
 Charge = -1 Multiplicity = 2

                         Standard orientation:
 ---------------------------------------------------------------------
 Center     Atomic      Atomic             Coordinates (Angstroms)
 Number     Number       Type             X           Y           Z
 ---------------------------------------------------------------------
      1          6           0        5.399584    0.332093    0.258462
      2          6           0        5.546696   -1.183853    0.041450
      3          6           0        4.209251   -1.627130   -0.607148
      4          6           0        3.206455   -0.449083   -0.409671
      5          6           0        3.909736    0.495778    0.586605
      6          6           0        1.814895   -0.964483    0.004260
      7          7           0        0.708911   -0.021160    0.088823
      8          6           0        0.702961    0.871796    1.242256
      9          6           0       -0.671456    1.529549    1.400860
     10          6           0       -1.059108    2.250832    0.104519
     11          6           0       -0.994595    1.302316   -1.107890
     12          6           0        0.408794    0.674539   -1.156420
     13          6           0       -2.057132    0.195814   -1.084078
     14          7           0       -3.419669    0.738716   -1.021154
     15          6           0       -4.420460   -0.298294   -0.894223
     16          6           0       -4.430721   -0.992078    0.465594
     17          8           0       -3.889599   -0.573362    1.466319
     18          8           0       -5.165666   -2.128759    0.450731
     19          1           0        5.632901    0.870983   -0.669792
     20          1           0        6.063208    0.721848    1.038117
     21          1           0        6.419032   -1.444205   -0.566803
     22          1           0        5.674731   -1.679236    1.011665
     23          1           0        3.831160   -2.542444   -0.135162
     24          1           0        4.332277   -1.855474   -1.671159
     25          1           0        3.107175    0.082751   -1.365136
     26          1           0        3.717040    0.164513    1.617062
     27          1           0        3.564785    1.531358    0.508386
     28          1           0        1.518497   -1.741536   -0.715121
     29          1           0        1.902882   -1.461972    0.980428
     30          1           0        1.464740    1.671126    1.157936
     31          1           0        0.952365    0.283681    2.132846
     32          1           0       -0.640178    2.241209    2.235202
     33          1           0       -1.419420    0.768537    1.649790
     34          1           0       -2.046877    2.718755    0.192800
     35          1           0       -0.352435    3.074662   -0.071098
     36          1           0       -1.142744    1.892814   -2.021323
     37          1           0        0.469332   -0.051730   -1.976898
     38          1           0        1.146247    1.472124   -1.377328
     39          1           0       -1.979105   -0.379206   -2.017233
     40          1           0       -1.834220   -0.498267   -0.261424
     41          1           0       -3.491412    1.332388   -0.197108
     42          1           0       -5.424729    0.123562   -1.041415
     43          1           0       -4.286672   -1.052210   -1.677518
     44          1           0       -5.150557   -2.476730    1.362741
 ---------------------------------------------------------------------

 SCF Done:  E(UB3LYP) =  -809.403222822     A.U. after   33 cycles
 SCF Done:  E(UB3LYP) =  -809.403222822     a.u. after    1 cycles

 The electronic state is 2-A.
 Alpha  occ. eigenvalues --  -19.08126 -19.03025 -14.21342 -14.20917 -10.21766
 Alpha  occ. eigenvalues --  -10.12286 -10.10163 -10.10079 -10.09929 -10.09538
 Alpha  occ. eigenvalues --  -10.08323 -10.07867 -10.07791 -10.07669 -10.07574
 Alpha  occ. eigenvalues --  -10.07511 -10.07288 -10.07170  -1.02238  -0.93472
 Alpha  occ. eigenvalues --   -0.83936  -0.82497  -0.74934  -0.71540  -0.67562
 Alpha  occ. eigenvalues --   -0.64687  -0.63803  -0.62047  -0.58194  -0.57497
 Alpha  occ. eigenvalues --   -0.53086  -0.51636  -0.50475  -0.48341  -0.46898
 Alpha  occ. eigenvalues --   -0.45081  -0.42374  -0.41523  -0.40516  -0.39759
 Alpha  occ. eigenvalues --   -0.39469  -0.38009  -0.37321  -0.37193  -0.35864
 Alpha  occ. eigenvalues --   -0.35105  -0.33949  -0.32934  -0.32857  -0.32005
 Alpha  occ. eigenvalues --   -0.31673  -0.31095  -0.30319  -0.28846  -0.27837
 Alpha  occ. eigenvalues --   -0.27146  -0.25964  -0.25635  -0.25093  -0.24656
 Alpha  occ. eigenvalues --   -0.24055  -0.23954  -0.23833  -0.23334  -0.22558
 Alpha  occ. eigenvalues --   -0.22348  -0.21994  -0.20257  -0.15085  -0.11690
 Alpha  occ. eigenvalues --    0.03882
 Alpha virt. eigenvalues --    0.05040   0.06349   0.06571   0.07091   0.07192
 Alpha virt. eigenvalues --    0.07808   0.08312   0.08591   0.09172   0.09444
 Alpha virt. eigenvalues --    0.09663   0.09905   0.10610   0.11120   0.11348

  Beta  occ. eigenvalues --  -19.08068 -19.03012 -14.21335 -14.20916 -10.21760
  Beta  occ. eigenvalues --  -10.12259 -10.10151 -10.10071 -10.09922 -10.09531
  Beta  occ. eigenvalues --  -10.08320 -10.07861 -10.07784 -10.07653 -10.07562
  Beta  occ. eigenvalues --  -10.07492 -10.07276 -10.07165  -1.02166  -0.93413
  Beta  occ. eigenvalues --   -0.83926  -0.82483  -0.74913  -0.71524  -0.67546
  Beta  occ. eigenvalues --   -0.64657  -0.63749  -0.62013  -0.58168  -0.57457
  Beta  occ. eigenvalues --   -0.53065  -0.51574  -0.50420  -0.48284  -0.46868
  Beta  occ. eigenvalues --   -0.45052  -0.42338  -0.41501  -0.40486  -0.39726
  Beta  occ. eigenvalues --   -0.39428  -0.37988  -0.37301  -0.37168  -0.35831
  Beta  occ. eigenvalues --   -0.35079  -0.33931  -0.32906  -0.32830  -0.31970
  Beta  occ. eigenvalues --   -0.31654  -0.31068  -0.30295  -0.28819  -0.27818
  Beta  occ. eigenvalues --   -0.27129  -0.25944  -0.25613  -0.25063  -0.24626
  Beta  occ. eigenvalues --   -0.24031  -0.23915  -0.23803  -0.23317  -0.22537
  Beta  occ. eigenvalues --   -0.22334  -0.21975  -0.20219  -0.15064  -0.11675
  Beta virt. eigenvalues --    0.05613   0.06282   0.06784   0.06888   0.07334
  Beta virt. eigenvalues --    0.07734   0.08107   0.08433   0.08819   0.09467
  Beta virt. eigenvalues --    0.09549   0.09738   0.10089   0.10669   0.11254

 Mulliken charges and spin densities:
               1          2
     1  C   -0.197459  -0.383563
     2  C    0.212565  -0.616360
     3  C   -0.099832  -0.530215
     4  C   -0.401249   1.347726
     5  C    0.350986  -0.502482
     6  C    0.287324  -1.073347
     7  N    0.217391   0.077155
     8  C    0.217729  -0.361949
     9  C   -1.030752   0.365949
    10  C   -0.254439  -0.306153
    11  C   -0.288326   0.592342
    12  C   -0.006120  -0.542317
    13  C   -0.310750  -0.410804
    14  N   -0.016230   0.082037
    15  C    0.787671  -1.242798
    16  C   -0.042897   0.104713
    17  O   -0.264622  -0.014050
    18  O   -0.149324   0.041613
    19  H   -0.071861   0.212949
    20  H   -0.207015   0.371596
    21  H   -0.081260   0.231474
    22  H    0.023807   0.101254
    23  H    0.048138   0.097819
    24  H   -0.096555   0.241806
    25  H    0.053873   0.116116
    26  H    0.061418   0.097457
    27  H   -0.045780   0.184843
    28  H    0.109842   0.072271
    29  H    0.061482   0.119327
    30  H    0.109400  -0.016618
    31  H    0.046200   0.105494
    32  H    0.029288   0.133244
    33  H    0.205141   0.005201
    34  H    0.051071   0.093077
    35  H   -0.046341   0.177725
    36  H    0.052773   0.160486
    37  H   -0.030914   0.185151
    38  H   -0.023179   0.154210
    39  H    0.117301   0.037579
    40  H    0.202781  -0.019390
    41  H    0.233609  -0.015417
    42  H   -0.313370   0.526730
    43  H    0.035504   0.163414
    44  H   -0.537019   0.834701
 Sum of Mulliken charges =  -1.00000   1.00000

 Dipole moment (field-independent basis, Debye):
    X=              2.4145    Y=              2.6000    Z=             -0.8443  Tot=              3.6473
 Quadrupole moment (field-independent basis, Debye-Ang):
   XX=           -249.4717   YY=           -156.0719   ZZ=           -148.8420
   XY=            -18.1850   XZ=             10.2909   YZ=              5.4167

 Summary of Natural Population Analysis:

                                       Natural Population
                Natural  -----------------------------------------------
    Atom  No    Charge         Core      Valence    Rydberg      Total
 -----------------------------------------------------------------------
      C    1   -0.18991      0.99964     2.18249    0.00778     3.18991
      C    2   -0.19088      0.99964     2.18430    0.00694     3.19088
      C    3   -0.18902      0.99963     2.18230    0.00709     3.18902
      C    4   -0.12255      0.99959     2.11266    0.01029     3.12255
      C    5   -0.19324      0.99962     2.18408    0.00954     3.19324
      C    6   -0.07159      0.99959     2.06114    0.01086     3.07159
      N    7   -0.28594      0.99971     2.77428    0.01196     3.78594
      C    8   -0.07986      0.99961     2.07135    0.00890     3.07986
      C    9   -0.19920      0.99962     2.19158    0.00800     3.19920
      C   10   -0.19046      0.99961     2.18237    0.00848     3.19046
      C   11   -0.11582      0.99959     2.10491    0.01132     3.11582
      C   12   -0.08196      0.99960     2.07023    0.01213     3.08196
      C   13   -0.09028      0.99959     2.07984    0.01084     3.09028
      N   14   -0.33651      0.99975     2.82547    0.01128     3.83651
      C   15   -0.13691      0.99959     2.12531    0.01201     3.13691
      C   16    0.39914      0.99973     1.57604    0.02509     2.60086
      O   17   -0.31092      0.99987     3.30423    0.00683     4.31092
      O   18   -0.34394      0.99988     3.33698    0.00709     4.34394
      H   19    0.09409      0.00000     0.40456    0.00135     0.40591
      H   20    0.09834      0.00000     0.40063    0.00104     0.40166
      H   21    0.09872      0.00000     0.40003    0.00126     0.40128
      H   22    0.09273      0.00000     0.40580    0.00147     0.40727
      H   23    0.09548      0.00000     0.40335    0.00116     0.40452
      H   24    0.09895      0.00000     0.39983    0.00122     0.40105
      H   25    0.09597      0.00000     0.40218    0.00185     0.40403
      H   26    0.09280      0.00000     0.40600    0.00120     0.40720
      H   27    0.10242      0.00000     0.39632    0.00127     0.39758
      H   28    0.09381      0.00000     0.40509    0.00110     0.40619
      H   29    0.09279      0.00000     0.40603    0.00118     0.40721
      H   30    0.07705      0.00000     0.42031    0.00263     0.42295
      H   31    0.09639      0.00000     0.40253    0.00108     0.40361
      H   32    0.09665      0.00000     0.40244    0.00091     0.40335
      H   33    0.10708      0.00000     0.39126    0.00165     0.39292
      H   34    0.09732      0.00000     0.40170    0.00098     0.40268
      H   35    0.09715      0.00000     0.40163    0.00122     0.40285
      H   36    0.09955      0.00000     0.39892    0.00152     0.40045
      H   37    0.09729      0.00000     0.40157    0.00115     0.40271
      H   38    0.08376      0.00000     0.41467    0.00158     0.41624
      H   39    0.08986      0.00000     0.40884    0.00129     0.41014
      H   40    0.09306      0.00000     0.40473    0.00221     0.40694
      H   41    0.17566      0.00000     0.32065    0.00369     0.32434
      H   42    0.11061      0.00000     0.38823    0.00116     0.38939
      H   43    0.10686      0.00000     0.39204    0.00110     0.39314
      H   44    0.24544      0.00000     0.23197    0.02259     0.25456
 =======================================================================
   * Total *    0.00000     17.99386    51.76087    0.24527    70.00000

 Normal termination of Gaussian 16 at Fri Dec 11 23:07:32 2020.
