 Gaussian 16, Revision A.03,

 -----------------------------------------------------------
 # opt freq B3LYP/6-31G(d) empiricaldispersion=gd3bj scf=xqc
 -----------------------------------------------------------

 -------------------------------
 CID_104829962_JID_3446_neutraal
 -------------------------------
 Symbolic Z-matrix:
 Charge =  0 Multiplicity = 1

 SCF Done:  E(RB3LYP) =  -633.700578294     A.U. after   14 cycles
 SCF Done:  E(RB3LYP) =  -633.704044572     A.U. after   13 cycles
 SCF Done:  E(RB3LYP) =  -633.704808326     A.U. after   13 cycles
 SCF Done:  E(RB3LYP) =  -633.705309734     A.U. after   12 cycles
 SCF Done:  E(RB3LYP) =  -633.705403776     A.U. after   11 cycles
 SCF Done:  E(RB3LYP) =  -633.705474006     A.U. after   10 cycles
 SCF Done:  E(RB3LYP) =  -633.705489622     A.U. after   11 cycles
 SCF Done:  E(RB3LYP) =  -633.705502200     A.U. after   10 cycles
 SCF Done:  E(RB3LYP) =  -633.705519854     A.U. after   11 cycles
 SCF Done:  E(RB3LYP) =  -633.705550589     A.U. after   11 cycles
 SCF Done:  E(RB3LYP) =  -633.706280408     A.U. after   11 cycles
 SCF Done:  E(RB3LYP) =  -633.706297543     A.U. after   11 cycles
 SCF Done:  E(RB3LYP) =  -633.706302438     A.U. after   10 cycles
 SCF Done:  E(RB3LYP) =  -633.706303255     A.U. after    9 cycles
 SCF Done:  E(RB3LYP) =  -633.706303587     A.U. after   10 cycles
 Optimization completed.
    -- Stationary point found.
 Normal termination of Gaussian 16 at Sun Dec 13 16:15:40 2020.

 --------------------------------------------------------------------
 #N Geom=AllCheck Guess=TCheck SCRF=Check GenChk RB3LYP/6-31G(d) Freq
 --------------------------------------------------------------------

 Structure from the checkpoint file:  "JID_3446.chk"
 -------------------------------
 CID_104829962_JID_3446_neutraal
 -------------------------------
 Charge =  0 Multiplicity = 1

 SCF Done:  E(RB3LYP) =  -633.706303587     A.U. after    1 cycles

  Exact polarizability: 127.313   6.577 106.353  -0.655  -0.845  91.603
 Approx polarizability: 165.593  18.947 166.746  -1.691   3.305 132.425

 ******    1 imaginary frequencies (negative Signs) ******

                      1                      2                      3
                      A                      A                      A
 Frequencies --     -4.5210                43.1519                52.7386
 Red. masses --      9.1391                 4.0336                 4.4463
 Frc consts  --      0.0001                 0.0044                 0.0073
 IR Inten    --      2.1302                 0.0623                 0.1791

                      4                      5                      6
                      A                      A                      A
 Frequencies --     58.2658                81.7417               143.1178
 Red. masses --      3.3505                 5.1964                 5.8713
 Frc consts  --      0.0067                 0.0205                 0.0709
 IR Inten    --      0.2478                 3.8361                 0.0768

                      7                      8                      9
                      A                      A                      A
 Frequencies --    189.8949               217.3999               236.3848
 Red. masses --      2.5179                 1.0378                 1.9733
 Frc consts  --      0.0535                 0.0289                 0.0650
 IR Inten    --      2.7357                 0.0738                 0.0280

                     10                     11                     12
                      A                      A                      A
 Frequencies --    258.2507               276.9637               285.6705
 Red. masses --      1.3358                 1.2899                 1.6264
 Frc consts  --      0.0525                 0.0583                 0.0782
 IR Inten    --      0.0873                 0.0241                 0.2433

                     13                     14                     15
                      A                      A                      A
 Frequencies --    298.5207               324.0852               369.3837
 Red. masses --      1.6862                 2.4629                 2.7298
 Frc consts  --      0.0885                 0.1524                 0.2194
 IR Inten    --      0.3237                 1.2545                 0.3549

                     16                     17                     18
                      A                      A                      A
 Frequencies --    375.5716               409.0462               423.5028
 Red. masses --      2.1773                 2.6329                 3.2163
 Frc consts  --      0.1809                 0.2596                 0.3399
 IR Inten    --      0.1194                 1.1064                 1.8102

                     19                     20                     21
                      A                      A                      A
 Frequencies --    475.6552               485.6785               527.2602
 Red. masses --      2.2818                 2.4345                 2.9870
 Frc consts  --      0.3042                 0.3383                 0.4893
 IR Inten    --      3.8880                 1.3871                 3.6270

                     22                     23                     24
                      A                      A                      A
 Frequencies --    547.5899               562.6189               607.5322
 Red. masses --      2.6823                 2.5276                 2.7627
 Frc consts  --      0.4739                 0.4714                 0.6008
 IR Inten    --      0.5073                 9.8241               116.6630

                     25                     26                     27
                      A                      A                      A
 Frequencies --    651.4404               700.4545               740.5410
 Red. masses --      1.4591                 2.1104                 2.8696
 Frc consts  --      0.3648                 0.6101                 0.9272
 IR Inten    --    136.5058                44.8092                 3.4823

                     28                     29                     30
                      A                      A                      A
 Frequencies --    753.6334               870.3479               881.7709
 Red. masses --      3.3710                 2.4751                 2.6009
 Frc consts  --      1.1281                 1.1046                 1.1915
 IR Inten    --     20.2994                 7.6922                 2.8658

                     31                     32                     33
                      A                      A                      A
 Frequencies --    924.2510               946.4029               951.4762
 Red. masses --      5.2720                 1.7465                 1.7059
 Frc consts  --      2.6534                 0.9217                 0.9099
 IR Inten    --      1.9875                 1.2274                 1.7522

                     34                     35                     36
                      A                      A                      A
 Frequencies --    968.7618               974.4715               985.3566
 Red. masses --      1.5445                 1.3956                 1.8413
 Frc consts  --      0.8540                 0.7808                 1.0533
 IR Inten    --     14.5640                16.6757                15.5491

                     37                     38                     39
                      A                      A                      A
 Frequencies --   1023.4174              1043.7965              1095.0133
 Red. masses --      1.3493                 1.5825                 1.6709
 Frc consts  --      0.8326                 1.0158                 1.1804
 IR Inten    --     10.6365                 4.0689                23.2418

                     40                     41                     42
                      A                      A                      A
 Frequencies --   1115.3387              1144.2610              1183.1560
 Red. masses --      1.8819                 1.5552                 2.6642
 Frc consts  --      1.3793                 1.1997                 2.1973
 IR Inten    --     23.2500                89.0346                35.5125

                     43                     44                     45
                      A                      A                      A
 Frequencies --   1238.0457              1248.0443              1265.6109
 Red. masses --      1.7012                 2.1352                 2.7501
 Frc consts  --      1.5363                 1.9595                 2.5953
 IR Inten    --    212.2912                16.9627                 0.8223

                     46                     47                     48
                      A                      A                      A
 Frequencies --   1290.4205              1298.5224              1362.8017
 Red. masses --      2.7399                 1.3696                 1.4801
 Frc consts  --      2.6881                 1.3606                 1.6196
 IR Inten    --      4.1633                15.8779                14.6302

                     49                     50                     51
                      A                      A                      A
 Frequencies --   1375.2409              1380.6405              1417.9568
 Red. masses --      2.7084                 1.2828                 2.4719
 Frc consts  --      3.0180                 1.4406                 2.9282
 IR Inten    --    240.6384                 1.7423                23.9269

                     52                     53                     54
                      A                      A                      A
 Frequencies --   1426.1375              1429.5247              1438.8889
 Red. masses --      1.2510                 1.2767                 1.2414
 Frc consts  --      1.4991                 1.5371                 1.5143
 IR Inten    --      4.8330                 6.4686                14.7723

                     55                     56                     57
                      A                      A                      A
 Frequencies --   1460.3814              1499.0388              1510.8693
 Red. masses --      1.2218                 1.3109                 1.1324
 Frc consts  --      1.5352                 1.7356                 1.5231
 IR Inten    --      4.9072                23.7489                17.7409

                     58                     59                     60
                      A                      A                      A
 Frequencies --   1512.5867              1518.5148              1522.5850
 Red. masses --      1.0602                 1.0762                 1.0474
 Frc consts  --      1.4292                 1.4621                 1.4306
 IR Inten    --      1.4930                 4.0332                 2.2413

                     61                     62                     63
                      A                      A                      A
 Frequencies --   1530.0549              1532.3519              1541.7314
 Red. masses --      1.1308                 1.0609                 1.0571
 Frc consts  --      1.5597                 1.4677                 1.4804
 IR Inten    --      7.8180                 8.0009                 5.2467

                     64                     65                     66
                      A                      A                      A
 Frequencies --   1544.6167              1553.5785              1793.1126
 Red. masses --      1.0534                 1.0589                 8.2838
 Frc consts  --      1.4808                 1.5058                15.6925
 IR Inten    --      4.9496                13.8318               555.5406

                     67                     68                     69
                      A                      A                      A
 Frequencies --   1829.4721              3041.2786              3045.2377
 Red. masses --      9.2683                 1.0373                 1.0357
 Frc consts  --     18.2769                 5.6528                 5.6587
 IR Inten    --    184.5971                22.5792                33.8898

                     70                     71                     72
                      A                      A                      A
 Frequencies --   3050.9740              3061.5009              3103.8104
 Red. masses --      1.0373                 1.0403                 1.1005
 Frc consts  --      5.6888                 5.7447                 6.2464
 IR Inten    --      6.0959                16.9791                 7.7050

                     73                     74                     75
                      A                      A                      A
 Frequencies --   3109.0521              3113.0432              3116.5038
 Red. masses --      1.1016                 1.1007                 1.0972
 Frc consts  --      6.2737                 6.2847                 6.2789
 IR Inten    --     25.3440                50.8459                18.8021

                     76                     77                     78
                      A                      A                      A
 Frequencies --   3118.4883              3123.7336              3127.8654
 Red. masses --      1.0672                 1.0987                 1.0971
 Frc consts  --      6.1150                 6.3163                 6.3242
 IR Inten    --      5.1352                38.8593                22.9291

                     79                     80                     81
                      A                      A                      A
 Frequencies --   3129.0708              3142.8018              3152.8324
 Red. masses --      1.0941                 1.0900                 1.1024
 Frc consts  --      6.3117                 6.3432                 6.4562
 IR Inten    --     24.5418                18.6525                23.3589

                     82                     83                     84
                      A                      A                      A
 Frequencies --   3186.3770              3581.6221              3679.7533
 Red. masses --      1.1056                 1.0747                 1.0638
 Frc consts  --      6.6139                 8.1228                 8.4872
 IR Inten    --      2.1688                14.2992                53.5968

 - Thermochemistry -
 -------------------
 Temperature   298.150 Kelvin.  Pressure   1.00000 Atm.
 Atom     1 has atomic number  6 and mass  12.00000

 Molecular mass:   187.12084 amu.
 Principal axes and moments of inertia in atomic units:
                           1         2         3
     Eigenvalues --  1449.748983732.599584187.95180
           X            1.00000   0.00266   0.00014
           Y           -0.00265   0.99854  -0.05403
           Z           -0.00028   0.05403   0.99854
 This molecule is an asymmetric top.
 Rotational symmetry number  1.
 Warning -- assumption of classical behavior for rotation
           may cause significant error
 Rotational temperatures (Kelvin)      0.05974     0.02320     0.02068
 Rotational constants (GHZ):           1.24486     0.48351     0.43094
    1 imaginary frequencies ignored.
 Zero-point vibrational energy     685511.6 (Joules/Mol)
                                  163.84121 (Kcal/Mol)
 Warning -- explicit consideration of  23 degrees of freedom as
           vibrations may cause significant error
 Vibrational temperatures:     62.09    75.88    83.83   117.61   205.91
          (Kelvin)            273.22   312.79   340.11   371.57   398.49
                              411.02   429.50   466.29   531.46   540.36
                              588.53   609.33   684.36   698.78   758.61
                              787.86   809.48   874.10   937.28  1007.80
                             1065.47  1084.31  1252.24  1268.67  1329.79
                             1361.66  1368.96  1393.83  1402.05  1417.71
                             1472.47  1501.79  1575.48  1604.72  1646.34
                             1702.30  1781.27  1795.66  1820.93  1856.63
                             1868.28  1960.77  1978.66  1986.43  2040.12
                             2051.89  2056.77  2070.24  2101.16  2156.78
                             2173.80  2176.27  2184.80  2190.66  2201.41
                             2204.71  2218.21  2222.36  2235.25  2579.89
                             2632.20  4375.72  4381.42  4389.67  4404.82
                             4465.69  4473.23  4478.97  4483.95  4486.81
                             4494.36  4500.30  4502.03  4521.79  4536.22
                             4584.49  5153.16  5294.34

 Zero-point correction=                           0.261098 (Hartree/Particle)
 Thermal correction to Energy=                    0.275253
 Thermal correction to Enthalpy=                  0.276197
 Thermal correction to Gibbs Free Energy=         0.220171
 Sum of electronic and zero-point Energies=           -633.445206
 Sum of electronic and thermal Energies=              -633.431051
 Sum of electronic and thermal Enthalpies=            -633.430106
 Sum of electronic and thermal Free Energies=         -633.486132

                     E (Thermal)             CV                S
                      KCal/Mol        Cal/Mol-Kelvin    Cal/Mol-Kelvin
 Total                  172.724             53.592            117.916
 Electronic               0.000              0.000              0.000
 Translational            0.889              2.981             41.586
 Rotational               0.889              2.981             31.494
 Vibrational            170.946             47.630             44.836
 Vibration     1          0.595              1.980              5.109
 Vibration     2          0.596              1.977              4.712
 Vibration     3          0.596              1.974              4.515
 Vibration     4          0.600              1.962              3.849
 Vibration     5          0.616              1.910              2.762
 Vibration     6          0.633              1.854              2.229
 Vibration     7          0.646              1.815              1.981
 Vibration     8          0.655              1.785              1.830
 Vibration     9          0.667              1.749              1.674
 Vibration    10          0.678              1.716              1.552
 Vibration    11          0.683              1.700              1.499
 Vibration    12          0.692              1.676              1.425
 Vibration    13          0.709              1.627              1.289
 Vibration    14          0.742              1.535              1.082
 Vibration    15          0.746              1.522              1.057
 Vibration    16          0.773              1.451              0.930
 Vibration    17          0.786              1.419              0.880
 Vibration    18          0.832              1.304              0.722
 Vibration    19          0.842              1.282              0.695
 Vibration    20          0.882              1.190              0.593
 Vibration    21          0.903              1.145              0.549
 Vibration    22          0.918              1.112              0.519
 Vibration    23          0.966              1.016              0.437

                           ! Non-Optimized Parameters !
 Normal termination of Gaussian 16 at Sun Dec 13 16:23:44 2020.

 ----------------------------------------------------------------------
 # B3LYP/6-311++G(d,p) empiricaldispersion=gd3bj scf=xqc pop=npa geom=c
 heck
 ----------------------------------------------------------------------

 ---------------------------------------
 CID_104829962_JID_3446_Energie_neutraal
 ---------------------------------------
 Structure from the checkpoint file:  "JID_3446.chk"
 Charge =  0 Multiplicity = 1

 SCF Done:  E(RB3LYP) =  -633.905568591     A.U. after   14 cycles
 Normal termination of Gaussian 16 at Sun Dec 13 16:27:22 2020.

 ----------------------------------------------------------------------
 # B3LYP/6-311++G(d,p) empiricaldispersion=gd3bj scf=xqc pop=npa geom=c
 heck
 ----------------------------------------------------------------------

 -------------------------------------
 CID_104829962_JID_3446_Energie_kation
 -------------------------------------
 Structure from the checkpoint file:  "JID_3446.chk"
 Charge =  1 Multiplicity = 2

 SCF Done:  E(UB3LYP) =  -633.570919315     A.U. after   30 cycles
 Normal termination of Gaussian 16 at Sun Dec 13 16:38:10 2020.
 Gaussian 16:  ES64L-G16RevA.03 25-Dec-2016

 ----------------------------------------------------------------------
 # B3LYP/6-311++G(d,p) empiricaldispersion=gd3bj scf=xqc pop=npa geom=c
 heck
 ----------------------------------------------------------------------

 ------------------------------------
 CID_104829962_JID_3446_Energie_anion
 ------------------------------------
 Structure from the checkpoint file:  "JID_3446.chk"
 Charge = -1 Multiplicity = 2

                         Standard orientation:
 ---------------------------------------------------------------------
 Center     Atomic      Atomic             Coordinates (Angstroms)
 Number     Number       Type             X           Y           Z
 ---------------------------------------------------------------------
      1          6           0       -0.945892   -1.284680    1.621436
      2          6           0       -0.827531   -0.406190    0.370364
      3          6           0       -2.179860   -0.036288   -0.315948
      4          6           0       -3.056647    0.839851    0.594633
      5          6           0       -1.881801    0.730413   -1.616308
      6          6           0       -2.942337   -1.324967   -0.672489
      7          7           0       -0.060304    0.793720    0.717032
      8          6           0        1.112252    1.279891    0.222137
      9          8           0        1.626666    2.301274    0.655479
     10          6           0        1.788876    0.488196   -0.914280
     11          6           0        2.507898   -0.726930   -0.369347
     12          8           0        1.993631   -1.798457   -0.122004
     13          8           0        3.817110   -0.480451   -0.154766
     14          1           0       -1.476240   -0.769559    2.430674
     15          1           0        0.057009   -1.538892    1.973817
     16          1           0       -1.474708   -2.216754    1.407454
     17          1           0       -0.235450   -0.968417   -0.353012
     18          1           0       -2.571819    1.795258    0.825603
     19          1           0       -4.005000    1.071024    0.096786
     20          1           0       -3.295478    0.336965    1.538084
     21          1           0       -1.305707    0.111358   -2.315692
     22          1           0       -2.814093    1.012758   -2.118115
     23          1           0       -1.315130    1.646120   -1.421305
     24          1           0       -2.308050   -2.017590   -1.239333
     25          1           0       -3.304514   -1.848607    0.217589
     26          1           0       -3.814490   -1.088371   -1.292386
     27          1           0       -0.416032    1.358157    1.480222
     28          1           0        1.061071    0.152064   -1.655102
     29          1           0        2.501888    1.170746   -1.374456
     30          1           0        4.189858   -1.297003    0.229087
 ---------------------------------------------------------------------

 SCF Done:  E(UB3LYP) =  -633.894637542     A.U. after   33 cycles
 SCF Done:  E(UB3LYP) =  -633.894637542     a.u. after    1 cycles

 The electronic state is 2-A.
 Alpha  occ. eigenvalues --  -19.07945 -19.02603 -18.99748 -14.24385 -10.22201
 Alpha  occ. eigenvalues --  -10.18971 -10.11859 -10.10162 -10.09340 -10.06767
 Alpha  occ. eigenvalues --  -10.06480 -10.06366 -10.06232  -1.02172  -0.94979
 Alpha  occ. eigenvalues --   -0.93173  -0.83661  -0.72891  -0.68710  -0.65062
 Alpha  occ. eigenvalues --   -0.59616  -0.59306  -0.54923  -0.54136  -0.48835
 Alpha  occ. eigenvalues --   -0.45592  -0.42420  -0.40665  -0.39987  -0.38745
 Alpha  occ. eigenvalues --   -0.37119  -0.35571  -0.34974  -0.33986  -0.32379
 Alpha  occ. eigenvalues --   -0.32190  -0.31263  -0.31108  -0.30127  -0.29104
 Alpha  occ. eigenvalues --   -0.28663  -0.28566  -0.27272  -0.26794  -0.23992
 Alpha  occ. eigenvalues --   -0.23730  -0.23563  -0.23106  -0.19543  -0.16842
 Alpha  occ. eigenvalues --   -0.16268   0.04151
 Alpha virt. eigenvalues --    0.05875   0.06626   0.07702   0.07973   0.08374
 Alpha virt. eigenvalues --    0.09829   0.10013   0.10387   0.10661   0.10992
 Alpha virt. eigenvalues --    0.11757   0.12534   0.13067   0.13769   0.13886

  Beta  occ. eigenvalues --  -19.07887 -19.02585 -18.99745 -14.24375 -10.22192
  Beta  occ. eigenvalues --  -10.18971 -10.11853 -10.10131 -10.09338 -10.06747
  Beta  occ. eigenvalues --  -10.06442 -10.06333 -10.06200  -1.02092  -0.94971
  Beta  occ. eigenvalues --   -0.93111  -0.83647  -0.72870  -0.68653  -0.65032
  Beta  occ. eigenvalues --   -0.59550  -0.59246  -0.54871  -0.54049  -0.48778
  Beta  occ. eigenvalues --   -0.45537  -0.42380  -0.40616  -0.39953  -0.38708
  Beta  occ. eigenvalues --   -0.37086  -0.35528  -0.34934  -0.33951  -0.32345
  Beta  occ. eigenvalues --   -0.32154  -0.31232  -0.31075  -0.30092  -0.29071
  Beta  occ. eigenvalues --   -0.28629  -0.28536  -0.27236  -0.26759  -0.23956
  Beta  occ. eigenvalues --   -0.23688  -0.23523  -0.23070  -0.19500  -0.16829
  Beta  occ. eigenvalues --   -0.16253
  Beta virt. eigenvalues --    0.06387   0.06887   0.07413   0.08251   0.08433
  Beta virt. eigenvalues --    0.09156   0.10127   0.10351   0.10653   0.10975
  Beta virt. eigenvalues --    0.11360   0.11955   0.12876   0.13295   0.13893

 Mulliken charges and spin densities:
               1          2
     1  C    0.804031  -1.379877
     2  C    0.311782  -0.910588
     3  C   -1.800113   2.646430
     4  C    0.374337  -1.011007
     5  C    0.271817  -0.933896
     6  C    0.591686  -1.241829
     7  N   -0.013271   0.048388
     8  C   -0.639873   0.624385
     9  O   -0.306843   0.003886
    10  C    0.721562  -0.938615
    11  C    0.343479  -0.331536
    12  O   -0.255603   0.000444
    13  O   -0.155855   0.046422
    14  H   -0.029100   0.173421
    15  H    0.086896   0.095653
    16  H   -0.055229   0.204253
    17  H    0.543082  -0.300589
    18  H   -0.065859   0.191986
    19  H   -0.275749   0.442918
    20  H   -0.196385   0.346600
    21  H   -0.142283   0.288577
    22  H   -0.368106   0.541103
    23  H    0.143310   0.024036
    24  H   -0.221761   0.375833
    25  H   -0.131703   0.267804
    26  H   -0.173079   0.329594
    27  H    0.160947   0.140135
    28  H   -0.110527   0.266471
    29  H    0.033270   0.239644
    30  H   -0.444861   0.749954
 Sum of Mulliken charges =  -1.00000   1.00000

 Dipole moment (field-independent basis, Debye):
    X=             -0.6050    Y=              0.5052    Z=              0.4899  Tot=              0.9280
 Quadrupole moment (field-independent basis, Debye-Ang):
   XX=           -165.0951   YY=           -123.2291   ZZ=           -112.6638
   XY=              2.7617   XZ=             -6.2953   YZ=             -1.7512

 Summary of Natural Population Analysis:

                                       Natural Population
                Natural  -----------------------------------------------
    Atom  No    Charge         Core      Valence    Rydberg      Total
 -----------------------------------------------------------------------
      C    1   -0.28644      0.99963     2.28173    0.00508     3.28644
      C    2   -0.01498      0.99953     2.00107    0.01439     3.01498
      C    3   -0.04849      0.99957     2.03592    0.01299     3.04849
      C    4   -0.29041      0.99962     2.28307    0.00772     3.29041
      C    5   -0.28599      0.99962     2.27881    0.00756     3.28599
      C    6   -0.28596      0.99962     2.27883    0.00751     3.28596
      N    7   -0.31683      0.99965     2.80669    0.01049     3.81683
      C    8    0.34858      0.99967     1.63004    0.02172     2.65142
      O    9   -0.31945      0.99988     3.31365    0.00593     4.31945
      C   10   -0.28091      0.99954     2.27226    0.00912     3.28091
      C   11    0.40754      0.99973     1.56761    0.02512     2.59246
      O   12   -0.30780      0.99987     3.30129    0.00663     4.30780
      O   13   -0.33697      0.99988     3.33024    0.00685     4.33697
      H   14    0.09608      0.00000     0.40282    0.00109     0.40392
      H   15    0.10872      0.00000     0.39032    0.00095     0.39128
      H   16    0.10370      0.00000     0.39541    0.00089     0.39630
      H   17    0.11203      0.00000     0.38507    0.00289     0.38797
      H   18    0.09853      0.00000     0.40022    0.00125     0.40147
      H   19    0.10471      0.00000     0.39415    0.00114     0.39529
      H   20    0.10110      0.00000     0.39775    0.00115     0.39890
      H   21    0.09933      0.00000     0.39931    0.00136     0.40067
      H   22    0.10257      0.00000     0.39642    0.00101     0.39743
      H   23    0.10205      0.00000     0.39664    0.00131     0.39795
      H   24    0.10143      0.00000     0.39748    0.00109     0.39857
      H   25    0.10088      0.00000     0.39804    0.00108     0.39912
      H   26    0.10273      0.00000     0.39614    0.00113     0.39727
      H   27    0.19452      0.00000     0.30328    0.00220     0.30548
      H   28    0.12031      0.00000     0.37831    0.00138     0.37969
      H   29    0.12373      0.00000     0.37510    0.00117     0.37627
      H   30    0.24568      0.00000     0.23583    0.01849     0.25432
 =======================================================================
   * Total *   -0.00000     12.99579    37.82352    0.18068    51.00000

 Normal termination of Gaussian 16 at Sun Dec 13 16:49:30 2020.
