 Gaussian 16, Revision A.03,

 -----------------------------------------------------------
 # opt freq B3LYP/6-31G(d) empiricaldispersion=gd3bj scf=xqc
 -----------------------------------------------------------

 ------------------------------
 CID_84627658_JID_7826_neutraal
 ------------------------------
 Symbolic Z-matrix:
 Charge =  0 Multiplicity = 1

 SCF Done:  E(RB3LYP) =  -804.779479706     A.U. after   15 cycles
 SCF Done:  E(RB3LYP) =  -804.785611014     A.U. after   13 cycles
 SCF Done:  E(RB3LYP) =  -804.786242527     A.U. after   12 cycles
 SCF Done:  E(RB3LYP) =  -804.786370371     A.U. after   10 cycles
 SCF Done:  E(RB3LYP) =  -804.786379060     A.U. after   11 cycles
 SCF Done:  E(RB3LYP) =  -804.786390461     A.U. after   10 cycles
 SCF Done:  E(RB3LYP) =  -804.786396065     A.U. after    9 cycles
 Optimization completed.
    -- Stationary point found.
 Normal termination of Gaussian 16 at Sun Dec 13 16:02:02 2020.

 --------------------------------------------------------------------
 #N Geom=AllCheck Guess=TCheck SCRF=Check GenChk RB3LYP/6-31G(d) Freq
 --------------------------------------------------------------------

 Structure from the checkpoint file:  "JID_7826.chk"
 ------------------------------
 CID_84627658_JID_7826_neutraal
 ------------------------------
 Charge =  0 Multiplicity = 1

 SCF Done:  E(RB3LYP) =  -804.786396065     A.U. after    1 cycles

  Exact polarizability: 244.123   2.733 143.956   0.002  -0.001  78.031
 Approx polarizability: 343.442   2.403 261.260   0.005  -0.001 116.003

                      1                      2                      3
                      A                      A                      A
 Frequencies --     40.9770                52.5134               114.7394
 Red. masses --      3.4533                 4.9990                 7.2070
 Frc consts  --      0.0034                 0.0081                 0.0559
 IR Inten    --      0.0337                 0.6157                 0.0431

                      4                      5                      6
                      A                      A                      A
 Frequencies --    116.9876               118.3323               189.8984
 Red. masses --      5.6754                 5.7155                 4.1534
 Frc consts  --      0.0458                 0.0472                 0.0882
 IR Inten    --      0.4577                 0.3889                 0.2970

                      7                      8                      9
                      A                      A                      A
 Frequencies --    197.2632               227.7299               248.3571
 Red. masses --      4.8438                 1.3439                 3.3570
 Frc consts  --      0.1111                 0.0411                 0.1220
 IR Inten    --      0.1955                 0.1139                 0.2057

                     10                     11                     12
                      A                      A                      A
 Frequencies --    262.3081               270.3903               294.9708
 Red. masses --      2.5851                 1.2030                 3.3784
 Frc consts  --      0.1048                 0.0518                 0.1732
 IR Inten    --      0.1591                 0.6972                 7.6796

                     13                     14                     15
                      A                      A                      A
 Frequencies --    336.7962               344.4509               352.7331
 Red. masses --      1.0509                 2.6878                 3.5848
 Frc consts  --      0.0702                 0.1879                 0.2628
 IR Inten    --      0.0304                 0.9885                 0.4062

                     16                     17                     18
                      A                      A                      A
 Frequencies --    379.9440               383.5466               433.7603
 Red. masses --      5.3269                 3.2069                 5.7948
 Frc consts  --      0.4531                 0.2780                 0.6424
 IR Inten    --      3.7638                 0.0521                 7.0731

                     19                     20                     21
                      A                      A                      A
 Frequencies --    434.0049               465.8196               468.0962
 Red. masses --      3.2636                 4.2254                 3.2062
 Frc consts  --      0.3622                 0.5402                 0.4139
 IR Inten    --      0.6611                 0.1399                 0.0259

                     22                     23                     24
                      A                      A                      A
 Frequencies --    536.4635               574.3317               582.2879
 Red. masses --      3.3458                 1.4757                 6.1698
 Frc consts  --      0.5673                 0.2868                 1.2325
 IR Inten    --      0.2956                75.8792                10.3983

                     25                     26                     27
                      A                      A                      A
 Frequencies --    626.0564               629.0756               685.1618
 Red. masses --      2.5396                 5.2554                 4.8127
 Frc consts  --      0.5865                 1.2253                 1.3312
 IR Inten    --     12.3412                43.0114                26.9703

                     28                     29                     30
                      A                      A                      A
 Frequencies --    692.5044               707.9943               737.2202
 Red. masses --      6.0261                 5.4204                 1.2959
 Frc consts  --      1.7027                 1.6008                 0.4150
 IR Inten    --      2.6048                41.3447                43.3224

                     31                     32                     33
                      A                      A                      A
 Frequencies --    755.6875               767.0247               789.9556
 Red. masses --      3.9425                 5.2737                 6.9175
 Frc consts  --      1.3265                 1.8280                 2.5433
 IR Inten    --     56.5349                43.1868                 0.6758

                     34                     35                     36
                      A                      A                      A
 Frequencies --    837.2997               847.8759               878.9598
 Red. masses --      1.5165                 3.0805                 6.1197
 Frc consts  --      0.6264                 1.3048                 2.7856
 IR Inten    --     24.9926                18.8907                 7.6085

                     37                     38                     39
                      A                      A                      A
 Frequencies --    908.4723               941.5643               953.3803
 Red. masses --      1.4359                 1.7352                 1.6965
 Frc consts  --      0.6982                 0.9064                 0.9085
 IR Inten    --      5.7694                 1.4141                 0.8211

                     40                     41                     42
                      A                      A                      A
 Frequencies --    962.1768               972.2195               976.5073
 Red. masses --      1.2884                 3.7324                 1.2027
 Frc consts  --      0.7028                 2.0786                 0.6757
 IR Inten    --      0.0005                 0.5543                 0.0955

                     43                     44                     45
                      A                      A                      A
 Frequencies --   1057.4333              1064.1451              1103.4379
 Red. masses --      1.4405                 1.3885                 2.1875
 Frc consts  --      0.9490                 0.9264                 1.5693
 IR Inten    --      1.5532                 0.0023                30.9866

                     46                     47                     48
                      A                      A                      A
 Frequencies --   1151.9458              1177.8052              1210.6476
 Red. masses --      2.4996                 1.8251                 3.8868
 Frc consts  --      1.9543                 1.4917                 3.3565
 IR Inten    --    227.0587               225.9079                60.5260

                     49                     50                     51
                      A                      A                      A
 Frequencies --   1240.3142              1243.9793              1244.9935
 Red. masses --      2.5769                 2.7114                 2.6241
 Frc consts  --      2.3357                 2.4721                 2.3964
 IR Inten    --    110.5134                 3.4098                 1.0068

                     52                     53                     54
                      A                      A                      A
 Frequencies --   1285.4047              1306.2234              1321.1282
 Red. masses --      2.4011                 3.0621                 1.9784
 Frc consts  --      2.3374                 3.0782                 2.0345
 IR Inten    --      9.3107                99.4592                57.9818

                     55                     56                     57
                      A                      A                      A
 Frequencies --   1329.3924              1387.8333              1426.9646
 Red. masses --      2.0042                 5.1121                 1.2715
 Frc consts  --      2.0869                 5.8013                 1.5254
 IR Inten    --    157.4334                32.3300                18.7670

                     58                     59                     60
                      A                      A                      A
 Frequencies --   1427.9001              1453.7973              1459.8217
 Red. masses --      1.2122                 2.2990                 1.2198
 Frc consts  --      1.4562                 2.8628                 1.5316
 IR Inten    --      4.2309                28.4933                 4.0858

                     61                     62                     63
                      A                      A                      A
 Frequencies --   1498.6453              1513.1403              1516.7360
 Red. masses --      2.5862                 1.0496                 1.0455
 Frc consts  --      3.4222                 1.4159                 1.4171
 IR Inten    --     79.4961                 0.0106                 0.1065

                     64                     65                     66
                      A                      A                      A
 Frequencies --   1519.4706              1523.3812              1535.5065
 Red. masses --      2.0682                 1.4278                 1.1031
 Frc consts  --      2.8134                 1.9523                 1.5324
 IR Inten    --    135.5682                50.5609                18.5787

                     67                     68                     69
                      A                      A                      A
 Frequencies --   1538.7750              1547.8493              1555.4950
 Red. masses --      1.0504                 1.6989                 1.7978
 Frc consts  --      1.4654                 2.3981                 2.5629
 IR Inten    --      5.4070                 0.5338                 9.9681

                     70                     71                     72
                      A                      A                      A
 Frequencies --   1637.0884              1646.6445              1684.2492
 Red. masses --      6.2785                 6.1814                 7.0012
 Frc consts  --      9.9141                 9.8750                11.7013
 IR Inten    --    270.8722                94.6265                75.3937

                     73                     74                     75
                      A                      A                      A
 Frequencies --   1743.1957              3046.3276              3046.4673
 Red. masses --      7.3024                 1.0350                 1.0347
 Frc consts  --     13.0739                 5.6590                 5.6582
 IR Inten    --    402.6684                26.6122                25.0181

                     76                     77                     78
                      A                      A                      A
 Frequencies --   3054.2224              3112.7993              3113.7243
 Red. masses --      1.0362                 1.1021                 1.1024
 Frc consts  --      5.6950                 6.2920                 6.2975
 IR Inten    --     23.4466                 3.8695                 5.9176

                     79                     80                     81
                      A                      A                      A
 Frequencies --   3118.8767              3121.7365              3124.2766
 Red. masses --      1.1031                 1.1014                 1.1023
 Frc consts  --      6.3219                 6.3240                 6.3395
 IR Inten    --     17.8293               103.3956                24.6287

                     82                     83                     84
                      A                      A                      A
 Frequencies --   3126.1411              3204.5871              3227.7655
 Red. masses --      1.1017                 1.0873                 1.0944
 Frc consts  --      6.3436                 6.5788                 6.7181
 IR Inten    --     40.4437                 8.9693                 7.7288

                     85                     86                     87
                      A                      A                      A
 Frequencies --   3242.0637              3445.2085              3694.3207
 Red. masses --      1.0898                 1.0656                 1.0640
 Frc consts  --      6.7492                 7.4520                 8.5560
 IR Inten    --      1.8212               167.6413               112.9996

 - Thermochemistry -
 -------------------
 Temperature   298.150 Kelvin.  Pressure   1.00000 Atm.
 Atom     1 has atomic number  6 and mass  12.00000

 Molecular mass:   234.08921 amu.
 Principal axes and moments of inertia in atomic units:
                           1         2         3
     Eigenvalues --  1428.025487831.208308859.84768
           X            0.99999  -0.00399  -0.00000
           Y            0.00399   0.99999  -0.00000
           Z            0.00000   0.00000   1.00000
 This molecule is an asymmetric top.
 Rotational symmetry number  1.
 Warning -- assumption of classical behavior for rotation
           may cause significant error
 Rotational temperatures (Kelvin)      0.06065     0.01106     0.00978
 Rotational constants (GHZ):           1.26380     0.23046     0.20370
 Zero-point vibrational energy     658709.9 (Joules/Mol)
                                  157.43545 (Kcal/Mol)
 Warning -- explicit consideration of  24 degrees of freedom as
           vibrations may cause significant error
 Vibrational temperatures:     58.96    75.56   165.08   168.32   170.25
          (Kelvin)            273.22   283.82   327.65   357.33   377.40
                              389.03   424.40   484.57   495.59   507.50
                              546.65   551.84   624.08   624.44   670.21
                              673.49   771.85   826.34   837.78   900.76
                              905.10   985.80   996.36  1018.65  1060.70
                             1087.27  1103.58  1136.57  1204.69  1219.90
                             1264.63  1307.09  1354.70  1371.70  1384.36
                             1398.81  1404.98  1521.41  1531.07  1587.60
                             1657.39  1694.60  1741.85  1784.54  1789.81
                             1791.27  1849.41  1879.36  1900.81  1912.70
                             1996.78  2053.08  2054.43  2091.69  2100.36
                             2156.22  2177.07  2182.24  2186.18  2191.81
                             2209.25  2213.95  2227.01  2238.01  2355.41
                             2369.15  2423.26  2508.07  4382.99  4383.19
                             4394.34  4478.62  4479.95  4487.37  4491.48
                             4495.14  4497.82  4610.69  4644.03  4664.61
                             4956.89  5315.30

 Zero-point correction=                           0.250889 (Hartree/Particle)
 Thermal correction to Energy=                    0.266132
 Thermal correction to Enthalpy=                  0.267077
 Thermal correction to Gibbs Free Energy=         0.208952
 Sum of electronic and zero-point Energies=           -804.535507
 Sum of electronic and thermal Energies=              -804.520264
 Sum of electronic and thermal Enthalpies=            -804.519319
 Sum of electronic and thermal Free Energies=         -804.577444

                     E (Thermal)             CV                S
                      KCal/Mol        Cal/Mol-Kelvin    Cal/Mol-Kelvin
 Total                  167.001             60.223            122.333
 Electronic               0.000              0.000              0.000
 Translational            0.889              2.981             42.253
 Rotational               0.889              2.981             32.960
 Vibrational            165.223             54.261             47.120
 Vibration     1          0.594              1.981              5.211
 Vibration     2          0.596              1.977              4.720
 Vibration     3          0.608              1.937              3.187
 Vibration     4          0.608              1.935              3.150
 Vibration     5          0.608              1.934              3.127
 Vibration     6          0.633              1.854              2.229
 Vibration     7          0.637              1.844              2.158
 Vibration     8          0.651              1.799              1.897
 Vibration     9          0.662              1.765              1.742
 Vibration    10          0.670              1.742              1.646
 Vibration    11          0.674              1.728              1.594
 Vibration    12          0.689              1.683              1.445
 Vibration    13          0.718              1.602              1.227
 Vibration    14          0.723              1.587              1.191
 Vibration    15          0.729              1.570              1.154
 Vibration    16          0.750              1.513              1.039
 Vibration    17          0.753              1.505              1.025
 Vibration    18          0.795              1.397              0.846
 Vibration    19          0.795              1.396              0.846
 Vibration    20          0.823              1.326              0.749
 Vibration    21          0.825              1.321              0.743
 Vibration    22          0.891              1.169              0.573
 Vibration    23          0.931              1.087              0.496
 Vibration    24          0.939              1.070              0.481

 Optimization completed.
    -- Stationary point found.
 Normal termination of Gaussian 16 at Sun Dec 13 16:12:22 2020.

 ----------------------------------------------------------------------
 # B3LYP/6-311++G(d,p) empiricaldispersion=gd3bj scf=xqc pop=npa geom=c
 heck
 ----------------------------------------------------------------------

 --------------------------------------
 CID_84627658_JID_7826_Energie_neutraal
 --------------------------------------
 Structure from the checkpoint file:  "JID_7826.chk"
 Charge =  0 Multiplicity = 1

 SCF Done:  E(RB3LYP) =  -805.020377316     A.U. after   16 cycles
 Normal termination of Gaussian 16 at Sun Dec 13 16:17:40 2020.

 ----------------------------------------------------------------------
 # B3LYP/6-311++G(d,p) empiricaldispersion=gd3bj scf=xqc pop=npa geom=c
 heck
 ----------------------------------------------------------------------

 ------------------------------------
 CID_84627658_JID_7826_Energie_kation
 ------------------------------------
 Structure from the checkpoint file:  "JID_7826.chk"
 Charge =  1 Multiplicity = 2

 SCF Done:  E(UB3LYP) =  -804.721120094     A.U. after   25 cycles
 Normal termination of Gaussian 16 at Sun Dec 13 16:29:04 2020.
 Gaussian 16:  ES64L-G16RevA.03 25-Dec-2016

 ----------------------------------------------------------------------
 # B3LYP/6-311++G(d,p) empiricaldispersion=gd3bj scf=xqc pop=npa geom=c
 heck
 ----------------------------------------------------------------------

 -----------------------------------
 CID_84627658_JID_7826_Energie_anion
 -----------------------------------
 Structure from the checkpoint file:  "JID_7826.chk"
 Charge = -1 Multiplicity = 2

                         Standard orientation:
 ---------------------------------------------------------------------
 Center     Atomic      Atomic             Coordinates (Angstroms)
 Number     Number       Type             X           Y           Z
 ---------------------------------------------------------------------
      1          6           0       -4.217348   -0.284333   -1.260947
      2          6           0       -3.518032    0.268511    0.000016
      3          6           0       -3.668227    1.798492    0.000218
      4          6           0       -4.217045   -0.284597    1.261073
      5          6           0       -2.046216   -0.168304   -0.000150
      6          6           0       -0.994772    0.743877   -0.000083
      7          6           0        0.325424    0.268320   -0.000083
      8          6           0        0.583708   -1.114557   -0.000061
      9          6           0       -0.443615   -2.052048   -0.000068
     10          6           0       -1.740958   -1.555184   -0.000078
     11          8           0        1.921804   -1.382579   -0.000051
     12          6           0        2.546535   -0.142702   -0.000067
     13          6           0        1.622507    0.882933   -0.000091
     14          8           0        1.882232    2.192358   -0.000104
     15          6           0        3.965180    0.053824    0.000028
     16          8           0        4.450334    1.190682    0.000105
     17          8           0        4.721962   -1.058891    0.000126
     18          1           0       -5.270896    0.018634   -1.274909
     19          1           0       -4.184527   -1.377861   -1.299273
     20          1           0       -3.738993    0.097567   -2.169447
     21          1           0       -4.730871    2.063612    0.000649
     22          1           0       -3.213042    2.250677    0.888160
     23          1           0       -3.213752    2.250848   -0.887997
     24          1           0       -4.184201   -1.378130    1.299158
     25          1           0       -3.738475    0.097162    2.169514
     26          1           0       -5.270587    0.018358    1.275310
     27          1           0       -1.169893    1.812223   -0.000022
     28          1           0       -0.235999   -3.116413   -0.000066
     29          1           0       -2.557484   -2.270057   -0.000040
     30          1           0        2.867606    2.266681   -0.000118
     31          1           0        5.647603   -0.751242    0.000216
 ---------------------------------------------------------------------

 SCF Done:  E(UB3LYP) =  -805.034792396     A.U. after   21 cycles

 The electronic state is 2-A.
 Alpha  occ. eigenvalues --  -19.03166 -19.02538 -19.00760 -18.95022 -10.13334
 Alpha  occ. eigenvalues --  -10.08617 -10.08343 -10.07691 -10.06308 -10.06017
 Alpha  occ. eigenvalues --  -10.06017 -10.05940 -10.04411 -10.03121 -10.02926
 Alpha  occ. eigenvalues --  -10.02696 -10.02678  -0.96752  -0.95293  -0.92360
 Alpha  occ. eigenvalues --   -0.86258  -0.73398  -0.69863  -0.64948  -0.60961
 Alpha  occ. eigenvalues --   -0.60071  -0.58752  -0.58486  -0.52949  -0.48719
 Alpha  occ. eigenvalues --   -0.46145  -0.46140  -0.43018  -0.39972  -0.38494
 Alpha  occ. eigenvalues --   -0.36567  -0.34541  -0.34079  -0.33618  -0.33028
 Alpha  occ. eigenvalues --   -0.32161  -0.31409  -0.29832  -0.29703  -0.29115
 Alpha  occ. eigenvalues --   -0.28894  -0.27716  -0.26904  -0.26170  -0.25671
 Alpha  occ. eigenvalues --   -0.25148  -0.24427  -0.23826  -0.22308  -0.20837
 Alpha  occ. eigenvalues --   -0.20705  -0.19314  -0.18496  -0.14108  -0.13649
 Alpha  occ. eigenvalues --   -0.10069  -0.07742   0.04436
 Alpha virt. eigenvalues --    0.06889   0.09025   0.09332   0.09384   0.09864
 Alpha virt. eigenvalues --    0.10982   0.11883   0.12000   0.12344   0.12578
 Alpha virt. eigenvalues --    0.13790   0.13916   0.14677   0.14726   0.15672

  Beta  occ. eigenvalues --  -19.03068 -19.02441 -19.00667 -18.94699 -10.12999
  Beta  occ. eigenvalues --  -10.08597 -10.08338 -10.07383 -10.06275 -10.06018
  Beta  occ. eigenvalues --  -10.06017 -10.05938 -10.04515 -10.03021 -10.02924
  Beta  occ. eigenvalues --  -10.02414 -10.02405  -0.96466  -0.95064  -0.92131
  Beta  occ. eigenvalues --   -0.85744  -0.73276  -0.69684  -0.64473  -0.60644
  Beta  occ. eigenvalues --   -0.59725  -0.58752  -0.58338  -0.52355  -0.48564
  Beta  occ. eigenvalues --   -0.45948  -0.45820  -0.42939  -0.39807  -0.38271
  Beta  occ. eigenvalues --   -0.36490  -0.34177  -0.34067  -0.33546  -0.32098
  Beta  occ. eigenvalues --   -0.32005  -0.31264  -0.29670  -0.29597  -0.28738
  Beta  occ. eigenvalues --   -0.28086  -0.27614  -0.26893  -0.26048  -0.25409
  Beta  occ. eigenvalues --   -0.24333  -0.24328  -0.23779  -0.22238  -0.20787
  Beta  occ. eigenvalues --   -0.19917  -0.19175  -0.17089  -0.13814  -0.12365
  Beta  occ. eigenvalues --   -0.09335  -0.06149
  Beta virt. eigenvalues --    0.06857   0.08991   0.09281   0.09388   0.09836
  Beta virt. eigenvalues --    0.10162   0.10944   0.11839   0.12140   0.12336
  Beta virt. eigenvalues --    0.12675   0.13771   0.14243   0.14718   0.15621

 Mulliken charges and spin densities:
               1          2
     1  C   -0.660809  -0.008803
     2  C    0.346420   0.022783
     3  C   -0.475697  -0.003466
     4  C   -0.660827  -0.008742
     5  C    1.091477  -0.120271
     6  C   -0.311755   0.237533
     7  C    0.752358  -0.013854
     8  C   -1.320209   0.018243
     9  C   -0.301432   0.080995
    10  C   -0.494851   0.215305
    11  O   -0.141095   0.027153
    12  C    0.329286   0.028352
    13  C   -0.040574   0.186784
    14  O   -0.310757   0.026450
    15  C   -0.166912   0.208990
    16  O   -0.497824   0.106984
    17  O   -0.230163   0.017940
    18  H    0.114993   0.006693
    19  H    0.134760   0.001661
    20  H    0.138276  -0.001270
    21  H    0.141439  -0.000083
    22  H    0.132458   0.003355
    23  H    0.132462   0.003338
    24  H    0.134746   0.001651
    25  H    0.138287  -0.001269
    26  H    0.114983   0.006678
    27  H    0.124325  -0.014081
    28  H    0.142277  -0.007006
    29  H    0.074563  -0.018246
    30  H    0.306522  -0.002667
    31  H    0.263271  -0.001129
 Sum of Mulliken charges =  -1.00000   1.00000

 Dipole moment (field-independent basis, Debye):
    X=             -5.8817    Y=             -0.6126    Z=              0.0003  Tot=              5.9135
 Quadrupole moment (field-independent basis, Debye-Ang):
   XX=           -145.9755   YY=           -118.3180   ZZ=           -109.6126
   XY=             -5.9543   XZ=             -0.0006   YZ=             -0.0005

 Summary of Natural Population Analysis:

                                       Natural Population
                Natural  -----------------------------------------------
    Atom  No    Charge         Core      Valence    Rydberg      Total
 -----------------------------------------------------------------------
      C    1   -0.27950      0.99964     2.27441    0.00544     3.27950
      C    2   -0.04788      0.99956     2.03941    0.00890     3.04788
      C    3   -0.28482      0.99964     2.27933    0.00584     3.28482
      C    4   -0.27949      0.99964     2.27441    0.00544     3.27949
      C    5   -0.05792      0.99952     2.04590    0.01250     3.05792
      C    6   -0.02773      0.99949     2.02272    0.00552     3.02773
      C    7   -0.08233      0.99948     2.07243    0.01042     3.08233
      C    8    0.17364      0.99937     1.81425    0.01274     2.82636
      C    9   -0.11563      0.99952     2.10674    0.00937     3.11563
      C   10   -0.04980      0.99954     2.04200    0.00825     3.04980
      O   11   -0.23439      0.99985     3.22532    0.00922     4.23439
      C   12    0.04545      0.99930     1.94168    0.01357     2.95455
      C   13    0.21235      0.99931     1.77416    0.01417     2.78765
      O   14   -0.33917      0.99987     3.33272    0.00658     4.33917
      C   15    0.40857      0.99962     1.56765    0.02416     2.59143
      O   16   -0.33454      0.99987     3.32813    0.00653     4.33454
      O   17   -0.34066      0.99987     3.33415    0.00664     4.34066
      H   18    0.08909      0.00000     0.40997    0.00095     0.41091
      H   19    0.09975      0.00000     0.39944    0.00081     0.40025
      H   20    0.10099      0.00000     0.39831    0.00071     0.39901
      H   21    0.09250      0.00000     0.40666    0.00084     0.40750
      H   22    0.10157      0.00000     0.39755    0.00088     0.39843
      H   23    0.10156      0.00000     0.39756    0.00088     0.39844
      H   24    0.09975      0.00000     0.39944    0.00081     0.40025
      H   25    0.10099      0.00000     0.39830    0.00071     0.39901
      H   26    0.08909      0.00000     0.40997    0.00095     0.41091
      H   27    0.09436      0.00000     0.40417    0.00147     0.40564
      H   28    0.09651      0.00000     0.40192    0.00158     0.40349
      H   29    0.08521      0.00000     0.41347    0.00131     0.41479
      H   30    0.25259      0.00000     0.24432    0.00309     0.24741
      H   31    0.23008      0.00000     0.26619    0.00373     0.26992
 =======================================================================
   * Total *    0.00019     16.99311    44.82269    0.18402    61.99981

 Normal termination of Gaussian 16 at Sun Dec 13 16:39:09 2020.
