 Gaussian 16, Revision A.03,

 -----------------------------------------------------------
 # opt freq B3LYP/6-31G(d) empiricaldispersion=gd3bj scf=xqc
 -----------------------------------------------------------

 --------------------------------
 CID_120379916_JID_10197_neutraal
 --------------------------------
 Symbolic Z-matrix:
 Charge =  0 Multiplicity = 1

 SCF Done:  E(RB3LYP) =  -933.722973444     A.U. after   15 cycles
 SCF Done:  E(RB3LYP) =  -933.728421391     A.U. after   13 cycles
 SCF Done:  E(RB3LYP) =  -933.722006015     A.U. after   15 cycles
 SCF Done:  E(RB3LYP) =  -933.724711028     A.U. after   14 cycles
 SCF Done:  E(RB3LYP) =  -933.731038790     A.U. after   11 cycles
 SCF Done:  E(RB3LYP) =  -933.732552162     A.U. after   14 cycles
 SCF Done:  E(RB3LYP) =  -933.732455156     A.U. after   13 cycles
 SCF Done:  E(RB3LYP) =  -933.732926779     A.U. after   13 cycles
 SCF Done:  E(RB3LYP) =  -933.733582195     A.U. after   12 cycles
 SCF Done:  E(RB3LYP) =  -933.733687571     A.U. after   12 cycles
 SCF Done:  E(RB3LYP) =  -933.735941535     A.U. after   10 cycles
 SCF Done:  E(RB3LYP) =  -933.735941831     A.U. after    8 cycles
 SCF Done:  E(RB3LYP) =  -933.735941986     A.U. after    8 cycles
 SCF Done:  E(RB3LYP) =  -933.735942182     A.U. after    8 cycles
 SCF Done:  E(RB3LYP) =  -933.735942292     A.U. after    8 cycles
 Optimization completed.
    -- Stationary point found.
 Normal termination of Gaussian 16 at Sat Dec 12 15:37:34 2020.

 --------------------------------------------------------------------
 #N Geom=AllCheck Guess=TCheck SCRF=Check GenChk RB3LYP/6-31G(d) Freq
 --------------------------------------------------------------------

 Structure from the checkpoint file:  "JID_10197.chk"
 --------------------------------
 CID_120379916_JID_10197_neutraal
 --------------------------------
 Charge =  0 Multiplicity = 1

 SCF Done:  E(RB3LYP) =  -933.735942292     A.U. after    1 cycles

  Exact polarizability: 201.977 -10.532 178.596 -26.304 -12.859 121.781
 Approx polarizability: 289.176 -36.321 300.671 -50.944 -23.514 193.433

                      1                      2                      3
                      A                      A                      A
 Frequencies --     10.8501                38.9222                54.0503
 Red. masses --      5.9347                 8.6782                 5.0426
 Frc consts  --      0.0004                 0.0077                 0.0087
 IR Inten    --      0.2348                 1.0078                 0.4059

                      4                      5                      6
                      A                      A                      A
 Frequencies --     67.9557                80.3030                97.6020
 Red. masses --      4.7432                 3.7480                 6.5948
 Frc consts  --      0.0129                 0.0142                 0.0370
 IR Inten    --      2.0792                 0.9259                 2.8076

                      7                      8                      9
                      A                      A                      A
 Frequencies --    115.6323               129.5000               166.5976
 Red. masses --      3.9008                 5.0893                 3.1155
 Frc consts  --      0.0307                 0.0503                 0.0509
 IR Inten    --      2.5729                 1.9932                 1.6921

                     10                     11                     12
                      A                      A                      A
 Frequencies --    178.1153               188.6617               200.2131
 Red. masses --      4.7611                 1.2457                 2.7649
 Frc consts  --      0.0890                 0.0261                 0.0653
 IR Inten    --      2.5010                 4.0623                 3.3807

                     13                     14                     15
                      A                      A                      A
 Frequencies --    221.6344               238.5373               278.5491
 Red. masses --      3.2100                 3.7835                 2.2536
 Frc consts  --      0.0929                 0.1268                 0.1030
 IR Inten    --      0.4080                 3.4393                 5.2053

                     16                     17                     18
                      A                      A                      A
 Frequencies --    288.7282               301.0398               333.1898
 Red. masses --      3.3727                 3.1140                 2.5189
 Frc consts  --      0.1657                 0.1663                 0.1648
 IR Inten    --      4.7805                 9.7576                28.4883

                     19                     20                     21
                      A                      A                      A
 Frequencies --    341.9983               366.5442               437.8276
 Red. masses --      1.8638                 3.9990                 3.0918
 Frc consts  --      0.1284                 0.3166                 0.3492
 IR Inten    --     41.6684                 1.6508                 2.6254

                     22                     23                     24
                      A                      A                      A
 Frequencies --    452.1064               491.1187               502.3243
 Red. masses --      3.3318                 3.1158                 3.1180
 Frc consts  --      0.4012                 0.4428                 0.4635
 IR Inten    --      1.4236                 2.8124                14.6728

                     25                     26                     27
                      A                      A                      A
 Frequencies --    505.2168               561.5192               565.6716
 Red. masses --      4.4402                 3.2116                 5.1107
 Frc consts  --      0.6677                 0.5966                 0.9635
 IR Inten    --     14.0684                 5.8342                 5.3949

                     28                     29                     30
                      A                      A                      A
 Frequencies --    584.3802               587.7623               605.8915
 Red. masses --      4.0158                 1.3958                 2.5448
 Frc consts  --      0.8080                 0.2841                 0.5504
 IR Inten    --      7.0787                86.9401                56.8487

                     31                     32                     33
                      A                      A                      A
 Frequencies --    640.9545               658.0937               688.1342
 Red. masses --      3.5230                 2.1239                 5.9134
 Frc consts  --      0.8527                 0.5419                 1.6498
 IR Inten    --     23.4573                55.1993                 5.1274

                     34                     35                     36
                      A                      A                      A
 Frequencies --    704.1765               748.1320               755.5110
 Red. masses --      4.4069                 5.1167                 4.4504
 Frc consts  --      1.2875                 1.6873                 1.4967
 IR Inten    --     25.1219                45.3311                35.9080

                     37                     38                     39
                      A                      A                      A
 Frequencies --    759.4591               763.2162               834.6905
 Red. masses --      1.7416                 2.6405                 3.3587
 Frc consts  --      0.5918                 0.9062                 1.3787
 IR Inten    --     28.8201                14.7658                13.2697

                     40                     41                     42
                      A                      A                      A
 Frequencies --    851.8325               864.2029               872.9152
 Red. masses --      3.1111                 1.4162                 4.4593
 Frc consts  --      1.3301                 0.6232                 2.0020
 IR Inten    --      6.2308                 0.0224                22.9696

                     43                     44                     45
                      A                      A                      A
 Frequencies --    892.5319               903.6010               928.7354
 Red. masses --      4.5878                 1.4613                 1.3473
 Frc consts  --      2.1533                 0.7030                 0.6847
 IR Inten    --      2.8453                42.7084                 1.5664

                     46                     47                     48
                      A                      A                      A
 Frequencies --    970.5994               975.0156              1018.3026
 Red. masses --      1.2368                 1.7774                 1.8593
 Frc consts  --      0.6865                 0.9955                 1.1359
 IR Inten    --      0.7786                52.1611                29.4080

                     49                     50                     51
                      A                      A                      A
 Frequencies --   1039.9921              1051.5923              1073.0382
 Red. masses --      2.0476                 2.4386                 1.9795
 Frc consts  --      1.3048                 1.5888                 1.3429
 IR Inten    --      4.5347                26.1454                17.3995

                     52                     53                     54
                      A                      A                      A
 Frequencies --   1083.1444              1089.3240              1112.3165
 Red. masses --      1.5031                 1.7797                 3.9111
 Frc consts  --      1.0390                 1.2443                 2.8510
 IR Inten    --      3.4806                 8.9470                18.4862

                     55                     56                     57
                      A                      A                      A
 Frequencies --   1144.2420              1148.8922              1160.5358
 Red. masses --      2.4775                 2.0153                 3.4160
 Frc consts  --      1.9112                 1.5673                 2.7107
 IR Inten    --      3.7924                18.6683                 1.2493

                     58                     59                     60
                      A                      A                      A
 Frequencies --   1174.1404              1185.8366              1221.5615
 Red. masses --      1.2266                 1.1634                 3.1304
 Frc consts  --      0.9963                 0.9639                 2.7522
 IR Inten    --      4.8535                 1.1212                37.4924

                     61                     62                     63
                      A                      A                      A
 Frequencies --   1261.6678              1283.3312              1299.6327
 Red. masses --      1.3625                 2.3210                 1.7334
 Frc consts  --      1.2779                 2.2521                 1.7250
 IR Inten    --     68.2327                38.0156                48.1120

                     64                     65                     66
                      A                      A                      A
 Frequencies --   1316.3693              1325.9437              1355.4933
 Red. masses --      1.6649                 1.2678                 1.4033
 Frc consts  --      1.6998                 1.3133                 1.5191
 IR Inten    --      5.4436                 9.4915                41.3549

                     67                     68                     69
                      A                      A                      A
 Frequencies --   1384.4045              1394.5456              1398.5584
 Red. masses --      1.6818                 1.6879                 2.5061
 Frc consts  --      1.8991                 1.9340                 2.8881
 IR Inten    --     78.6011                28.4176                22.2079

                     70                     71                     72
                      A                      A                      A
 Frequencies --   1403.2293              1426.3414              1442.6217
 Red. masses --      5.5994                 1.7155                 1.4520
 Frc consts  --      6.4961                 2.0563                 1.7804
 IR Inten    --      5.7746                44.6421                15.5181

                     73                     74                     75
                      A                      A                      A
 Frequencies --   1449.2944              1498.4227              1505.6615
 Red. masses --      1.6887                 2.3567                 1.9827
 Frc consts  --      2.0899                 3.1176                 2.6483
 IR Inten    --     30.6612                39.8816                32.3029

                     76                     77                     78
                      A                      A                      A
 Frequencies --   1509.2081              1518.0532              1519.5759
 Red. masses --      1.4813                 1.1350                 1.1562
 Frc consts  --      1.9879                 1.5411                 1.5731
 IR Inten    --     11.8546                 7.7992                24.6206

                     79                     80                     81
                      A                      A                      A
 Frequencies --   1525.6225              1529.5863              1534.8650
 Red. masses --      2.4350                 1.0801                 1.1416
 Frc consts  --      3.3391                 1.4890                 1.5846
 IR Inten    --      1.7025                 6.0107                15.0249

                     82                     83                     84
                      A                      A                      A
 Frequencies --   1539.4266              1645.7560              1671.4698
 Red. masses --      1.0838                 6.4599                 7.4984
 Frc consts  --      1.5132                10.3087                12.3428
 IR Inten    --      1.3279                 0.6289                 2.0681

                     85                     86                     87
                      A                      A                      A
 Frequencies --   1687.8158              1694.5851              1785.6805
 Red. masses --      7.8482                 1.0939                 7.5828
 Frc consts  --     13.1725                 1.8508                14.2458
 IR Inten    --      0.3758                46.2583               177.3029

                     88                     89                     90
                      A                      A                      A
 Frequencies --   1798.5734              3041.7798              3044.8048
 Red. masses --      7.9097                 1.0673                 1.0365
 Frc consts  --     15.0753                 5.8180                 5.6613
 IR Inten    --    459.1992                33.8398                34.9575

                     91                     92                     93
                      A                      A                      A
 Frequencies --   3047.0939              3071.7412              3097.1989
 Red. masses --      1.0606                 1.0614                 1.1043
 Frc consts  --      5.8020                 5.9009                 6.2415
 IR Inten    --     34.8069                29.3705                24.6617

                     94                     95                     96
                      A                      A                      A
 Frequencies --   3102.0827              3106.6921              3121.2283
 Red. masses --      1.1012                 1.0977                 1.1016
 Frc consts  --      6.2432                 6.2422                 6.3229
 IR Inten    --     16.2456                 7.8159                17.1078

                     97                     98                     99
                      A                      A                      A
 Frequencies --   3134.1510              3188.8013              3201.0184
 Red. masses --      1.1030                 1.0856                 1.0897
 Frc consts  --      6.3838                 6.5042                 6.5789
 IR Inten    --      3.7403                 1.9141                12.9625

                    100                    101                    102
                      A                      A                      A
 Frequencies --   3211.2301              3223.6220              3477.6325
 Red. masses --      1.0947                 1.0953                 1.0501
 Frc consts  --      6.6513                 6.7063                 7.4822
 IR Inten    --     25.7892                10.7491                 1.1635

                    103                    104                    105
                      A                      A                      A
 Frequencies --   3561.2690              3586.3082              3593.2671
 Red. masses --      1.0926                 1.0763                 1.0757
 Frc consts  --      8.1642                 8.1558                 8.1830
 IR Inten    --      3.0732                20.8753                24.0493

 - Thermochemistry -
 -------------------
 Temperature   298.150 Kelvin.  Pressure   1.00000 Atm.
 Atom     1 has atomic number  6 and mass  12.00000

 Molecular mass:   275.12699 amu.
 Principal axes and moments of inertia in atomic units:
                           1         2         3
     Eigenvalues --  3588.305726686.357448279.30785
           X            0.99976   0.02016  -0.00840
           Y           -0.02037   0.99947  -0.02550
           Z            0.00788   0.02566   0.99964
 This molecule is an asymmetric top.
 Rotational symmetry number  1.
 Warning -- assumption of classical behavior for rotation
           may cause significant error
 Rotational temperatures (Kelvin)      0.02414     0.01295     0.01046
 Rotational constants (GHZ):           0.50295     0.26991     0.21798
 Zero-point vibrational energy     800438.2 (Joules/Mol)
                                  191.30933 (Kcal/Mol)
 Warning -- explicit consideration of  30 degrees of freedom as
           vibrations may cause significant error
 Vibrational temperatures:     15.61    56.00    77.77    97.77   115.54
          (Kelvin)            140.43   166.37   186.32   239.70   256.27
                              271.44   288.06   318.88   343.20   400.77
                              415.42   433.13   479.39   492.06   527.38
                              629.94   650.48   706.61   722.73   726.89
                              807.90   813.88   840.79   845.66   871.74
                              922.19   946.85   990.07  1013.15  1076.40
                             1087.01  1092.69  1098.10  1200.93  1225.60
                             1243.40  1255.93  1284.15  1300.08  1336.24
                             1396.48  1402.83  1465.11  1496.32  1513.01
                             1543.86  1558.40  1567.29  1600.38  1646.31
                             1653.00  1669.75  1689.33  1706.15  1757.55
                             1815.26  1846.43  1869.88  1893.96  1907.74
                             1950.25  1991.85  2006.44  2012.21  2018.93
                             2052.19  2075.61  2085.21  2155.90  2166.31
                             2171.41  2184.14  2186.33  2195.03  2200.73
                             2208.33  2214.89  2367.88  2404.87  2428.39
                             2438.13  2569.20  2587.75  4376.44  4380.79
                             4384.09  4419.55  4456.18  4463.21  4469.84
                             4490.75  4509.34  4587.97  4605.55  4620.24
                             4638.07  5003.54  5123.87  5159.90  5169.91

 Zero-point correction=                           0.304871 (Hartree/Particle)
 Thermal correction to Energy=                    0.323683
 Thermal correction to Enthalpy=                  0.324627
 Thermal correction to Gibbs Free Energy=         0.256349
 Sum of electronic and zero-point Energies=           -933.431071
 Sum of electronic and thermal Energies=              -933.412259
 Sum of electronic and thermal Enthalpies=            -933.411315
 Sum of electronic and thermal Free Energies=         -933.479594

                     E (Thermal)             CV                S
                      KCal/Mol        Cal/Mol-Kelvin    Cal/Mol-Kelvin
 Total                  203.114             71.278            143.705
 Electronic               0.000              0.000              0.000
 Translational            0.889              2.981             42.735
 Rotational               0.889              2.981             33.651
 Vibrational            201.337             65.316             67.319
 Vibration     1          0.593              1.987              7.849
 Vibration     2          0.594              1.981              5.313
 Vibration     3          0.596              1.976              4.663
 Vibration     4          0.598              1.969              4.212
 Vibration     5          0.600              1.963              3.883
 Vibration     6          0.603              1.951              3.502
 Vibration     7          0.608              1.936              3.172
 Vibration     8          0.612              1.924              2.953
 Vibration     9          0.624              1.884              2.474
 Vibration    10          0.629              1.869              2.348
 Vibration    11          0.633              1.855              2.241
 Vibration    12          0.638              1.840              2.131
 Vibration    13          0.648              1.808              1.946
 Vibration    14          0.657              1.782              1.814
 Vibration    15          0.679              1.713              1.543
 Vibration    16          0.685              1.695              1.481
 Vibration    17          0.693              1.672              1.411
 Vibration    18          0.715              1.609              1.245
 Vibration    19          0.721              1.592              1.203
 Vibration    20          0.739              1.541              1.094
 Vibration    21          0.798              1.388              0.833
 Vibration    22          0.811              1.356              0.789
 Vibration    23          0.847              1.270              0.681
 Vibration    24          0.858              1.245              0.652
 Vibration    25          0.860              1.238              0.645
 Vibration    26          0.917              1.115              0.521
 Vibration    27          0.922              1.106              0.513
 Vibration    28          0.941              1.065              0.477
 Vibration    29          0.945              1.058              0.471
 Vibration    30          0.965              1.019              0.440

                           ! Non-Optimized Parameters !
 Normal termination of Gaussian 16 at Sat Dec 12 15:59:48 2020.

 ----------------------------------------------------------------------
 # B3LYP/6-311++G(d,p) empiricaldispersion=gd3bj scf=xqc pop=npa geom=c
 heck
 ----------------------------------------------------------------------

 ----------------------------------------
 CID_120379916_JID_10197_Energie_neutraal
 ----------------------------------------
 Structure from the checkpoint file:  "JID_10197.chk"
 Charge =  0 Multiplicity = 1

 SCF Done:  E(RB3LYP) =  -934.007639689     A.U. after   16 cycles
 Normal termination of Gaussian 16 at Sat Dec 12 16:09:56 2020.

 ----------------------------------------------------------------------
 # B3LYP/6-311++G(d,p) empiricaldispersion=gd3bj scf=xqc pop=npa geom=c
 heck
 ----------------------------------------------------------------------

 --------------------------------------
 CID_120379916_JID_10197_Energie_kation
 --------------------------------------
 Structure from the checkpoint file:  "JID_10197.chk"
 Charge =  1 Multiplicity = 2

 SCF Done:  E(UB3LYP) =  -933.723908889     A.U. after   28 cycles
 Normal termination of Gaussian 16 at Sat Dec 12 16:34:53 2020.
 Gaussian 16:  ES64L-G16RevA.03 25-Dec-2016

 ----------------------------------------------------------------------
 # B3LYP/6-311++G(d,p) empiricaldispersion=gd3bj scf=xqc pop=npa geom=c
 heck
 ----------------------------------------------------------------------

 -------------------------------------
 CID_120379916_JID_10197_Energie_anion
 -------------------------------------
 Structure from the checkpoint file:  "JID_10197.chk"
 Charge = -1 Multiplicity = 2

                         Standard orientation:
 ---------------------------------------------------------------------
 Center     Atomic      Atomic             Coordinates (Angstroms)
 Number     Number       Type             X           Y           Z
 ---------------------------------------------------------------------
      1          6           0        0.510403   -2.096145    1.613721
      2          6           0        0.959634   -0.765841    1.097745
      3          6           0        0.294427    0.419871    1.133496
      4          8           0        1.018461    1.436901    0.532343
      5          6           0        2.188081    0.869740    0.091527
      6          6           0        3.213065    1.519358   -0.580993
      7          6           0        4.310179    0.736078   -0.942251
      8          6           0        4.359792   -0.636027   -0.637162
      9          6           0        3.317351   -1.266080    0.038175
     10          6           0        2.207758   -0.498095    0.413166
     11          6           0       -1.049142    0.824471    1.674027
     12          7           0       -1.594617    2.016708    1.038975
     13          6           0       -2.247143    2.107944   -0.162183
     14          8           0       -2.475876    3.189359   -0.685356
     15          6           0       -2.728682    0.804968   -0.810021
     16          7           0       -1.616203   -0.045245   -1.207590
     17          6           0       -1.578374   -1.408737   -1.224059
     18          8           0       -0.575073   -2.025415   -1.565516
     19          6           0       -2.839420   -2.144442   -0.763691
     20          7           0       -2.985481   -2.016531    0.696665
     21          1           0        0.309960   -2.779073    0.779852
     22          1           0        1.279548   -2.555346    2.246168
     23          1           0       -0.396799   -2.005328    2.219682
     24          1           0        3.157077    2.577912   -0.811284
     25          1           0        5.139669    1.195911   -1.471075
     26          1           0        5.228380   -1.214124   -0.938772
     27          1           0        3.360667   -2.327746    0.262257
     28          1           0       -1.752970   -0.005772    1.562879
     29          1           0       -0.982295    1.040772    2.748180
     30          1           0       -1.189897    2.901876    1.319852
     31          1           0       -3.347234    0.252958   -0.098280
     32          1           0       -3.339383    1.108086   -1.666788
     33          1           0       -0.763100    0.396748   -1.530482
     34          1           0       -3.728350   -1.710808   -1.234832
     35          1           0       -2.734644   -3.176770   -1.120323
     36          1           0       -3.865966   -2.436197    0.990333
     37          1           0       -2.248208   -2.556750    1.145527
 ---------------------------------------------------------------------

 SCF Done:  E(UB3LYP) =  -934.003144235     A.U. after   33 cycles
 SCF Done:  E(UB3LYP) =  -934.003144235     a.u. after    1 cycles

 The electronic state is 2-A.
 Alpha  occ. eigenvalues --  -19.09306 -19.00933 -18.98852 -14.25638 -14.24639
 Alpha  occ. eigenvalues --  -14.19789 -10.19316 -10.17098 -10.13754 -10.13599
 Alpha  occ. eigenvalues --  -10.13333 -10.12626 -10.10087 -10.08899 -10.08739
 Alpha  occ. eigenvalues --  -10.08530 -10.08492 -10.08465 -10.08373 -10.07284
 Alpha  occ. eigenvalues --   -1.01704  -0.96054  -0.94000  -0.84787  -0.83033
 Alpha  occ. eigenvalues --   -0.78503  -0.76820  -0.72465  -0.67421  -0.65729
 Alpha  occ. eigenvalues --   -0.64609  -0.62558  -0.59971  -0.59413  -0.53447
 Alpha  occ. eigenvalues --   -0.51562  -0.49707  -0.48907  -0.47832  -0.43378
 Alpha  occ. eigenvalues --   -0.42485  -0.41671  -0.41023  -0.39997  -0.38674
 Alpha  occ. eigenvalues --   -0.37781  -0.37006  -0.36679  -0.35427  -0.34845
 Alpha  occ. eigenvalues --   -0.34210  -0.33530  -0.32667  -0.32419  -0.31893
 Alpha  occ. eigenvalues --   -0.31749  -0.31279  -0.30552  -0.29528  -0.28879
 Alpha  occ. eigenvalues --   -0.28734  -0.27377  -0.27212  -0.26381  -0.24841
 Alpha  occ. eigenvalues --   -0.19595  -0.18675  -0.17805  -0.16535  -0.16350
 Alpha  occ. eigenvalues --   -0.15297  -0.15033  -0.12655   0.04093
 Alpha virt. eigenvalues --    0.05667   0.06350   0.07047   0.07336   0.08159
 Alpha virt. eigenvalues --    0.08578   0.08731   0.08922   0.09491   0.09909
 Alpha virt. eigenvalues --    0.10429   0.10481   0.10993   0.11682   0.12046

  Beta  occ. eigenvalues --  -19.09300 -19.00929 -18.98794 -14.25634 -14.24637
  Beta  occ. eigenvalues --  -14.19684 -10.19313 -10.17058 -10.13767 -10.13543
  Beta  occ. eigenvalues --  -10.13325 -10.12613 -10.10063 -10.08842 -10.08708
  Beta  occ. eigenvalues --  -10.08509 -10.08498 -10.08460 -10.08311 -10.07251
  Beta  occ. eigenvalues --   -1.01681  -0.96046  -0.93906  -0.84770  -0.83002
  Beta  occ. eigenvalues --   -0.78343  -0.76751  -0.72402  -0.67364  -0.65631
  Beta  occ. eigenvalues --   -0.64564  -0.62509  -0.59817  -0.59346  -0.53374
  Beta  occ. eigenvalues --   -0.51528  -0.49666  -0.48848  -0.47779  -0.43348
  Beta  occ. eigenvalues --   -0.42450  -0.41574  -0.40972  -0.39955  -0.38613
  Beta  occ. eigenvalues --   -0.37680  -0.36917  -0.36619  -0.35376  -0.34778
  Beta  occ. eigenvalues --   -0.34157  -0.33469  -0.32630  -0.32387  -0.31843
  Beta  occ. eigenvalues --   -0.31718  -0.31217  -0.30511  -0.29487  -0.28827
  Beta  occ. eigenvalues --   -0.28671  -0.27337  -0.27058  -0.26192  -0.24809
  Beta  occ. eigenvalues --   -0.19380  -0.18618  -0.17786  -0.16412  -0.16264
  Beta  occ. eigenvalues --   -0.15137  -0.14948  -0.12401
  Beta virt. eigenvalues --    0.06209   0.06319   0.06898   0.07470   0.07742
  Beta virt. eigenvalues --    0.08486   0.08683   0.08879   0.08987   0.09643
  Beta virt. eigenvalues --    0.10161   0.10712   0.10954   0.11272   0.11771

 Mulliken charges and spin densities:
               1          2
     1  C    0.570223  -1.206275
     2  C    0.297247   0.387225
     3  C   -0.665634   0.062056
     4  O    0.056663  -0.003320
     5  C   -0.650904   0.139083
     6  C   -0.684718   0.137373
     7  C   -0.242492  -0.059535
     8  C   -0.256252  -0.061028
     9  C   -0.244093   0.029199
    10  C    0.888613   0.295579
    11  C   -0.040452  -0.451956
    12  N   -0.106092   0.020999
    13  C   -0.079056   0.022267
    14  O   -0.322976   0.004572
    15  C   -0.038219  -0.243862
    16  N    0.019984   0.031874
    17  C    0.009433  -0.104695
    18  O   -0.304806   0.043354
    19  C    0.591621  -0.944865
    20  N   -0.236922  -0.201377
    21  H    0.105114   0.107732
    22  H   -0.115775   0.278593
    23  H   -0.385462   0.523330
    24  H    0.136618   0.016040
    25  H    0.127555   0.006979
    26  H    0.098922   0.044673
    27  H    0.061505   0.084155
    28  H    0.487038  -0.209392
    29  H   -0.030263   0.231704
    30  H    0.300205   0.020433
    31  H    0.074370   0.149994
    32  H    0.151272   0.053633
    33  H    0.287226   0.023891
    34  H   -0.243271   0.417453
    35  H   -0.067038   0.258784
    36  H   -0.715823   1.016126
    37  H    0.166638   0.079206
 Sum of Mulliken charges =  -1.00000   1.00000

 Dipole moment (field-independent basis, Debye):
    X=              7.4691    Y=              5.7917    Z=             -1.3939  Tot=              9.5537
 Quadrupole moment (field-independent basis, Debye-Ang):
   XX=           -191.1165   YY=           -174.3543   ZZ=           -149.2083
   XY=            -13.8687   XZ=              6.3115   YZ=             11.4168

 Summary of Natural Population Analysis:

                                       Natural Population
                Natural  -----------------------------------------------
    Atom  No    Charge         Core      Valence    Rydberg      Total
 -----------------------------------------------------------------------
      C    1   -0.29649      0.99963     2.29066    0.00620     3.29649
      C    2   -0.04965      0.99941     2.04027    0.00996     3.04965
      C    3    0.15954      0.99937     1.82447    0.01663     2.84046
      O    4   -0.25674      0.99985     3.24715    0.00973     4.25674
      C    5    0.19476      0.99936     1.79562    0.01027     2.80524
      C    6   -0.13111      0.99955     2.11693    0.01463     3.13111
      C    7   -0.10566      0.99959     2.09537    0.01069     3.10566
      C    8   -0.11477      0.99958     2.10502    0.01016     3.11477
      C    9   -0.08182      0.99954     2.07372    0.00856     3.08182
      C   10   -0.05628      0.99948     2.04303    0.01377     3.05628
      C   11   -0.12219      0.99956     2.11101    0.01161     3.12219
      N   12   -0.31051      0.99967     2.80172    0.00912     3.81051
      C   13    0.34039      0.99968     1.63717    0.02276     2.65961
      O   14   -0.31854      0.99988     3.31287    0.00579     4.31854
      C   15   -0.13638      0.99957     2.12627    0.01054     3.13638
      N   16   -0.31984      0.99966     2.81127    0.00891     3.81984
      C   17    0.34375      0.99967     1.63257    0.02401     2.65625
      O   18   -0.31569      0.99988     3.30998    0.00583     4.31569
      C   19   -0.12981      0.99960     2.11834    0.01187     3.12981
      N   20   -0.43127      0.99977     2.91848    0.01302     3.93127
      H   21    0.11538      0.00000     0.38344    0.00118     0.38462
      H   22    0.10411      0.00000     0.39482    0.00107     0.39589
      H   23    0.10491      0.00000     0.39372    0.00137     0.39509
      H   24    0.10404      0.00000     0.39476    0.00120     0.39596
      H   25    0.09661      0.00000     0.40246    0.00093     0.40339
      H   26    0.09774      0.00000     0.40148    0.00078     0.40226
      H   27    0.10276      0.00000     0.39634    0.00091     0.39724
      H   28    0.12947      0.00000     0.36834    0.00219     0.37053
      H   29    0.10423      0.00000     0.39463    0.00113     0.39577
      H   30    0.19398      0.00000     0.30378    0.00224     0.30602
      H   31    0.12339      0.00000     0.37471    0.00190     0.37661
      H   32    0.10157      0.00000     0.39732    0.00111     0.39843
      H   33    0.19479      0.00000     0.30186    0.00336     0.30521
      H   34    0.09759      0.00000     0.40093    0.00148     0.40241
      H   35    0.09633      0.00000     0.40229    0.00138     0.40367
      H   36    0.19085      0.00000     0.28545    0.02370     0.30915
      H   37    0.18068      0.00000     0.31473    0.00459     0.31932
 =======================================================================
   * Total *    0.00013     19.99229    52.72299    0.28459    72.99987

 Normal termination of Gaussian 16 at Sat Dec 12 17:03:48 2020.
