 Gaussian 16, Revision A.03,

 -----------------------------------------------------------
 # opt freq B3LYP/6-31G(d) empiricaldispersion=gd3bj scf=xqc
 -----------------------------------------------------------

 -----------------------------
 CID_12339564_JID_239_neutraal
 -----------------------------
 Symbolic Z-matrix:
 Charge =  0 Multiplicity = 1

 SCF Done:  E(RB3LYP) =  -765.657745360     A.U. after   15 cycles
 SCF Done:  E(RB3LYP) =  -765.659028266     A.U. after   12 cycles
 SCF Done:  E(RB3LYP) =  -765.659201663     A.U. after   12 cycles
 SCF Done:  E(RB3LYP) =  -765.659539728     A.U. after   12 cycles
 SCF Done:  E(RB3LYP) =  -765.659588799     A.U. after   11 cycles
 SCF Done:  E(RB3LYP) =  -765.659612258     A.U. after   12 cycles
 SCF Done:  E(RB3LYP) =  -765.659624821     A.U. after   10 cycles
 SCF Done:  E(RB3LYP) =  -765.659632977     A.U. after   10 cycles
 SCF Done:  E(RB3LYP) =  -765.659636242     A.U. after    9 cycles
 SCF Done:  E(RB3LYP) =  -765.659637636     A.U. after    8 cycles
 SCF Done:  E(RB3LYP) =  -765.659638426     A.U. after    8 cycles
 SCF Done:  E(RB3LYP) =  -765.659639611     A.U. after    9 cycles
 SCF Done:  E(RB3LYP) =  -765.659640474     A.U. after    9 cycles
 SCF Done:  E(RB3LYP) =  -765.659640718     A.U. after    8 cycles
 SCF Done:  E(RB3LYP) =  -765.659640834     A.U. after    7 cycles
 Optimization completed.
    -- Stationary point found.
 Normal termination of Gaussian 16 at Tue Dec  8 10:23:27 2020.

 --------------------------------------------------------------------
 #N Geom=AllCheck Guess=TCheck SCRF=Check GenChk RB3LYP/6-31G(d) Freq
 --------------------------------------------------------------------

 Structure from the checkpoint file:  "JID_239.chk"
 -----------------------------
 CID_12339564_JID_239_neutraal
 -----------------------------
 Charge =  0 Multiplicity = 1

 SCF Done:  E(RB3LYP) =  -765.659640834     A.U. after    1 cycles

  Exact polarizability: 117.423  -4.250 109.955  10.561  -1.549  75.628
 Approx polarizability: 170.434  -8.606 183.279  27.310  -2.149 118.706

                      1                      2                      3
                      A                      A                      A
 Frequencies --     32.2340                79.6859               105.0493
 Red. masses --      3.2633                 3.9765                 1.0780
 Frc consts  --      0.0020                 0.0149                 0.0070
 IR Inten    --      0.9098                 0.1308                 0.1069

                      4                      5                      6
                      A                      A                      A
 Frequencies --    111.7559               157.3309               191.6402
 Red. masses --      2.2498                 2.2245                 2.7571
 Frc consts  --      0.0166                 0.0324                 0.0597
 IR Inten    --      0.1541                 0.1533                 0.0922

                      7                      8                      9
                      A                      A                      A
 Frequencies --    228.6516               292.2314               297.4487
 Red. masses --      1.6049                 2.0937                 2.8854
 Frc consts  --      0.0494                 0.1053                 0.1504
 IR Inten    --      0.0730                 0.2917                 0.3329

                     10                     11                     12
                      A                      A                      A
 Frequencies --    358.3867               396.5310               453.2905
 Red. masses --      2.4753                 2.3003                 2.5348
 Frc consts  --      0.1873                 0.2131                 0.3069
 IR Inten    --      0.0633                 0.1416                 0.7780

                     13                     14                     15
                      A                      A                      A
 Frequencies --    516.3530               549.9135               622.9019
 Red. masses --      6.1227                 4.5341                 4.1930
 Frc consts  --      0.9618                 0.8079                 0.9586
 IR Inten    --     10.6546                 1.5225                 2.2686

                     16                     17                     18
                      A                      A                      A
 Frequencies --    685.4897               709.8549               753.1932
 Red. masses --      2.9204                 7.4259                 1.7725
 Frc consts  --      0.8085                 2.2046                 0.5925
 IR Inten    --      3.4954                 4.4746                 1.7790

                     19                     20                     21
                      A                      A                      A
 Frequencies --    788.1081               818.6039               877.0167
 Red. masses --      2.3900                 2.5336                 2.1840
 Frc consts  --      0.8746                 1.0003                 0.9897
 IR Inten    --     23.5190                 2.1391                12.6013

                     22                     23                     24
                      A                      A                      A
 Frequencies --    906.3662               922.7781               949.3923
 Red. masses --      1.4384                 1.6579                 1.9625
 Frc consts  --      0.6962                 0.8318                 1.0422
 IR Inten    --      5.8082                 2.1896                 2.1191

                     25                     26                     27
                      A                      A                      A
 Frequencies --    981.6463              1061.6815              1072.4659
 Red. masses --      1.6603                 1.4141                 2.0327
 Frc consts  --      0.9427                 0.9391                 1.3775
 IR Inten    --      1.2451                 1.9685                 1.8475

                     28                     29                     30
                      A                      A                      A
 Frequencies --   1088.1061              1131.4316              1141.8278
 Red. masses --      1.5237                 1.9296                 1.8691
 Frc consts  --      1.0629                 1.4554                 1.4358
 IR Inten    --      4.0780                 3.1681                 7.4495

                     31                     32                     33
                      A                      A                      A
 Frequencies --   1179.2014              1231.3750              1271.1418
 Red. masses --      2.7415                 1.7903                 1.3142
 Frc consts  --      2.2460                 1.5994                 1.2511
 IR Inten    --      3.7176                 1.2122                 6.9270

                     34                     35                     36
                      A                      A                      A
 Frequencies --   1277.3377              1337.5489              1366.4754
 Red. masses --      1.3168                 1.1609                 1.5672
 Frc consts  --      1.2659                 1.2237                 1.7242
 IR Inten    --      2.3475                 1.6277                 5.4237

                     37                     38                     39
                      A                      A                      A
 Frequencies --   1383.4336              1398.0044              1414.4604
 Red. masses --      2.5662                 1.3283                 1.6549
 Frc consts  --      2.8938                 1.5295                 1.9508
 IR Inten    --      0.9639                 4.5056                 3.7580

                     40                     41                     42
                      A                      A                      A
 Frequencies --   1441.4507              1444.0408              1480.1373
 Red. masses --      1.2470                 1.2532                 4.5937
 Frc consts  --      1.5265                 1.5396                 5.9295
 IR Inten    --      3.0204                 4.7168                17.1543

                     43                     44                     45
                      A                      A                      A
 Frequencies --   1510.9204              1512.0147              1514.1876
 Red. masses --      1.0870                 1.0635                 1.0726
 Frc consts  --      1.4620                 1.4325                 1.4489
 IR Inten    --      1.0544                 9.4067                 4.5703

                     46                     47                     48
                      A                      A                      A
 Frequencies --   1522.5387              1524.8455              1536.2704
 Red. masses --      1.0687                 1.0998                 1.0614
 Frc consts  --      1.4596                 1.5066                 1.4759
 IR Inten    --      4.2699                 6.0599                15.9199

                     49                     50                     51
                      A                      A                      A
 Frequencies --   1540.3674              1620.2729              3031.4268
 Red. masses --      1.0607                 5.9889                 1.0616
 Frc consts  --      1.4828                 9.2634                 5.7478
 IR Inten    --      1.1772                 2.9590                22.1053

                     52                     53                     54
                      A                      A                      A
 Frequencies --   3041.6774              3047.0923              3050.4362
 Red. masses --      1.0627                 1.0428                 1.0556
 Frc consts  --      5.7926                 5.7045                 5.7873
 IR Inten    --     25.1900                18.3270                24.7104

                     55                     56                     57
                      A                      A                      A
 Frequencies --   3052.1733              3069.6753              3076.0778
 Red. masses --      1.0408                 1.1001                 1.1021
 Frc consts  --      5.7124                 6.1073                 6.1440
 IR Inten    --     24.2980                22.6897                35.5623

                     58                     59                     60
                      A                      A                      A
 Frequencies --   3095.0418              3110.7112              3111.6858
 Red. masses --      1.0986                 1.0995                 1.1008
 Frc consts  --      6.2004                 6.2687                 6.2800
 IR Inten    --     44.8361                23.3935                35.1242

                     61                     62                     63
                      A                      A                      A
 Frequencies --   3121.2657              3132.1124              3182.6251
 Red. masses --      1.1009                 1.1020                 1.0916
 Frc consts  --      6.3190                 6.3698                 6.5144
 IR Inten    --     53.9629                11.8142                14.7817

 - Thermochemistry -
 -------------------
 Temperature   298.150 Kelvin.  Pressure   1.00000 Atm.
 Atom     1 has atomic number  6 and mass  12.00000

 Molecular mass:   155.07687 amu.
 Principal axes and moments of inertia in atomic units:
                           1         2         3
     Eigenvalues --   932.865142414.125182895.23498
           X            0.99993   0.00580  -0.01009
           Y           -0.00573   0.99996   0.00656
           Z            0.01013  -0.00651   0.99993
 This molecule is an asymmetric top.
 Rotational symmetry number  1.
 Warning -- assumption of classical behavior for rotation
           may cause significant error
 Rotational temperatures (Kelvin)      0.09285     0.03588     0.02992
 Rotational constants (GHZ):           1.93462     0.74758     0.62335
 Zero-point vibrational energy     519833.6 (Joules/Mol)
                                  124.24321 (Kcal/Mol)
 Warning -- explicit consideration of  14 degrees of freedom as
           vibrations may cause significant error
 Vibrational temperatures:     46.38   114.65   151.14   160.79   226.36
          (Kelvin)            275.73   328.98   420.46   427.96   515.64
                              570.52   652.18   742.92   791.20   896.22
                              986.27  1021.32  1083.68  1133.91  1177.79
                             1261.83  1304.06  1327.67  1365.96  1412.37
                             1527.52  1543.04  1565.54  1627.88  1642.84
                             1696.61  1771.67  1828.89  1837.80  1924.43
                             1966.05  1990.45  2011.42  2035.09  2073.93
                             2077.65  2129.59  2173.88  2175.45  2178.58
                             2190.59  2193.91  2210.35  2216.25  2331.21
                             4361.55  4376.30  4384.09  4388.90  4391.40
                             4416.58  4425.79  4453.07  4475.62  4477.02
                             4490.81  4506.41  4579.09

 Zero-point correction=                           0.197994 (Hartree/Particle)
 Thermal correction to Energy=                    0.208959
 Thermal correction to Enthalpy=                  0.209903
 Thermal correction to Gibbs Free Energy=         0.160445
 Sum of electronic and zero-point Energies=           -765.461647
 Sum of electronic and thermal Energies=              -765.450682
 Sum of electronic and thermal Enthalpies=            -765.449737
 Sum of electronic and thermal Free Energies=         -765.499196

                     E (Thermal)             CV                S
                      KCal/Mol        Cal/Mol-Kelvin    Cal/Mol-Kelvin
 Total                  131.124             39.948            104.095
 Electronic               0.000              0.000              0.000
 Translational            0.889              2.981             41.026
 Rotational               0.889              2.981             30.256
 Vibrational            129.346             33.986             32.812
 Vibration     1          0.594              1.983              5.687
 Vibration     2          0.600              1.963              3.899
 Vibration     3          0.605              1.945              3.358
 Vibration     4          0.607              1.940              3.238
 Vibration     5          0.621              1.894              2.582
 Vibration     6          0.634              1.851              2.212
 Vibration     7          0.651              1.797              1.890
 Vibration     8          0.688              1.688              1.461
 Vibration     9          0.691              1.678              1.431
 Vibration    10          0.733              1.558              1.129
 Vibration    11          0.763              1.478              0.975
 Vibration    12          0.812              1.354              0.786
 Vibration    13          0.871              1.214              0.618
 Vibration    14          0.905              1.140              0.544

 Optimization completed.
    -- Stationary point found.
 Normal termination of Gaussian 16 at Tue Dec  8 10:27:59 2020.

 ----------------------------------------------------------------------
 # B3LYP/6-311++G(d,p) empiricaldispersion=gd3bj scf=xqc pop=npa geom=c
 heck
 ----------------------------------------------------------------------

 -------------------------------------
 CID_12339564_JID_239_Energie_neutraal
 -------------------------------------
 Structure from the checkpoint file:  "JID_239.chk"
 Charge =  0 Multiplicity = 1

 SCF Done:  E(RB3LYP) =  -765.784704065     A.U. after   15 cycles
 Normal termination of Gaussian 16 at Tue Dec  8 10:30:08 2020.

 ----------------------------------------------------------------------
 # B3LYP/6-311++G(d,p) empiricaldispersion=gd3bj scf=xqc pop=npa geom=c
 heck
 ----------------------------------------------------------------------

 -----------------------------------
 CID_12339564_JID_239_Energie_kation
 -----------------------------------
 Structure from the checkpoint file:  "JID_239.chk"
 Charge =  1 Multiplicity = 2

 SCF Done:  E(UB3LYP) =  -765.460625049     A.U. after   26 cycles
 Normal termination of Gaussian 16 at Tue Dec  8 10:37:19 2020.
 Gaussian 16:  ES64L-G16RevA.03 25-Dec-2016

 ----------------------------------------------------------------------
 # B3LYP/6-311++G(d,p) empiricaldispersion=gd3bj scf=xqc pop=npa geom=c
 heck
 ----------------------------------------------------------------------

 ----------------------------------
 CID_12339564_JID_239_Energie_anion
 ----------------------------------
 Structure from the checkpoint file:  "JID_239.chk"
 Charge = -1 Multiplicity = 2

                         Standard orientation:
 ---------------------------------------------------------------------
 Center     Atomic      Atomic             Coordinates (Angstroms)
 Number     Number       Type             X           Y           Z
 ---------------------------------------------------------------------
      1          6           0        3.183646    0.977699   -0.407524
      2          6           0        2.395241   -0.207561   -0.973154
      3          6           0        2.047304   -1.276458    0.071199
      4          6           0        1.017780   -0.825667    1.129961
      5          6           0       -0.332065   -0.515906    0.539280
      6          6           0       -0.872307    0.731074    0.315291
      7         16           0       -2.429583    0.540109   -0.430173
      8          7           0       -2.381261   -1.143573   -0.451647
      9          6           0       -1.240073   -1.524315    0.080107
     10          6           0       -0.293100    2.082837    0.604294
     11          1           0        2.620471    1.515117    0.362892
     12          1           0        3.431477    1.698599   -1.194494
     13          1           0        4.124416    0.642375    0.046096
     14          1           0        1.470596    0.149950   -1.444785
     15          1           0        2.983496   -0.677231   -1.771704
     16          1           0        1.652385   -2.163743   -0.440373
     17          1           0        2.963793   -1.595478    0.586420
     18          1           0        0.909618   -1.625087    1.874085
     19          1           0        1.400000    0.045617    1.672787
     20          1           0       -1.043004   -2.592119    0.152871
     21          1           0        0.376910    2.039680    1.468437
     22          1           0        0.287605    2.457531   -0.247241
     23          1           0       -1.074152    2.817851    0.822593
 ---------------------------------------------------------------------

 SCF Done:  E(UB3LYP) =  -765.771488553     A.U. after   33 cycles
 SCF Done:  E(UB3LYP) =  -765.771488553     a.u. after    1 cycles

 The electronic state is 2-A.
 Alpha  occ. eigenvalues --  -88.77094 -14.20625 -10.08989 -10.08911 -10.07020
 Alpha  occ. eigenvalues --  -10.06524 -10.06498 -10.05559 -10.05192 -10.04315
 Alpha  occ. eigenvalues --   -7.85583  -5.81967  -5.81484  -5.81128  -0.84013
 Alpha  occ. eigenvalues --   -0.70848  -0.68089  -0.64546  -0.60244  -0.58613
 Alpha  occ. eigenvalues --   -0.53318  -0.46821  -0.45586  -0.42177  -0.36698
 Alpha  occ. eigenvalues --   -0.35277  -0.34837  -0.32085  -0.31829  -0.30214
 Alpha  occ. eigenvalues --   -0.28647  -0.28269  -0.27061  -0.26505  -0.26280
 Alpha  occ. eigenvalues --   -0.23343  -0.22007  -0.21797  -0.21132  -0.17381
 Alpha  occ. eigenvalues --   -0.14857  -0.13382   0.04921
 Alpha virt. eigenvalues --    0.07192   0.07611   0.08396   0.08932   0.10184
 Alpha virt. eigenvalues --    0.10608   0.10922   0.11246   0.11743   0.12530
 Alpha virt. eigenvalues --    0.13534   0.13865   0.14310   0.14681   0.15239

  Beta  occ. eigenvalues --  -88.77077 -14.20477 -10.08882 -10.08822 -10.06994
  Beta  occ. eigenvalues --  -10.06529 -10.06491 -10.05530 -10.05176 -10.04270
  Beta  occ. eigenvalues --   -7.85567  -5.81960  -5.81478  -5.81070  -0.83821
  Beta  occ. eigenvalues --   -0.70726  -0.67928  -0.64470  -0.60151  -0.58515
  Beta  occ. eigenvalues --   -0.53228  -0.46709  -0.45425  -0.42040  -0.36620
  Beta  occ. eigenvalues --   -0.35193  -0.34765  -0.31917  -0.31724  -0.30092
  Beta  occ. eigenvalues --   -0.28557  -0.28147  -0.26925  -0.26407  -0.26132
  Beta  occ. eigenvalues --   -0.23249  -0.21951  -0.21738  -0.21071  -0.17214
  Beta  occ. eigenvalues --   -0.14290  -0.12941
  Beta virt. eigenvalues --    0.07463   0.08069   0.08492   0.09169   0.09446
  Beta virt. eigenvalues --    0.10536   0.11042   0.11273   0.11594   0.12348
  Beta virt. eigenvalues --    0.12799   0.13806   0.14197   0.14604   0.14857

 Mulliken charges and spin densities:
               1          2
     1  C    1.618748  -2.228625
     2  C   -1.341116   1.129455
     3  C    0.989138  -1.220201
     4  C   -0.068485  -0.353039
     5  C   -0.256098   0.021262
     6  C   -0.648534   1.492148
     7  S   -0.071342  -0.017024
     8  N   -0.184858   0.078755
     9  C   -0.225859  -0.184951
    10  C    1.569461  -2.019533
    11  H   -0.154560   0.283344
    12  H   -0.413343   0.551344
    13  H   -0.304130   0.439045
    14  H    0.030933   0.123579
    15  H   -0.205900   0.359918
    16  H   -0.065020   0.183703
    17  H   -0.566998   0.709950
    18  H   -0.173984   0.359118
    19  H   -0.005716   0.120487
    20  H    0.031270   0.123163
    21  H   -0.192190   0.345059
    22  H   -0.401986   0.610264
    23  H    0.040569   0.092779
 Sum of Mulliken charges =  -1.00000   1.00000

 Dipole moment (field-independent basis, Debye):
    X=             -4.9825    Y=             -0.9857    Z=              0.8283  Tot=              5.1461
 Quadrupole moment (field-independent basis, Debye-Ang):
   XX=           -133.4659   YY=           -107.2795   ZZ=            -96.7237
   XY=             -6.0809   XZ=             -2.3063   YZ=              3.2115

 Summary of Natural Population Analysis:

                                       Natural Population
                Natural  -----------------------------------------------
    Atom  No    Charge         Core      Valence    Rydberg      Total
 -----------------------------------------------------------------------
      C    1   -0.28618      0.99967     2.28129    0.00522     3.28618
      C    2   -0.19324      0.99964     2.18481    0.00879     3.19324
      C    3   -0.18240      0.99962     2.17412    0.00866     3.18240
      C    4   -0.19783      0.99959     2.18831    0.00993     3.19783
      C    5   -0.07519      0.99941     2.06369    0.01208     3.07519
      C    6   -0.06328      0.99945     2.05052    0.01331     3.06328
      S    7    0.27861      4.99939     2.69556    0.02644     7.72139
      N    8   -0.29804      0.99974     2.78614    0.01216     3.79804
      C    9    0.02411      0.99957     1.96217    0.01415     2.97589
      C   10   -0.30431      0.99961     2.29758    0.00711     3.30431
      H   11    0.09525      0.00000     0.40298    0.00177     0.40475
      H   12    0.09991      0.00000     0.39856    0.00153     0.40009
      H   13    0.09577      0.00000     0.40259    0.00164     0.40423
      H   14    0.09662      0.00000     0.40157    0.00181     0.40338
      H   15    0.09439      0.00000     0.40457    0.00104     0.40561
      H   16    0.09493      0.00000     0.40377    0.00130     0.40507
      H   17    0.09667      0.00000     0.40129    0.00204     0.40333
      H   18    0.10257      0.00000     0.39626    0.00117     0.39743
      H   19    0.10228      0.00000     0.39625    0.00147     0.39772
      H   20    0.09266      0.00000     0.40568    0.00166     0.40734
      H   21    0.10742      0.00000     0.39125    0.00133     0.39258
      H   22    0.11605      0.00000     0.38128    0.00267     0.38395
      H   23    0.10323      0.00000     0.39591    0.00086     0.39677
 =======================================================================
   * Total *    0.00000     13.99569    27.86615    0.13816    42.00000

 Normal termination of Gaussian 16 at Tue Dec  8 10:45:31 2020.
