 Gaussian 16, Revision A.03,

 -----------------------------------------------------------
 # opt freq B3LYP/6-31G(d) empiricaldispersion=gd3bj scf=xqc
 -----------------------------------------------------------

 -------------------------------
 CID_114988513_JID_7773_neutraal
 -------------------------------
 Symbolic Z-matrix:
 Charge =  0 Multiplicity = 1

 SCF Done:  E(RB3LYP) =  -762.597716166     A.U. after   15 cycles
 SCF Done:  E(RB3LYP) =  -762.601382410     A.U. after   13 cycles
 SCF Done:  E(RB3LYP) =  -762.601869971     A.U. after   12 cycles
 SCF Done:  E(RB3LYP) =  -762.602197324     A.U. after   12 cycles
 SCF Done:  E(RB3LYP) =  -762.602261780     A.U. after   12 cycles
 SCF Done:  E(RB3LYP) =  -762.602389481     A.U. after   11 cycles
 SCF Done:  E(RB3LYP) =  -762.602406400     A.U. after   10 cycles
 SCF Done:  E(RB3LYP) =  -762.602409687     A.U. after    9 cycles
 SCF Done:  E(RB3LYP) =  -762.602410952     A.U. after    8 cycles
 SCF Done:  E(RB3LYP) =  -762.602411744     A.U. after    8 cycles
 SCF Done:  E(RB3LYP) =  -762.602411974     A.U. after    8 cycles
 SCF Done:  E(RB3LYP) =  -762.602412037     A.U. after    7 cycles
 Optimization completed.
    -- Stationary point found.
 Normal termination of Gaussian 16 at Fri Dec 11 13:06:05 2020.

 --------------------------------------------------------------------
 #N Geom=AllCheck Guess=TCheck SCRF=Check GenChk RB3LYP/6-31G(d) Freq
 --------------------------------------------------------------------

 Structure from the checkpoint file:  "JID_7773.chk"
 -------------------------------
 CID_114988513_JID_7773_neutraal
 -------------------------------
 Charge =  0 Multiplicity = 1

 SCF Done:  E(RB3LYP) =  -762.602412037     A.U. after    1 cycles

  Exact polarizability: 233.598  -0.363 146.177   6.940  -1.228  79.186
 Approx polarizability: 311.950 -10.641 274.456  11.113  -2.962 127.608

                      1                      2                      3
                      A                      A                      A
 Frequencies --     33.5655                62.1756                69.8473
 Red. masses --      5.6046                 4.4360                 3.9611
 Frc consts  --      0.0037                 0.0101                 0.0114
 IR Inten    --      0.9217                 2.4524                 0.9782

                      4                      5                      6
                      A                      A                      A
 Frequencies --     99.5950               142.9766               179.8780
 Red. masses --      4.0067                 5.9378                 3.2680
 Frc consts  --      0.0234                 0.0715                 0.0623
 IR Inten    --      4.4067                 2.9209                 2.1582

                      7                      8                      9
                      A                      A                      A
 Frequencies --    190.0159               206.2616               263.4709
 Red. masses --      5.9050                 6.4138                 5.7101
 Frc consts  --      0.1256                 0.1608                 0.2335
 IR Inten    --      3.3103                 0.6109                 0.9604

                     10                     11                     12
                      A                      A                      A
 Frequencies --    318.9251               332.4118               364.1630
 Red. masses --      1.8538                 6.6266                 6.0702
 Frc consts  --      0.1111                 0.4314                 0.4743
 IR Inten    --      3.2392                 0.1260                 1.1769

                     13                     14                     15
                      A                      A                      A
 Frequencies --    429.5034               445.2746               472.7816
 Red. masses --      5.4920                 2.8585                 3.6311
 Frc consts  --      0.5969                 0.3339                 0.4782
 IR Inten    --      3.1953                 1.1502                 2.9573

                     16                     17                     18
                      A                      A                      A
 Frequencies --    512.7934               520.5014               544.3936
 Red. masses --      3.8756                 1.9362                 4.8175
 Frc consts  --      0.6004                 0.3091                 0.8412
 IR Inten    --     16.2341                52.0914                 2.2201

                     19                     20                     21
                      A                      A                      A
 Frequencies --    586.4379               621.2774               646.4564
 Red. masses --      4.5916                 3.0176                 3.1687
 Frc consts  --      0.9304                 0.6862                 0.7802
 IR Inten    --      6.0493                 1.3289                 6.9942

                     22                     23                     24
                      A                      A                      A
 Frequencies --    663.6259               687.1256               726.2684
 Red. masses --      3.7550                 2.9287                 3.8293
 Frc consts  --      0.9743                 0.8147                 1.1901
 IR Inten    --     28.0042                22.1334                 7.5475

                     25                     26                     27
                      A                      A                      A
 Frequencies --    753.1917               777.7560               826.6274
 Red. masses --      5.1862                 2.8376                 1.5677
 Frc consts  --      1.7334                 1.0113                 0.6311
 IR Inten    --      9.7378                61.1023                 0.4408

                     28                     29                     30
                      A                      A                      A
 Frequencies --    833.6538               850.3976               889.2145
 Red. masses --      4.2529                 1.4625                 1.6853
 Frc consts  --      1.7414                 0.6231                 0.7851
 IR Inten    --     49.9559                12.0366                 9.2057

                     31                     32                     33
                      A                      A                      A
 Frequencies --    895.6960               906.4795               946.3314
 Red. masses --      2.1979                 1.4293                 1.6243
 Frc consts  --      1.0389                 0.6920                 0.8571
 IR Inten    --     10.0308                14.5226                14.1330

                     34                     35                     36
                      A                      A                      A
 Frequencies --    949.3263               952.3347               967.7981
 Red. masses --      3.1323                 3.6758                 1.6378
 Frc consts  --      1.6632                 1.9642                 0.9038
 IR Inten    --     15.9893                 8.3641                12.0001

                     37                     38                     39
                      A                      A                      A
 Frequencies --    971.5324              1028.3992              1036.2116
 Red. masses --      2.2053                 2.0560                 2.0928
 Frc consts  --      1.2264                 1.2811                 1.3240
 IR Inten    --     40.2046                40.4252                 2.7400

                     40                     41                     42
                      A                      A                      A
 Frequencies --   1075.6313              1092.8331              1115.8827
 Red. masses --      3.6736                 3.1972                 1.7207
 Frc consts  --      2.5042                 2.2497                 1.2624
 IR Inten    --     42.6385                19.2782                 0.8791

                     43                     44                     45
                      A                      A                      A
 Frequencies --   1158.0891              1174.0976              1177.3919
 Red. masses --      1.6746                 1.6767                 1.5982
 Frc consts  --      1.3233                 1.3618                 1.3053
 IR Inten    --    133.7660                24.3361                 6.9816

                     46                     47                     48
                      A                      A                      A
 Frequencies --   1219.9994              1226.9001              1245.1426
 Red. masses --      1.5135                 1.5767                 1.5513
 Frc consts  --      1.3273                 1.3984                 1.4170
 IR Inten    --      3.6874                49.7533                 0.7371

                     49                     50                     51
                      A                      A                      A
 Frequencies --   1266.4818              1293.0503              1308.3994
 Red. masses --      2.0099                 3.0322                 1.5901
 Frc consts  --      1.8994                 2.9871                 1.6038
 IR Inten    --     37.7838               275.0338               113.5046

                     52                     53                     54
                      A                      A                      A
 Frequencies --   1319.1086              1335.7976              1366.5927
 Red. masses --      1.2184                 2.4772                 3.2167
 Frc consts  --      1.2491                 2.6043                 3.5395
 IR Inten    --     11.8499                55.4893                35.0641

                     55                     56                     57
                      A                      A                      A
 Frequencies --   1374.1047              1393.7112              1411.8039
 Red. masses --      1.9577                 1.4566                 6.1528
 Frc consts  --      2.1779                 1.6670                 7.2256
 IR Inten    --     42.5142                 5.4211               122.3008

                     58                     59                     60
                      A                      A                      A
 Frequencies --   1433.4613              1436.2402              1472.9681
 Red. masses --      1.7784                 2.9982                 4.4626
 Frc consts  --      2.1530                 3.6439                 5.7046
 IR Inten    --      3.0508                 3.2006                 1.6701

                     61                     62                     63
                      A                      A                      A
 Frequencies --   1505.4250              1507.2062              1515.4421
 Red. masses --      1.2986                 1.9235                 1.1289
 Frc consts  --      1.7340                 2.5744                 1.5275
 IR Inten    --     36.9367                84.4175                 4.4313

                     64                     65                     66
                      A                      A                      A
 Frequencies --   1535.5425              1552.2038              1600.0868
 Red. masses --      1.2196                 2.1068                 3.9378
 Frc consts  --      1.6943                 2.9907                 5.9401
 IR Inten    --     13.3052                55.2005                94.5515

                     67                     68                     69
                      A                      A                      A
 Frequencies --   1628.8823              1664.3220              1730.2578
 Red. masses --      6.8090                 6.5848                12.1843
 Frc consts  --     10.6442                10.7465                21.4917
 IR Inten    --     13.8002               161.1085               165.0389

                     70                     71                     72
                      A                      A                      A
 Frequencies --   3024.6191              3029.8568              3060.3201
 Red. masses --      1.0704                 1.0702                 1.0612
 Frc consts  --      5.7697                 5.7885                 5.8557
 IR Inten    --     31.2201                52.4321                21.7350

                     73                     74                     75
                      A                      A                      A
 Frequencies --   3087.9027              3106.8794              3128.8622
 Red. masses --      1.0927                 1.1045                 1.0963
 Frc consts  --      6.1388                 6.2815                 6.3237
 IR Inten    --     22.9047                44.0459                42.8681

                     76                     77                     78
                      A                      A                      A
 Frequencies --   3203.3865              3208.4633              3223.6451
 Red. masses --      1.0898                 1.0874                 1.0942
 Frc consts  --      6.5890                 6.5951                 6.6992
 IR Inten    --      2.1861                 6.2397                 8.5479

                     79                     80                     81
                      A                      A                      A
 Frequencies --   3283.3462              3293.5427              3663.3668
 Red. masses --      1.0966                 1.0979                 1.0818
 Frc consts  --      6.9651                 7.0169                 8.5536
 IR Inten    --      1.3991                 0.0930                90.6638

 - Thermochemistry -
 -------------------
 Temperature   298.150 Kelvin.  Pressure   1.00000 Atm.
 Atom     1 has atomic number  6 and mass  12.00000

 Molecular mass:   228.08988 amu.
 Principal axes and moments of inertia in atomic units:
                           1         2         3
     Eigenvalues --  1229.728468269.653199233.98605
           X            0.99995   0.00931   0.00265
           Y           -0.00931   0.99995   0.00303
           Z           -0.00262  -0.00305   0.99999
 This molecule is an asymmetric top.
 Rotational symmetry number  1.
 Warning -- assumption of classical behavior for rotation
           may cause significant error
 Rotational temperatures (Kelvin)      0.07043     0.01047     0.00938
 Rotational constants (GHZ):           1.46759     0.21824     0.19545
 Zero-point vibrational energy     611028.1 (Joules/Mol)
                                  146.03922 (Kcal/Mol)
 Warning -- explicit consideration of  19 degrees of freedom as
           vibrations may cause significant error
 Vibrational temperatures:     48.29    89.46   100.49   143.29   205.71
          (Kelvin)            258.80   273.39   296.76   379.08   458.86
                              478.27   523.95   617.96   640.65   680.23
                              737.80   748.89   783.26   843.75   893.88
                              930.11   954.81   988.62  1044.94  1083.67
                             1119.02  1189.33  1199.44  1223.53  1279.38
                             1288.71  1304.22  1361.56  1365.87  1370.20
                             1392.45  1397.82  1479.64  1490.88  1547.59
                             1572.34  1605.51  1666.23  1689.26  1694.00
                             1755.31  1765.24  1791.48  1822.18  1860.41
                             1882.49  1897.90  1921.91  1966.22  1977.03
                             2005.24  2031.27  2062.43  2066.43  2119.27
                             2165.97  2168.53  2180.38  2209.30  2233.28
                             2302.17  2343.60  2394.59  2489.46  4351.75
                             4359.29  4403.12  4442.80  4470.11  4501.73
                             4608.96  4616.26  4638.11  4724.00  4738.67
                             5270.77

 Zero-point correction=                           0.232728 (Hartree/Particle)
 Thermal correction to Energy=                    0.246096
 Thermal correction to Enthalpy=                  0.247040
 Thermal correction to Gibbs Free Energy=         0.191574
 Sum of electronic and zero-point Energies=           -762.369684
 Sum of electronic and thermal Energies=              -762.356316
 Sum of electronic and thermal Enthalpies=            -762.355372
 Sum of electronic and thermal Free Energies=         -762.410838

                     E (Thermal)             CV                S
                      KCal/Mol        Cal/Mol-Kelvin    Cal/Mol-Kelvin
 Total                  154.427             52.593            116.739
 Electronic               0.000              0.000              0.000
 Translational            0.889              2.981             42.176
 Rotational               0.889              2.981             32.907
 Vibrational            152.650             46.632             41.656
 Vibration     1          0.594              1.983              5.607
 Vibration     2          0.597              1.972              4.387
 Vibration     3          0.598              1.968              4.158
 Vibration     4          0.604              1.949              3.462
 Vibration     5          0.616              1.910              2.764
 Vibration     6          0.629              1.867              2.330
 Vibration     7          0.633              1.854              2.228
 Vibration     8          0.641              1.831              2.077
 Vibration     9          0.670              1.740              1.639
 Vibration    10          0.705              1.637              1.316
 Vibration    11          0.714              1.611              1.248
 Vibration    12          0.738              1.546              1.104
 Vibration    13          0.791              1.406              0.860
 Vibration    14          0.805              1.371              0.810
 Vibration    15          0.830              1.310              0.730
 Vibration    16          0.868              1.222              0.627
 Vibration    17          0.875              1.205              0.609
 Vibration    18          0.900              1.152              0.556
 Vibration    19          0.944              1.061              0.474

 Optimization completed.
    -- Stationary point found.
 Normal termination of Gaussian 16 at Fri Dec 11 13:15:06 2020.

 ----------------------------------------------------------------------
 # B3LYP/6-311++G(d,p) empiricaldispersion=gd3bj scf=xqc pop=npa geom=c
 heck
 ----------------------------------------------------------------------

 ---------------------------------------
 CID_114988513_JID_7773_Energie_neutraal
 ---------------------------------------
 Structure from the checkpoint file:  "JID_7773.chk"
 Charge =  0 Multiplicity = 1

 SCF Done:  E(RB3LYP) =  -762.806182317     A.U. after   16 cycles
 Normal termination of Gaussian 16 at Fri Dec 11 13:18:50 2020.

 ----------------------------------------------------------------------
 # B3LYP/6-311++G(d,p) empiricaldispersion=gd3bj scf=xqc pop=npa geom=c
 heck
 ----------------------------------------------------------------------

 -------------------------------------
 CID_114988513_JID_7773_Energie_kation
 -------------------------------------
 Structure from the checkpoint file:  "JID_7773.chk"
 Charge =  1 Multiplicity = 2

 SCF Done:  E(UB3LYP) =  -762.508670829     A.U. after   31 cycles
 Normal termination of Gaussian 16 at Fri Dec 11 13:28:23 2020.
 Gaussian 16:  ES64L-G16RevA.03 25-Dec-2016

 ----------------------------------------------------------------------
 # B3LYP/6-311++G(d,p) empiricaldispersion=gd3bj scf=xqc pop=npa geom=c
 heck
 ----------------------------------------------------------------------

 ------------------------------------
 CID_114988513_JID_7773_Energie_anion
 ------------------------------------
 Structure from the checkpoint file:  "JID_7773.chk"
 Charge = -1 Multiplicity = 2

                         Standard orientation:
 ---------------------------------------------------------------------
 Center     Atomic      Atomic             Coordinates (Angstroms)
 Number     Number       Type             X           Y           Z
 ---------------------------------------------------------------------
      1          6           0        4.562037    0.722261   -0.010809
      2          6           0        3.283927    1.378923    0.519414
      3          6           0        2.074070    0.544755    0.157214
      4          6           0        2.227562   -0.808931   -0.200255
      5          6           0        1.119468   -1.576427   -0.580074
      6          6           0       -0.149955   -1.016423   -0.574457
      7          6           0       -0.334861    0.324523   -0.199496
      8          6           0        0.791751    1.085257    0.137137
      9          6           0       -1.661163    1.005572   -0.201733
     10          8           0       -1.740235    2.224353   -0.343501
     11          6           0       -2.891271    0.214881   -0.005945
     12          6           0       -3.084923   -1.040200    0.562477
     13          7           0       -4.420932   -1.246694    0.575303
     14          7           0       -5.133547   -0.215009    0.051271
     15          6           0       -4.208762    0.672307   -0.289225
     16          8           0        3.434867   -1.440576   -0.234698
     17          6           0        4.548818   -0.755692    0.353753
     18          1           0        5.455313    1.197785    0.408992
     19          1           0        4.615883    0.819171   -1.101850
     20          1           0        3.354011    1.483735    1.611516
     21          1           0        3.169769    2.392314    0.118851
     22          1           0        1.284233   -2.605527   -0.882249
     23          1           0       -0.995335   -1.611159   -0.902583
     24          1           0        0.642736    2.132805    0.383085
     25          1           0       -2.390301   -1.756918    0.973430
     26          1           0       -4.919470   -2.050065    0.928019
     27          1           0       -4.486407    1.616927   -0.734662
     28          1           0        5.431596   -1.281860   -0.016454
     29          1           0        4.502087   -0.880347    1.445467
 ---------------------------------------------------------------------

 SCF Done:  E(UB3LYP) =  -762.812831232     A.U. after   33 cycles
 SCF Done:  E(UB3LYP) =  -762.812831232     a.u. after    1 cycles

 The electronic state is 2-A.
 Alpha  occ. eigenvalues --  -19.03315 -18.92249 -14.27364 -14.21801 -10.12333
 Alpha  occ. eigenvalues --  -10.09632 -10.08678 -10.07494 -10.07417 -10.06988
 Alpha  occ. eigenvalues --  -10.06810 -10.05306 -10.04278 -10.04229 -10.04214
 Alpha  occ. eigenvalues --  -10.03266 -10.02949  -0.95217  -0.93265  -0.86321
 Alpha  occ. eigenvalues --   -0.72810  -0.70911  -0.70141  -0.66773  -0.63979
 Alpha  occ. eigenvalues --   -0.61596  -0.56177  -0.52910  -0.51572  -0.49095
 Alpha  occ. eigenvalues --   -0.47936  -0.45593  -0.43487  -0.40568  -0.39706
 Alpha  occ. eigenvalues --   -0.38184  -0.36159  -0.33745  -0.33141  -0.32959
 Alpha  occ. eigenvalues --   -0.32442  -0.31758  -0.30141  -0.29001  -0.28746
 Alpha  occ. eigenvalues --   -0.28369  -0.27914  -0.26394  -0.24716  -0.23796
 Alpha  occ. eigenvalues --   -0.23332  -0.22035  -0.19922  -0.19034  -0.18386
 Alpha  occ. eigenvalues --   -0.15181  -0.13071  -0.12567  -0.09970  -0.09056
 Alpha  occ. eigenvalues --    0.04252
 Alpha virt. eigenvalues --    0.06100   0.07291   0.08559   0.08728   0.09690
 Alpha virt. eigenvalues --    0.10424   0.10969   0.11111   0.11468   0.11724
 Alpha virt. eigenvalues --    0.11963   0.12632   0.12800   0.13799   0.14426

  Beta  occ. eigenvalues --  -19.03274 -18.91721 -14.27330 -14.21845 -10.12316
  Beta  occ. eigenvalues --  -10.09384 -10.08510 -10.07481 -10.07079 -10.06977
  Beta  occ. eigenvalues --  -10.06742 -10.05385 -10.04320 -10.04268 -10.04129
  Beta  occ. eigenvalues --  -10.03103 -10.02927  -0.95082  -0.93209  -0.85360
  Beta  occ. eigenvalues --   -0.72641  -0.70838  -0.70098  -0.66546  -0.63811
  Beta  occ. eigenvalues --   -0.61385  -0.55956  -0.52633  -0.51269  -0.48951
  Beta  occ. eigenvalues --   -0.47815  -0.45356  -0.43346  -0.40400  -0.39503
  Beta  occ. eigenvalues --   -0.38091  -0.35934  -0.33629  -0.33064  -0.32756
  Beta  occ. eigenvalues --   -0.32314  -0.31623  -0.30019  -0.28792  -0.28598
  Beta  occ. eigenvalues --   -0.28272  -0.27642  -0.26144  -0.23951  -0.23372
  Beta  occ. eigenvalues --   -0.22319  -0.21829  -0.19717  -0.18397  -0.18274
  Beta  occ. eigenvalues --   -0.14828  -0.12209  -0.12067  -0.09275  -0.08342
  Beta virt. eigenvalues --    0.06521   0.07251   0.08683   0.08787   0.09541
  Beta virt. eigenvalues --    0.09934   0.10594   0.11000   0.11216   0.11657
  Beta virt. eigenvalues --    0.11953   0.12222   0.12599   0.12832   0.14050

 Mulliken charges and spin densities:
               1          2
     1  C   -0.031256  -0.286478
     2  C   -0.760485   0.216678
     3  C    1.192974   0.058718
     4  C   -0.998706  -0.378202
     5  C   -0.561969  -0.144958
     6  C   -0.935348   0.085587
     7  C    1.635652  -0.046475
     8  C    0.486553   0.352905
     9  C   -2.243219   0.174755
    10  O   -0.365853   0.194415
    11  C    0.667567  -0.016186
    12  C   -0.060719   0.113157
    13  N   -0.002557   0.004954
    14  N   -0.223334  -0.024752
    15  C    0.178156   0.049468
    16  O   -0.138055   0.036473
    17  C    0.038357  -0.253395
    18  H   -0.274111   0.428783
    19  H    0.141548   0.003966
    20  H    0.136357   0.019114
    21  H    0.095178   0.048689
    22  H    0.126586   0.024078
    23  H    0.133240   0.003590
    24  H    0.185710  -0.017582
    25  H    0.151588  -0.005508
    26  H    0.291044  -0.000468
    27  H    0.185577  -0.004757
    28  H   -0.088919   0.262483
    29  H    0.038444   0.100948
 Sum of Mulliken charges =  -1.00000   1.00000

 Dipole moment (field-independent basis, Debye):
    X=              1.4620    Y=             -4.4036    Z=              1.6366  Tot=              4.9201
 Quadrupole moment (field-independent basis, Debye-Ang):
   XX=           -170.2231   YY=           -116.8710   ZZ=           -109.8753
   XY=             17.2620   XZ=             -4.6543   YZ=             -1.9718

 Summary of Natural Population Analysis:

                                       Natural Population
                Natural  -----------------------------------------------
    Atom  No    Charge         Core      Valence    Rydberg      Total
 -----------------------------------------------------------------------
      C    1   -0.20536      0.99964     2.19767    0.00805     3.20536
      C    2   -0.19299      0.99961     2.18344    0.00994     3.19299
      C    3   -0.07600      0.99948     2.06751    0.00901     3.07600
      C    4    0.19555      0.99934     1.79101    0.01410     2.80445
      C    5   -0.14284      0.99954     2.13425    0.00905     3.14284
      C    6   -0.07170      0.99955     2.06499    0.00716     3.07170
      C    7   -0.06615      0.99949     2.05552    0.01114     3.06615
      C    8   -0.03740      0.99950     2.02983    0.00807     3.03740
      C    9    0.29501      0.99957     1.68621    0.01922     2.70499
      O   10   -0.25224      0.99989     3.24687    0.00548     4.25224
      C   11   -0.10878      0.99950     2.09968    0.00960     3.10878
      C   12    0.02221      0.99957     1.96775    0.01048     2.97779
      N   13   -0.17459      0.99970     2.66235    0.01254     3.67459
      N   14   -0.17801      0.99974     2.66349    0.01478     3.67801
      C   15    0.01722      0.99961     1.96734    0.01583     2.98278
      O   16   -0.27836      0.99986     3.26960    0.00890     4.27836
      C   17   -0.00690      0.99957     1.99415    0.01318     3.00690
      H   18    0.09970      0.00000     0.39913    0.00117     0.40030
      H   19    0.09832      0.00000     0.40061    0.00108     0.40168
      H   20    0.09702      0.00000     0.40182    0.00116     0.40298
      H   21    0.10293      0.00000     0.39603    0.00104     0.39707
      H   22    0.09804      0.00000     0.40062    0.00133     0.40196
      H   23    0.09668      0.00000     0.40184    0.00148     0.40332
      H   24    0.10465      0.00000     0.39403    0.00132     0.39535
      H   25    0.10343      0.00000     0.39563    0.00094     0.39657
      H   26    0.19034      0.00000     0.30811    0.00155     0.30966
      H   27    0.10160      0.00000     0.39727    0.00113     0.39840
      H   28    0.08894      0.00000     0.40987    0.00119     0.41106
      H   29    0.07968      0.00000     0.41898    0.00134     0.42032
 =======================================================================
   * Total *   -0.00000     16.99313    42.80562    0.20125    60.00000

 Normal termination of Gaussian 16 at Fri Dec 11 13:38:30 2020.
