 Gaussian 16, Revision A.03,

 -----------------------------------------------------------
 # opt freq B3LYP/6-31G(d) empiricaldispersion=gd3bj scf=xqc
 -----------------------------------------------------------

 ------------------------------
 CID_21549203_JID_7845_neutraal
 ------------------------------
 Symbolic Z-matrix:
 Charge =  0 Multiplicity = 1

 SCF Done:  E(RB3LYP) =  -770.046295159     A.U. after   15 cycles
 SCF Done:  E(RB3LYP) =  -770.050103766     A.U. after   13 cycles
 SCF Done:  E(RB3LYP) =  -770.049302680     A.U. after   14 cycles
 SCF Done:  E(RB3LYP) =  -770.050895187     A.U. after   13 cycles
 SCF Done:  E(RB3LYP) =  -770.051466554     A.U. after   12 cycles
 SCF Done:  E(RB3LYP) =  -770.052447029     A.U. after   13 cycles
 SCF Done:  E(RB3LYP) =  -770.053364225     A.U. after   13 cycles
 SCF Done:  E(RB3LYP) =  -770.053877657     A.U. after   12 cycles
 SCF Done:  E(RB3LYP) =  -770.054018550     A.U. after   12 cycles
 SCF Done:  E(RB3LYP) =  -770.054064818     A.U. after   12 cycles
 SCF Done:  E(RB3LYP) =  -770.054123688     A.U. after    8 cycles
 SCF Done:  E(RB3LYP) =  -770.054124064     A.U. after    8 cycles
 SCF Done:  E(RB3LYP) =  -770.054124248     A.U. after    8 cycles
 SCF Done:  E(RB3LYP) =  -770.054124359     A.U. after    8 cycles
 SCF Done:  E(RB3LYP) =  -770.054124386     A.U. after    7 cycles
 Optimization completed.
    -- Stationary point found.
 Normal termination of Gaussian 16 at Fri Dec 11 13:26:25 2020.

 --------------------------------------------------------------------
 #N Geom=AllCheck Guess=TCheck SCRF=Check GenChk RB3LYP/6-31G(d) Freq
 --------------------------------------------------------------------

 Structure from the checkpoint file:  "JID_7845.chk"
 ------------------------------
 CID_21549203_JID_7845_neutraal
 ------------------------------
 Charge =  0 Multiplicity = 1

 SCF Done:  E(RB3LYP) =  -770.054124386     A.U. after    1 cycles

  Exact polarizability: 194.132   6.492 176.605  -5.416   8.592  93.637
 Approx polarizability: 255.105   8.733 289.070 -11.860  12.536 149.562

                      1                      2                      3
                      A                      A                      A
 Frequencies --     22.8053                36.1658                50.6415
 Red. masses --      4.2829                 3.8060                 4.1846
 Frc consts  --      0.0013                 0.0029                 0.0063
 IR Inten    --      0.5091                 0.2980                 0.6723

                      4                      5                      6
                      A                      A                      A
 Frequencies --     71.8686                91.7969               101.2907
 Red. masses --      3.3927                 4.3592                 3.7900
 Frc consts  --      0.0103                 0.0216                 0.0229
 IR Inten    --      1.7543                 0.0767                 0.3318

                      7                      8                      9
                      A                      A                      A
 Frequencies --    108.8970               175.2130               193.5946
 Red. masses --      3.2588                 2.5108                 2.8803
 Frc consts  --      0.0228                 0.0454                 0.0636
 IR Inten    --      0.7696                 0.3687                 1.4017

                     10                     11                     12
                      A                      A                      A
 Frequencies --    213.0844               235.9293               238.5604
 Red. masses --      2.4631                 1.7836                 1.5863
 Frc consts  --      0.0659                 0.0585                 0.0532
 IR Inten    --      1.2814                 1.6780                 1.0691

                     13                     14                     15
                      A                      A                      A
 Frequencies --    261.9198               281.0276               293.8096
 Red. masses --      2.0789                 1.7733                 1.0502
 Frc consts  --      0.0840                 0.0825                 0.0534
 IR Inten    --      0.1120                 0.7587                 0.1659

                     16                     17                     18
                      A                      A                      A
 Frequencies --    305.3220               322.3668               339.4721
 Red. masses --      3.1606                 3.1939                 2.5985
 Frc consts  --      0.1736                 0.1956                 0.1764
 IR Inten    --      4.9880                 0.6683                 3.1081

                     19                     20                     21
                      A                      A                      A
 Frequencies --    360.1905               418.5828               442.1045
 Red. masses --      3.2588                 4.6189                 2.9367
 Frc consts  --      0.2491                 0.4768                 0.3382
 IR Inten    --     11.0864                10.3918                 0.2486

                     22                     23                     24
                      A                      A                      A
 Frequencies --    455.3894               486.2334               532.0391
 Red. masses --      2.8212                 3.9387                 5.3488
 Frc consts  --      0.3447                 0.5486                 0.8921
 IR Inten    --      6.3695                 3.8847                 0.9907

                     25                     26                     27
                      A                      A                      A
 Frequencies --    540.6120               570.5725               606.0484
 Red. masses --      3.7315                 3.6506                 5.1359
 Frc consts  --      0.6426                 0.7002                 1.1114
 IR Inten    --      7.7241                 0.9629                 1.4213

                     28                     29                     30
                      A                      A                      A
 Frequencies --    644.4475               677.7806               747.9256
 Red. masses --      3.3419                 1.8234                 3.3181
 Frc consts  --      0.8177                 0.4935                 1.0936
 IR Inten    --      2.7479                 0.3930                 1.1929

                     31                     32                     33
                      A                      A                      A
 Frequencies --    768.2979               784.0922               785.3858
 Red. masses --      5.7908                 1.9376                 1.5470
 Frc consts  --      2.0139                 0.7019                 0.5622
 IR Inten    --      9.8300                16.1029                29.6528

                     34                     35                     36
                      A                      A                      A
 Frequencies --    798.6971               815.7581               861.0504
 Red. masses --      2.5725                 2.2833                 2.5496
 Frc consts  --      0.9669                 0.8953                 1.1137
 IR Inten    --      2.8366                 5.9108                10.0553

                     37                     38                     39
                      A                      A                      A
 Frequencies --    887.7411               899.4916               925.7488
 Red. masses --      1.6265                 2.7307                 2.6294
 Frc consts  --      0.7552                 1.3017                 1.3277
 IR Inten    --      1.0563                 1.1924                 3.8867

                     40                     41                     42
                      A                      A                      A
 Frequencies --    928.9158               948.9861               952.9118
 Red. masses --      1.4396                 1.3749                 1.5401
 Frc consts  --      0.7319                 0.7295                 0.8240
 IR Inten    --     41.7965                 2.0605                 0.2661

                     43                     44                     45
                      A                      A                      A
 Frequencies --    977.4055               991.8773              1039.6040
 Red. masses --      1.2554                 2.5173                 1.3344
 Frc consts  --      0.7066                 1.4591                 0.8497
 IR Inten    --      0.0695                34.2023                 0.8386

                     46                     47                     48
                      A                      A                      A
 Frequencies --   1047.4657              1053.7979              1075.2929
 Red. masses --      3.3752                 1.8333                 1.1266
 Frc consts  --      2.1819                 1.1995                 0.7675
 IR Inten    --     20.9337                 2.8791                31.7382

                     49                     50                     51
                      A                      A                      A
 Frequencies --   1085.7434              1127.6260              1132.3854
 Red. masses --      1.6059                 2.3202                 1.9570
 Frc consts  --      1.1154                 1.7382                 1.4785
 IR Inten    --      1.3096                19.4039                14.4198

                     52                     53                     54
                      A                      A                      A
 Frequencies --   1178.7364              1190.1924              1207.7620
 Red. masses --      3.1209                 1.1224                 2.1834
 Frc consts  --      2.5549                 0.9368                 1.8765
 IR Inten    --    555.2859                 2.0884                67.1555

                     55                     56                     57
                      A                      A                      A
 Frequencies --   1214.1413              1224.9644              1225.8720
 Red. masses --      2.6020                 1.8119                 2.5021
 Frc consts  --      2.2600                 1.6019                 2.2154
 IR Inten    --     80.1307                13.0758                39.2630

                     58                     59                     60
                      A                      A                      A
 Frequencies --   1276.0343              1309.8068              1317.0540
 Red. masses --      3.8100                 3.4376                 1.7000
 Frc consts  --      3.6551                 3.4747                 1.7374
 IR Inten    --    100.3258                95.6684                 7.8866

                     61                     62                     63
                      A                      A                      A
 Frequencies --   1335.9615              1342.9666              1365.6404
 Red. masses --      3.4079                 1.1247                 1.6191
 Frc consts  --      3.5837                 1.1952                 1.7791
 IR Inten    --     13.7321                14.6827                 1.8249

                     64                     65                     66
                      A                      A                      A
 Frequencies --   1417.7301              1421.7448              1441.3078
 Red. masses --      1.2633                 1.2380                 1.2558
 Frc consts  --      1.4961                 1.4744                 1.5371
 IR Inten    --      1.0431                 8.3803                20.4858

                     67                     68                     69
                      A                      A                      A
 Frequencies --   1447.1158              1474.6796              1500.4164
 Red. masses --      1.2957                 1.3003                 2.3208
 Frc consts  --      1.5987                 1.6661                 3.0783
 IR Inten    --      6.2017                19.1121                27.4176

                     70                     71                     72
                      A                      A                      A
 Frequencies --   1513.2888              1515.0790              1516.6512
 Red. masses --      1.0634                 1.0511                 1.0511
 Frc consts  --      1.4348                 1.4216                 1.4246
 IR Inten    --      0.9941                 2.4067                 6.1157

                     73                     74                     75
                      A                      A                      A
 Frequencies --   1519.2380              1530.0222              1531.7641
 Red. masses --      1.0798                 1.1622                 1.8912
 Frc consts  --      1.4684                 1.6030                 2.6144
 IR Inten    --      3.2198                18.0639                30.2372

                     76                     77                     78
                      A                      A                      A
 Frequencies --   1538.2141              1541.9337              1629.3341
 Red. masses --      1.0571                 1.1055                 5.6153
 Frc consts  --      1.4737                 1.5487                 8.7830
 IR Inten    --      5.7250                33.2737                 4.9119

                     79                     80                     81
                      A                      A                      A
 Frequencies --   1658.9083              1711.1855              1828.2425
 Red. masses --      5.9568                 4.1767                11.8373
 Frc consts  --      9.6585                 7.2058                23.3115
 IR Inten    --     12.4520                 7.7556               183.8454

                     82                     83                     84
                      A                      A                      A
 Frequencies --   3062.4213              3068.6816              3075.3705
 Red. masses --      1.0362                 1.0350                 1.0344
 Frc consts  --      5.7259                 5.7424                 5.7643
 IR Inten    --     17.0615                12.5037                 7.1646

                     85                     86                     87
                      A                      A                      A
 Frequencies --   3095.4012              3128.5361              3139.2767
 Red. masses --      1.0589                 1.1017                 1.1034
 Frc consts  --      5.9776                 6.3532                 6.4070
 IR Inten    --     25.8803                25.0033                20.8689

                     88                     89                     90
                      A                      A                      A
 Frequencies --   3141.4881              3151.1481              3156.7442
 Red. masses --      1.1046                 1.1031                 1.1037
 Frc consts  --      6.4227                 6.4536                 6.4802
 IR Inten    --      5.7242                11.8129                 3.9968

                     91                     92                     93
                      A                      A                      A
 Frequencies --   3161.0039              3161.2569              3164.0103
 Red. masses --      1.1067                 1.1029                 1.0597
 Frc consts  --      6.5150                 6.4938                 6.2506
 IR Inten    --     10.6060                42.6335                 7.5404

                     94                     95                     96
                      A                      A                      A
 Frequencies --   3186.8159              3197.7807              3199.6474
 Red. masses --      1.0851                 1.0898                 1.0910
 Frc consts  --      6.4926                 6.5660                 6.5810
 IR Inten    --      0.1724                10.0215                10.4020

                     97                     98                     99
                      A                      A                      A
 Frequencies --   3209.5720              3219.8520              3244.7904
 Red. masses --      1.0941                 1.0952                 1.1146
 Frc consts  --      6.6403                 6.6900                 6.9145
 IR Inten    --     32.7860                12.2575                12.7543

 - Thermochemistry -
 -------------------
 Temperature   298.150 Kelvin.  Pressure   1.00000 Atm.
 Atom     1 has atomic number  6 and mass  12.00000

 Molecular mass:   234.12559 amu.
 Principal axes and moments of inertia in atomic units:
                           1         2         3
     Eigenvalues --  1877.846326567.953037709.43399
           X            0.99998  -0.00388  -0.00566
           Y            0.00392   0.99997   0.00654
           Z            0.00563  -0.00656   0.99996
 This molecule is an asymmetric top.
 Rotational symmetry number  1.
 Warning -- assumption of classical behavior for rotation
           may cause significant error
 Rotational temperatures (Kelvin)      0.04612     0.01319     0.01123
 Rotational constants (GHZ):           0.96107     0.27478     0.23410
 Zero-point vibrational energy     774006.3 (Joules/Mol)
                                  184.99195 (Kcal/Mol)
 Warning -- explicit consideration of  27 degrees of freedom as
           vibrations may cause significant error
 Vibrational temperatures:     32.81    52.03    72.86   103.40   132.08
          (Kelvin)            145.73   156.68   252.09   278.54   306.58
                              339.45   343.24   376.84   404.34   422.73
                              439.29   463.81   488.42   518.23   602.25
                              636.09   655.20   699.58   765.49   777.82
                              820.93   871.97   927.22   975.18  1076.10
                             1105.41  1128.13  1129.99  1149.15  1173.69
                             1238.86  1277.26  1294.17  1331.95  1336.50
                             1365.38  1371.03  1406.27  1427.09  1495.76
                             1507.07  1516.18  1547.11  1562.14  1622.40
                             1629.25  1695.94  1712.42  1737.70  1746.88
                             1762.45  1763.76  1835.93  1884.52  1894.95
                             1922.15  1932.23  1964.85  2039.80  2045.57
                             2073.72  2082.08  2121.74  2158.76  2177.29
                             2179.86  2182.12  2185.84  2201.36  2203.87
                             2213.15  2218.50  2344.25  2386.80  2462.01
                             2630.43  4406.14  4415.15  4424.77  4453.59
                             4501.27  4516.72  4519.90  4533.80  4541.85
                             4547.98  4548.34  4552.31  4585.12  4600.89
                             4603.58  4617.86  4632.65  4668.53

 Zero-point correction=                           0.294803 (Hartree/Particle)
 Thermal correction to Energy=                    0.312225
 Thermal correction to Enthalpy=                  0.313170
 Thermal correction to Gibbs Free Energy=         0.248725
 Sum of electronic and zero-point Energies=           -769.759321
 Sum of electronic and thermal Energies=              -769.741899
 Sum of electronic and thermal Enthalpies=            -769.740955
 Sum of electronic and thermal Free Energies=         -769.805400

                     E (Thermal)             CV                S
                      KCal/Mol        Cal/Mol-Kelvin    Cal/Mol-Kelvin
 Total                  195.924             65.696            135.636
 Electronic               0.000              0.000              0.000
 Translational            0.889              2.981             42.254
 Rotational               0.889              2.981             32.919
 Vibrational            194.147             59.735             60.463
 Vibration     1          0.593              1.985              6.374
 Vibration     2          0.594              1.982              5.459
 Vibration     3          0.595              1.977              4.792
 Vibration     4          0.598              1.967              4.102
 Vibration     5          0.602              1.955              3.621
 Vibration     6          0.604              1.948              3.429
 Vibration     7          0.606              1.942              3.288
 Vibration     8          0.627              1.873              2.379
 Vibration     9          0.635              1.849              2.193
 Vibration    10          0.644              1.821              2.017
 Vibration    11          0.655              1.786              1.833
 Vibration    12          0.657              1.782              1.814
 Vibration    13          0.669              1.743              1.649
 Vibration    14          0.681              1.709              1.527
 Vibration    15          0.689              1.685              1.452
 Vibration    16          0.696              1.664              1.388
 Vibration    17          0.707              1.631              1.298
 Vibration    18          0.719              1.597              1.215
 Vibration    19          0.735              1.554              1.121
 Vibration    20          0.781              1.430              0.897
 Vibration    21          0.802              1.378              0.820
 Vibration    22          0.814              1.349              0.780
 Vibration    23          0.842              1.281              0.693
 Vibration    24          0.887              1.179              0.583
 Vibration    25          0.896              1.160              0.564
 Vibration    26          0.927              1.095              0.503
 Vibration    27          0.965              1.019              0.439

 Optimization completed.
    -- Stationary point found.
 Normal termination of Gaussian 16 at Fri Dec 11 13:38:57 2020.

 ----------------------------------------------------------------------
 # B3LYP/6-311++G(d,p) empiricaldispersion=gd3bj scf=xqc pop=npa geom=c
 heck
 ----------------------------------------------------------------------

 --------------------------------------
 CID_21549203_JID_7845_Energie_neutraal
 --------------------------------------
 Structure from the checkpoint file:  "JID_7845.chk"
 Charge =  0 Multiplicity = 1

 SCF Done:  E(RB3LYP) =  -770.267546497     A.U. after   15 cycles
 Normal termination of Gaussian 16 at Fri Dec 11 13:45:14 2020.

 ----------------------------------------------------------------------
 # B3LYP/6-311++G(d,p) empiricaldispersion=gd3bj scf=xqc pop=npa geom=c
 heck
 ----------------------------------------------------------------------

 ------------------------------------
 CID_21549203_JID_7845_Energie_kation
 ------------------------------------
 Structure from the checkpoint file:  "JID_7845.chk"
 Charge =  1 Multiplicity = 2

 SCF Done:  E(UB3LYP) =  -769.973818766     A.U. after   25 cycles
 Normal termination of Gaussian 16 at Fri Dec 11 13:59:56 2020.
 Gaussian 16:  ES64L-G16RevA.03 25-Dec-2016

 ----------------------------------------------------------------------
 # B3LYP/6-311++G(d,p) empiricaldispersion=gd3bj scf=xqc pop=npa geom=c
 heck
 ----------------------------------------------------------------------

 -----------------------------------
 CID_21549203_JID_7845_Energie_anion
 -----------------------------------
 Structure from the checkpoint file:  "JID_7845.chk"
 Charge = -1 Multiplicity = 2

                         Standard orientation:
 ---------------------------------------------------------------------
 Center     Atomic      Atomic             Coordinates (Angstroms)
 Number     Number       Type             X           Y           Z
 ---------------------------------------------------------------------
      1          6           0        4.955479    0.060083   -0.842424
      2          6           0        4.224062    0.500969    0.414501
      3          8           0        3.020728   -0.279021    0.617397
      4          6           0        1.928125    0.118221   -0.070745
      5          8           0        1.907260    1.069529   -0.817083
      6          6           0        0.721651   -0.770433    0.281625
      7          6           0        1.093167   -2.257015    0.234509
      8          6           0        0.234346   -0.362440    1.679986
      9          8           0       -0.236340   -0.505455   -0.761063
     10          6           0       -1.580453   -0.470235   -0.460552
     11          6           0       -2.321344   -1.653187   -0.470991
     12          6           0       -3.691042   -1.622420   -0.216410
     13          6           0       -4.321185   -0.401332    0.034525
     14          6           0       -3.581734    0.777142    0.022521
     15          6           0       -2.197453    0.773690   -0.215817
     16          6           0       -1.387789    2.001280   -0.236963
     17          6           0       -1.727056    3.168671    0.324477
     18          1           0        5.181076   -1.010463   -0.803420
     19          1           0        5.899193    0.609010   -0.936434
     20          1           0        4.348313    0.263771   -1.728226
     21          1           0        4.816968    0.317459    1.313319
     22          1           0        3.951548    1.557874    0.365746
     23          1           0        1.900121   -2.484374    0.934265
     24          1           0        0.216919   -2.856252    0.499974
     25          1           0        1.410209   -2.533128   -0.775542
     26          1           0       -0.039628    0.695275    1.709643
     27          1           0       -0.638174   -0.956435    1.965171
     28          1           0        1.033852   -0.542504    2.403113
     29          1           0       -1.813946   -2.585542   -0.695193
     30          1           0       -4.264749   -2.544714   -0.227124
     31          1           0       -5.391008   -0.366599    0.218872
     32          1           0       -4.083991    1.726797    0.180552
     33          1           0       -0.427172    1.910382   -0.737022
     34          1           0       -1.072773    4.032035    0.251287
     35          1           0       -2.652582    3.309017    0.877559
 ---------------------------------------------------------------------

 SCF Done:  E(UB3LYP) =  -770.260680742     A.U. after   33 cycles
 SCF Done:  E(UB3LYP) =  -770.260680742     a.u. after    1 cycles

 The electronic state is 2-A.
 Alpha  occ. eigenvalues --  -19.07148 -19.02493 -19.01428 -10.20133 -10.15197
 Alpha  occ. eigenvalues --  -10.13225 -10.10775 -10.07093 -10.07064 -10.06798
 Alpha  occ. eigenvalues --  -10.05818 -10.05378 -10.05157 -10.05101 -10.04965
 Alpha  occ. eigenvalues --  -10.03767 -10.03053  -1.01234  -0.94714  -0.92203
 Alpha  occ. eigenvalues --   -0.74121  -0.70982  -0.67034  -0.66487  -0.62403
 Alpha  occ. eigenvalues --   -0.60502  -0.59962  -0.57441  -0.53138  -0.50871
 Alpha  occ. eigenvalues --   -0.47953  -0.45351  -0.43689  -0.42228  -0.39690
 Alpha  occ. eigenvalues --   -0.38627  -0.37746  -0.36951  -0.36267  -0.35753
 Alpha  occ. eigenvalues --   -0.33838  -0.33005  -0.32211  -0.31766  -0.31075
 Alpha  occ. eigenvalues --   -0.30145  -0.29560  -0.29018  -0.28348  -0.28193
 Alpha  occ. eigenvalues --   -0.27112  -0.26854  -0.25844  -0.24935  -0.23791
 Alpha  occ. eigenvalues --   -0.23081  -0.22036  -0.21041  -0.18230  -0.17687
 Alpha  occ. eigenvalues --   -0.16656  -0.13428  -0.10939   0.04430
 Alpha virt. eigenvalues --    0.05683   0.07437   0.08011   0.08122   0.09059
 Alpha virt. eigenvalues --    0.09317   0.09468   0.10001   0.10511   0.10703
 Alpha virt. eigenvalues --    0.10933   0.11500   0.12299   0.12816   0.12951

  Beta  occ. eigenvalues --  -19.07147 -19.02494 -19.01423 -10.20123 -10.15197
  Beta  occ. eigenvalues --  -10.13202 -10.10762 -10.07086 -10.07031 -10.06791
  Beta  occ. eigenvalues --  -10.05872 -10.05343 -10.04965 -10.04958 -10.04839
  Beta  occ. eigenvalues --  -10.03698 -10.02858  -1.01224  -0.94702  -0.92194
  Beta  occ. eigenvalues --   -0.73928  -0.70929  -0.66986  -0.66130  -0.62260
  Beta  occ. eigenvalues --   -0.60416  -0.59711  -0.57393  -0.53083  -0.50458
  Beta  occ. eigenvalues --   -0.47865  -0.45269  -0.43451  -0.42143  -0.39648
  Beta  occ. eigenvalues --   -0.38579  -0.37705  -0.36876  -0.36203  -0.35692
  Beta  occ. eigenvalues --   -0.33769  -0.32876  -0.32137  -0.31714  -0.31039
  Beta  occ. eigenvalues --   -0.30101  -0.29527  -0.28887  -0.28310  -0.28135
  Beta  occ. eigenvalues --   -0.27046  -0.26754  -0.25637  -0.24818  -0.23685
  Beta  occ. eigenvalues --   -0.22831  -0.21911  -0.21014  -0.17972  -0.16928
  Beta  occ. eigenvalues --   -0.16596  -0.12953  -0.09891
  Beta virt. eigenvalues --    0.06756   0.07485   0.08151   0.08213   0.08428
  Beta virt. eigenvalues --    0.09153   0.09468   0.09556   0.10195   0.10598
  Beta virt. eigenvalues --    0.10819   0.10970   0.11505   0.12340   0.12847

 Mulliken charges and spin densities:
               1          2
     1  C    0.530013  -0.913994
     2  C    0.144287  -0.256623
     3  O   -0.001264   0.040184
     4  C   -0.463853   0.209417
     5  O   -0.211304   0.001748
     6  C   -0.010494  -0.013569
     7  C   -0.059002  -0.485506
     8  C   -0.296610  -0.207743
     9  O   -0.004688  -0.002028
    10  C    0.018197   0.040199
    11  C   -0.083334   0.009910
    12  C   -0.356053   0.179338
    13  C   -0.362112  -0.002051
    14  C   -0.576291   0.089535
    15  C    0.514050   0.053200
    16  C    0.437452  -0.032743
    17  C   -0.852117   0.196674
    18  H    0.000508   0.135577
    19  H   -0.498710   0.652039
    20  H   -0.027808   0.205120
    21  H   -0.711476   0.881539
    22  H    0.215216  -0.046748
    23  H    0.088866   0.070822
    24  H    0.111185   0.019149
    25  H    0.140158   0.048547
    26  H    0.178494   0.055962
    27  H    0.139201   0.006891
    28  H    0.100967   0.072547
    29  H    0.122211   0.000951
    30  H    0.124956  -0.011526
    31  H    0.124339   0.004825
    32  H    0.106261  -0.008020
    33  H    0.223475   0.015302
    34  H    0.112968  -0.009042
    35  H    0.082309   0.000115
 Sum of Mulliken charges =  -1.00000   1.00000

 Dipole moment (field-independent basis, Debye):
    X=             -4.2465    Y=             -3.3302    Z=              0.8890  Tot=              5.4693
 Quadrupole moment (field-independent basis, Debye-Ang):
   XX=           -194.6769   YY=           -128.5822   ZZ=           -125.9313
   XY=              0.9603   XZ=             -5.3467   YZ=              1.6627

 Summary of Natural Population Analysis:

                                       Natural Population
                Natural  -----------------------------------------------
    Atom  No    Charge         Core      Valence    Rydberg      Total
 -----------------------------------------------------------------------
      C    1   -0.29956      0.99966     2.29464    0.00526     3.29956
      C    2   -0.01634      0.99958     2.00453    0.01223     3.01634
      O    3   -0.28703      0.99986     3.27812    0.00906     4.28703
      C    4    0.40897      0.99961     1.56400    0.02741     2.59103
      O    5   -0.29605      0.99987     3.29101    0.00517     4.29605
      C    6    0.10206      0.99949     1.88450    0.01395     2.89794
      C    7   -0.29408      0.99962     2.28650    0.00797     3.29408
      C    8   -0.30340      0.99962     2.29731    0.00647     3.30340
      O    9   -0.29781      0.99984     3.28730    0.01067     4.29781
      C   10    0.15934      0.99933     1.82633    0.01500     2.84066
      C   11   -0.12242      0.99951     2.11489    0.00803     3.12242
      C   12   -0.07210      0.99958     2.06369    0.00883     3.07210
      C   13   -0.12279      0.99957     2.11441    0.00881     3.12279
      C   14   -0.06780      0.99955     2.06052    0.00774     3.06780
      C   15   -0.02872      0.99939     2.01916    0.01017     3.02872
      C   16   -0.10051      0.99955     2.09050    0.01045     3.10051
      C   17   -0.15578      0.99959     2.14864    0.00755     3.15578
      H   18    0.10009      0.00000     0.39875    0.00116     0.39991
      H   19    0.10448      0.00000     0.39385    0.00167     0.39552
      H   20    0.10513      0.00000     0.39383    0.00103     0.39487
      H   21    0.09251      0.00000     0.40530    0.00219     0.40749
      H   22    0.09443      0.00000     0.40430    0.00127     0.40557
      H   23    0.10669      0.00000     0.39229    0.00102     0.39331
      H   24    0.10095      0.00000     0.39807    0.00099     0.39905
      H   25    0.10376      0.00000     0.39532    0.00092     0.39624
      H   26    0.11640      0.00000     0.38266    0.00094     0.38360
      H   27    0.10829      0.00000     0.39092    0.00078     0.39171
      H   28    0.10661      0.00000     0.39254    0.00085     0.39339
      H   29    0.09710      0.00000     0.40133    0.00157     0.40290
      H   30    0.09050      0.00000     0.40853    0.00097     0.40950
      H   31    0.09286      0.00000     0.40618    0.00096     0.40714
      H   32    0.09531      0.00000     0.40336    0.00133     0.40469
      H   33    0.11006      0.00000     0.38797    0.00196     0.38994
      H   34    0.08696      0.00000     0.41226    0.00078     0.41304
      H   35    0.08188      0.00000     0.41718    0.00094     0.41812
 =======================================================================
   * Total *    0.00001     16.99321    45.81070    0.19608    62.99999

 Normal termination of Gaussian 16 at Fri Dec 11 14:19:30 2020.
