 Gaussian 16, Revision A.03,

 -----------------------------------------------------------
 # opt freq B3LYP/6-31G(d) empiricaldispersion=gd3bj scf=xqc
 -----------------------------------------------------------

 -----------------------------
 CID_72765365_JID_264_neutraal
 -----------------------------
 Symbolic Z-matrix:
 Charge =  0 Multiplicity = 1

 SCF Done:  E(RB3LYP) =  -426.562958122     A.U. after   15 cycles
 SCF Done:  E(RB3LYP) =  -426.579946246     A.U. after   13 cycles
 SCF Done:  E(RB3LYP) =  -426.580718679     A.U. after   13 cycles
 SCF Done:  E(RB3LYP) =  -426.579126799     A.U. after   14 cycles
 SCF Done:  E(RB3LYP) =  -426.581436387     A.U. after   12 cycles
 SCF Done:  E(RB3LYP) =  -426.581243137     A.U. after   13 cycles
 SCF Done:  E(RB3LYP) =  -426.581562155     A.U. after   11 cycles
 SCF Done:  E(RB3LYP) =  -426.581565773     A.U. after   11 cycles
 SCF Done:  E(RB3LYP) =  -426.581610396     A.U. after   12 cycles
 SCF Done:  E(RB3LYP) =  -426.581632161     A.U. after   12 cycles
 SCF Done:  E(RB3LYP) =  -426.581656524     A.U. after    9 cycles
 SCF Done:  E(RB3LYP) =  -426.581657312     A.U. after    8 cycles
 SCF Done:  E(RB3LYP) =  -426.581658719     A.U. after    9 cycles
 SCF Done:  E(RB3LYP) =  -426.581659013     A.U. after    9 cycles
 SCF Done:  E(RB3LYP) =  -426.581659100     A.U. after    8 cycles
 SCF Done:  E(RB3LYP) =  -426.581659105     A.U. after    6 cycles
 Optimization completed.
    -- Stationary point found.

 1\1\GINC-NODE113\FOpt\RB3LYP\6-31G(d)\C9H14O1\VSC10255\08-Dec-2020\0\\
 # opt freq B3LYP/6-31G(d) empiricaldispersion=gd3bj scf=xqc\\CID_72765
 365_JID_264_neutraal\\0,1\C,1.2419160035,0.2660505188,-0.3043478225\C,
 0.6372198578,1.5690399199,-0.5672780414\C,0.1289671616,2.6427410461,-0
 .7941101243\C,-0.4290702333,3.9697491432,-1.0558767814\C,0.2299098328,
 5.0799719993,-0.2082638638\C,1.7605150153,5.1156205219,-0.3055804967\C
 ,2.3175732997,5.2417659922,-1.7416748319\C,1.827950346,6.5061258471,-2
 .4648030892\C,3.8289405622,5.2651625817,-1.6526759111\O,4.5666393779,4

 Normal termination of Gaussian 16 at Tue Dec  8 10:27:00 2020.

 --------------------------------------------------------------------
 #N Geom=AllCheck Guess=TCheck SCRF=Check GenChk RB3LYP/6-31G(d) Freq
 --------------------------------------------------------------------

 Structure from the checkpoint file:  "JID_264.chk"
 -----------------------------
 CID_72765365_JID_264_neutraal
 -----------------------------
 Charge =  0 Multiplicity = 1

 SCF Done:  E(RB3LYP) =  -426.581659105     A.U. after    1 cycles

  Exact polarizability: 104.183  14.739 103.802  -0.703   0.264  73.213
 Approx polarizability: 132.387  30.206 157.851  -0.593  -0.238 106.460

                      1                      2                      3
                      A                      A                      A
 Frequencies --     24.2668                27.5543                46.9971
 Red. masses --      1.3628                 2.2089                 3.5321
 Frc consts  --      0.0005                 0.0010                 0.0046
 IR Inten    --      0.4797                 0.9494                 2.4726

                      4                      5                      6
                      A                      A                      A
 Frequencies --     57.2177               107.2923               132.4835
 Red. masses --      3.9869                 3.1354                 3.4678
 Frc consts  --      0.0077                 0.0213                 0.0359
 IR Inten    --      3.6532                 0.2149                 1.3749

                      7                      8                      9
                      A                      A                      A
 Frequencies --    200.2767               228.4695               249.0413
 Red. masses --      1.2787                 2.4975                 2.1459
 Frc consts  --      0.0302                 0.0768                 0.0784
 IR Inten    --      0.5220                 9.0521                 6.1643

                     10                     11                     12
                      A                      A                      A
 Frequencies --    284.4385               319.8225               349.7053
 Red. masses --      2.2440                 2.4721                 2.5390
 Frc consts  --      0.1070                 0.1490                 0.1829
 IR Inten    --      0.5238                 2.0206                 0.4478

                     13                     14                     15
                      A                      A                      A
 Frequencies --    360.2406               383.8754               446.2226
 Red. masses --      2.5253                 3.4281                 3.1527
 Frc consts  --      0.1931                 0.2976                 0.3699
 IR Inten    --      3.0765                 0.1171                 0.2393

                     16                     17                     18
                      A                      A                      A
 Frequencies --    529.5227               582.9101               708.6274
 Red. masses --      3.5878                 3.2925                 2.1829
 Frc consts  --      0.5927                 0.6591                 0.6458
 IR Inten    --      0.7154                12.3116                 4.8481

                     19                     20                     21
                      A                      A                      A
 Frequencies --    777.4243               855.0349               882.2566
 Red. masses --      1.8907                 2.4965                 1.7883
 Frc consts  --      0.6733                 1.0753                 0.8201
 IR Inten    --      7.6582                 3.7189                 6.6941

                     22                     23                     24
                      A                      A                      A
 Frequencies --    928.8765               961.6988               969.5322
 Red. masses --      1.8261                 1.7106                 1.7792
 Frc consts  --      0.9283                 0.9321                 0.9854
 IR Inten    --     23.5297                 0.7677                 0.6331

                     25                     26                     27
                      A                      A                      A
 Frequencies --   1020.1937              1067.8538              1071.1188
 Red. masses --      1.7183                 1.9992                 1.4029
 Frc consts  --      1.0537                 1.3432                 0.9483
 IR Inten    --      2.2628                 0.3308                 2.0345

                     28                     29                     30
                      A                      A                      A
 Frequencies --   1072.3516              1125.2514              1137.1983
 Red. masses --      1.4108                 2.2705                 2.1599
 Frc consts  --      0.9558                 1.6938                 1.6457
 IR Inten    --      2.1623                 0.5068                 3.7012

                     31                     32                     33
                      A                      A                      A
 Frequencies --   1171.5856              1179.0931              1225.4600
 Red. masses --      1.9053                 3.1293                 1.2350
 Frc consts  --      1.5408                 2.5632                 1.0927
 IR Inten    --      7.4217                 0.0609                 2.3893

                     34                     35                     36
                      A                      A                      A
 Frequencies --   1240.3544              1297.6106              1334.1447
 Red. masses --      1.3594                 1.2652                 1.2850
 Frc consts  --      1.2322                 1.2551                 1.3476
 IR Inten    --      1.8028                 0.7802                 1.9331

                     37                     38                     39
                      A                      A                      A
 Frequencies --   1370.8493              1375.0213              1402.7392
 Red. masses --      1.2787                 1.4537                 1.3353
 Frc consts  --      1.4157                 1.6193                 1.5480
 IR Inten    --      0.8616                11.9523                15.8794

                     40                     41                     42
                      A                      A                      A
 Frequencies --   1413.7413              1434.8145              1443.8751
 Red. masses --      1.4062                 1.2425                 1.2043
 Frc consts  --      1.6559                 1.5071                 1.4793
 IR Inten    --      5.7215                 6.5961                 1.8270

                     43                     44                     45
                      A                      A                      A
 Frequencies --   1445.1350              1507.4062              1508.9776
 Red. masses --      1.2422                 1.0754                 1.0416
 Frc consts  --      1.5285                 1.4398                 1.3974
 IR Inten    --      3.8909                 1.8489                 6.5392

                     46                     47                     48
                      A                      A                      A
 Frequencies --   1510.0563              1513.3665              1520.0700
 Red. masses --      1.0405                 1.0829                 1.0813
 Frc consts  --      1.3980                 1.4613                 1.4720
 IR Inten    --      6.0053                 7.6345                 4.4144

                     49                     50                     51
                      A                      A                      A
 Frequencies --   1528.3457              1538.6162              1836.1755
 Red. masses --      1.0627                 1.0515                10.0410
 Frc consts  --      1.4625                 1.4667                19.9460
 IR Inten    --      7.2716                 6.1193               167.8353

                     52                     53                     54
                      A                      A                      A
 Frequencies --   2374.6327              2863.2986              3031.9604
 Red. masses --     11.7990                 1.0821                 1.0603
 Frc consts  --     39.2003                 5.2270                 5.7430
 IR Inten    --      1.5871               123.8117                33.2416

                     55                     56                     57
                      A                      A                      A
 Frequencies --   3034.0563              3039.0455              3048.0984
 Red. masses --      1.0648                 1.0346                 1.0417
 Frc consts  --      5.7753                 5.6298                 5.7025
 IR Inten    --     13.5586                34.5775                 8.7867

                     58                     59                     60
                      A                      A                      A
 Frequencies --   3052.9429              3063.9891              3081.6973
 Red. masses --      1.0701                 1.0872                 1.0907
 Frc consts  --      5.8762                 6.0134                 6.1031
 IR Inten    --     31.0537                40.0813                 3.1267

                     61                     62                     63
                      A                      A                      A
 Frequencies --   3089.4943              3099.0724              3100.1868
 Red. masses --      1.0948                 1.1015                 1.1008
 Frc consts  --      6.1567                 6.2328                 6.2336
 IR Inten    --     15.9007                12.7796                57.2089

                     64                     65                     66
                      A                      A                      A
 Frequencies --   3101.2644              3115.6602              3129.9085
 Red. masses --      1.1016                 1.0998                 1.1012
 Frc consts  --      6.2423                 6.2903                 6.3559
 IR Inten    --     12.6965                32.2317                24.8846

 - Thermochemistry -
 -------------------
 Temperature   298.150 Kelvin.  Pressure   1.00000 Atm.
 Atom     1 has atomic number  6 and mass  12.00000

 Molecular mass:   138.10447 amu.
 Principal axes and moments of inertia in atomic units:
                           1         2         3
     Eigenvalues --  1161.183462363.720173176.29712
           X            0.99805   0.06233   0.00359
           Y           -0.06236   0.99803   0.00697
           Z           -0.00315  -0.00718   0.99997
 This molecule is an asymmetric top.
 Rotational symmetry number  1.
 Warning -- assumption of classical behavior for rotation
           may cause significant error
 Rotational temperatures (Kelvin)      0.07459     0.03664     0.02727
 Rotational constants (GHZ):           1.55423     0.76352     0.56819
 Zero-point vibrational energy     549866.5 (Joules/Mol)
                                  131.42125 (Kcal/Mol)
 Warning -- explicit consideration of  17 degrees of freedom as
           vibrations may cause significant error
 Vibrational temperatures:     34.91    39.64    67.62    82.32   154.37
          (Kelvin)            190.61   288.15   328.72   358.31   409.24
                              460.15   503.15   518.31   552.31   642.01
                              761.87   838.68  1019.56  1118.54  1230.20
                             1269.37  1336.45  1383.67  1394.94  1467.83
                             1536.40  1541.10  1542.87  1618.99  1636.17
                             1685.65  1696.45  1763.16  1784.59  1866.97
                             1919.54  1972.35  1978.35  2018.23  2034.06
                             2064.38  2077.41  2079.23  2168.82  2171.08
                             2172.63  2177.40  2187.04  2198.95  2213.73
                             2641.85  3416.57  4119.65  4362.31  4365.33
                             4372.51  4385.53  4392.50  4408.40  4433.88
                             4445.09  4458.87  4460.48  4462.03  4482.74
                             4503.24

 Zero-point correction=                           0.209433 (Hartree/Particle)
 Thermal correction to Energy=                    0.221954
 Thermal correction to Enthalpy=                  0.222898
 Thermal correction to Gibbs Free Energy=         0.168279
 Sum of electronic and zero-point Energies=           -426.372226
 Sum of electronic and thermal Energies=              -426.359705
 Sum of electronic and thermal Enthalpies=            -426.358761
 Sum of electronic and thermal Free Energies=         -426.413380

                     E (Thermal)             CV                S
                      KCal/Mol        Cal/Mol-Kelvin    Cal/Mol-Kelvin
 Total                  139.278             42.739            114.957
 Electronic               0.000              0.000              0.000
 Translational            0.889              2.981             40.680
 Rotational               0.889              2.981             30.545
 Vibrational            137.501             36.778             43.731
 Vibration     1          0.593              1.985              6.250
 Vibration     2          0.593              1.984              5.998
 Vibration     3          0.595              1.979              4.940
 Vibration     4          0.596              1.975              4.551
 Vibration     5          0.606              1.943              3.317
 Vibration     6          0.613              1.921              2.910
 Vibration     7          0.638              1.839              2.131
 Vibration     8          0.651              1.798              1.891
 Vibration     9          0.662              1.764              1.737
 Vibration    10          0.683              1.703              1.507
 Vibration    11          0.706              1.636              1.311
 Vibration    12          0.727              1.576              1.168
 Vibration    13          0.735              1.554              1.121
 Vibration    14          0.753              1.505              1.024
 Vibration    15          0.805              1.369              0.807
 Vibration    16          0.884              1.185              0.588
 Vibration    17          0.940              1.068              0.480

 Optimization completed.
    -- Stationary point found.

 1\1\GINC-NODE113\Freq\RB3LYP\6-31G(d)\C9H14O1\VSC10255\08-Dec-2020\0\\
 #N Geom=AllCheck Guess=TCheck SCRF=Check GenChk RB3LYP/6-31G(d) Freq\\
 CID_72765365_JID_264_neutraal\\0,1\C,1.2419160035,0.2660505188,-0.3043
 478225\C,0.6372198578,1.5690399199,-0.5672780414\C,0.1289671616,2.6427
 410461,-0.7941101243\C,-0.4290702333,3.9697491432,-1.0558767814\C,0.22
 99098328,5.0799719993,-0.2082638638\C,1.7605150153,5.1156205219,-0.305
 5804967\C,2.3175732997,5.2417659922,-1.7416748319\C,1.827950346,6.5061
 258471,-2.4648030892\C,3.8289405622,5.2651625817,-1.6526759111\O,4.566

 Normal termination of Gaussian 16 at Tue Dec  8 10:31:12 2020.

 ----------------------------------------------------------------------
 # B3LYP/6-311++G(d,p) empiricaldispersion=gd3bj scf=xqc pop=npa geom=c
 heck
 ----------------------------------------------------------------------

 -------------------------------------
 CID_72765365_JID_264_Energie_neutraal
 -------------------------------------
 Structure from the checkpoint file:  "JID_264.chk"
 Charge =  0 Multiplicity = 1

 SCF Done:  E(RB3LYP) =  -426.707731647     A.U. after   14 cycles
 Normal termination of Gaussian 16 at Tue Dec  8 10:35:29 2020.

 ----------------------------------------------------------------------
 # B3LYP/6-311++G(d,p) empiricaldispersion=gd3bj scf=xqc pop=npa geom=c
 heck
 ----------------------------------------------------------------------

 -----------------------------------
 CID_72765365_JID_264_Energie_kation
 -----------------------------------
 Structure from the checkpoint file:  "JID_264.chk"
 Charge =  1 Multiplicity = 2

 SCF Done:  E(UB3LYP) =  -426.384574588     A.U. after   29 cycles
 Normal termination of Gaussian 16 at Tue Dec  8 10:44:24 2020.
 Gaussian 16:  ES64L-G16RevA.03 25-Dec-2016

 ----------------------------------
 CID_72765365_JID_264_Energie_anion
 ----------------------------------
 Structure from the checkpoint file:  "JID_264.chk"
 Charge = -1 Multiplicity = 2

                         Standard orientation:
 ---------------------------------------------------------------------
 Center     Atomic      Atomic             Coordinates (Angstroms)
 Number     Number       Type             X           Y           Z
 ---------------------------------------------------------------------
      1          6           0        3.627365    1.449639   -0.018079
      2          6           0        2.719149    0.316638   -0.173083
      3          6           0        1.972396   -0.624328   -0.312901
      4          6           0        1.023167   -1.729199   -0.451117
      5          6           0        0.020578   -1.814208    0.720586
      6          6           0       -0.723776   -0.502849    1.003017
      7          6           0       -1.480667    0.088492   -0.207778
      8          6           0       -2.535827   -0.870499   -0.780687
      9          6           0       -2.154121    1.366735    0.245270
     10          8           0       -1.842757    2.483673   -0.102504
     11          1           0        4.379774    1.468302   -0.815823
     12          1           0        4.160454    1.406400    0.939425
     13          1           0        3.083059    2.400987   -0.052885
     14          1           0        0.474821   -1.620025   -1.396763
     15          1           0        1.562929   -2.682520   -0.525889
     16          1           0       -0.688798   -2.623095    0.508669
     17          1           0        0.562165   -2.102454    1.629213
     18          1           0       -1.432625   -0.669380    1.826290
     19          1           0        0.001538    0.241574    1.350573
     20          1           0       -0.760209    0.372048   -0.982206
     21          1           0       -3.271723   -1.148227   -0.015733
     22          1           0       -3.073981   -0.412960   -1.617837
     23          1           0       -2.073898   -1.792194   -1.146872
     24          1           0       -2.991024    1.209627    0.968488
 ---------------------------------------------------------------------

 SCF Done:  E(UB3LYP) =  -426.695226105     A.U. after   31 cycles

 The electronic state is 2-A.
 Alpha  occ. eigenvalues --  -18.99558 -10.12751 -10.08768 -10.08271 -10.06722
 Alpha  occ. eigenvalues --  -10.06459 -10.06322 -10.05676 -10.05499 -10.05358
 Alpha  occ. eigenvalues --   -0.92668  -0.71762  -0.68277  -0.65947  -0.60661
 Alpha  occ. eigenvalues --   -0.57324  -0.53985  -0.48115  -0.45024  -0.38749
 Alpha  occ. eigenvalues --   -0.36562  -0.36045  -0.34206  -0.32991  -0.32861
 Alpha  occ. eigenvalues --   -0.32392  -0.31888  -0.31722  -0.29234  -0.26933
 Alpha  occ. eigenvalues --   -0.26330  -0.25760  -0.24046  -0.22630  -0.21799
 Alpha  occ. eigenvalues --   -0.15093  -0.15020  -0.13448   0.04738
 Alpha virt. eigenvalues --    0.06471   0.07615   0.08370   0.08679   0.09868
 Alpha virt. eigenvalues --    0.10048   0.10935   0.11062   0.11538   0.12600
 Alpha virt. eigenvalues --    0.12908   0.13294   0.13629   0.15219   0.15639

  Beta  occ. eigenvalues --  -18.99370 -10.12583 -10.08734 -10.08244 -10.06733
  Beta  occ. eigenvalues --  -10.06422 -10.06311 -10.05669 -10.05429 -10.05356
  Beta  occ. eigenvalues --   -0.92313  -0.71701  -0.68214  -0.65881  -0.60590
  Beta  occ. eigenvalues --   -0.57253  -0.53796  -0.47896  -0.44871  -0.38691
  Beta  occ. eigenvalues --   -0.36498  -0.35960  -0.34092  -0.32920  -0.32814
  Beta  occ. eigenvalues --   -0.32281  -0.31746  -0.31606  -0.28950  -0.26867
  Beta  occ. eigenvalues --   -0.26118  -0.25296  -0.23917  -0.22594  -0.21628
  Beta  occ. eigenvalues --   -0.15060  -0.14999  -0.13298
  Beta virt. eigenvalues --    0.06919   0.07731   0.08774   0.08949   0.09507
  Beta virt. eigenvalues --    0.10330   0.10694   0.11163   0.11294   0.11948
  Beta virt. eigenvalues --    0.12893   0.13221   0.13521   0.13996   0.15397

 Mulliken charges and spin densities:
               1          2
     1  C    0.930384  -1.380293
     2  C   -0.302948   0.129393
     3  C    1.076126  -1.069089
     4  C   -1.557579   1.380760
     5  C    0.653927  -1.108593
     6  C   -0.154102   0.149324
     7  C   -0.623434   0.753423
     8  C    1.016953  -1.691567
     9  C    0.046892  -0.102934
    10  O   -0.278353   0.055132
    11  H   -0.144123   0.293230
    12  H   -0.250090   0.404071
    13  H   -0.050823   0.225151
    14  H   -0.004803   0.160961
    15  H   -0.400974   0.596333
    16  H   -0.346809   0.502962
    17  H   -0.224251   0.393398
    18  H    0.067540   0.075089
    19  H    0.100287   0.007806
    20  H    0.248185  -0.067164
    21  H   -0.255479   0.402750
    22  H   -0.052749   0.191892
    23  H   -0.499297   0.657410
    24  H    0.005519   0.040557
 Sum of Mulliken charges =  -1.00000   1.00000

 Dipole moment (field-independent basis, Debye):
    X=             -0.0477    Y=              1.8816    Z=              0.8567  Tot=              2.0680
 Quadrupole moment (field-independent basis, Debye-Ang):
   XX=           -119.5378   YY=           -114.6736   ZZ=            -84.7249
   XY=             -2.3425   XZ=             -5.2861   YZ=             -0.3004

 Summary of Natural Population Analysis:

                                       Natural Population
                Natural  -----------------------------------------------
    Atom  No    Charge         Core      Valence    Rydberg      Total
 -----------------------------------------------------------------------
      C    1   -0.31781      0.99962     2.31257    0.00563     3.31781
      C    2   -0.01355      0.99924     2.00804    0.00627     3.01355
      C    3   -0.01123      0.99925     2.00365    0.00833     3.01123
      C    4   -0.22599      0.99958     2.21721    0.00920     3.22599
      C    5   -0.18164      0.99963     2.17239    0.00962     3.18164
      C    6   -0.18625      0.99960     2.17804    0.00860     3.18625
      C    7   -0.16414      0.99958     2.15365    0.01090     3.16414
      C    8   -0.28702      0.99965     2.28077    0.00660     3.28702
      C    9    0.25454      0.99970     1.72469    0.02107     2.74546
      O   10   -0.26539      0.99988     3.25874    0.00677     4.26539
      H   11    0.10869      0.00000     0.39019    0.00112     0.39131
      H   12    0.11042      0.00000     0.38809    0.00149     0.38958
      H   13    0.11119      0.00000     0.38773    0.00108     0.38881
      H   14    0.10925      0.00000     0.38924    0.00151     0.39075
      H   15    0.11297      0.00000     0.38552    0.00151     0.38703
      H   16    0.10163      0.00000     0.39608    0.00229     0.39837
      H   17    0.09898      0.00000     0.39974    0.00128     0.40102
      H   18    0.09596      0.00000     0.40276    0.00128     0.40404
      H   19    0.10422      0.00000     0.39443    0.00136     0.39578
      H   20    0.10438      0.00000     0.39337    0.00225     0.39562
      H   21    0.09788      0.00000     0.40084    0.00128     0.40212
      H   22    0.10044      0.00000     0.39857    0.00099     0.39956
      H   23    0.10654      0.00000     0.39120    0.00225     0.39346
      H   24    0.03593      0.00000     0.46166    0.00240     0.46407
 =======================================================================
   * Total *   -0.00000      9.99572    27.88919    0.11509    38.00000

 Normal termination of Gaussian 16 at Tue Dec  8 10:51:27 2020.
