 Gaussian 16, Revision A.03,

 -----------------------------------------------------------
 # opt freq B3LYP/6-31G(d) empiricaldispersion=gd3bj scf=xqc
 -----------------------------------------------------------

 ------------------------------
 CID_89112434_JID_1931_neutraal
 ------------------------------
 Symbolic Z-matrix:
 Charge =  0 Multiplicity = 1

 SCF Done:  E(RB3LYP) =  -519.063770814     A.U. after   13 cycles
 SCF Done:  E(RB3LYP) =  -519.072422373     A.U. after   11 cycles
 SCF Done:  E(RB3LYP) =  -519.073277155     A.U. after   10 cycles
 SCF Done:  E(RB3LYP) =  -519.073384668     A.U. after    9 cycles
 SCF Done:  E(RB3LYP) =  -519.073406251     A.U. after    9 cycles
 SCF Done:  E(RB3LYP) =  -519.073408362     A.U. after    8 cycles
 SCF Done:  E(RB3LYP) =  -519.073409289     A.U. after    7 cycles
 SCF Done:  E(RB3LYP) =  -519.073409516     A.U. after    7 cycles
 SCF Done:  E(RB3LYP) =  -519.073409985     A.U. after    7 cycles
 SCF Done:  E(RB3LYP) =  -519.073410538     A.U. after    8 cycles
 SCF Done:  E(RB3LYP) =  -519.073411180     A.U. after    8 cycles
 SCF Done:  E(RB3LYP) =  -519.073411759     A.U. after    9 cycles
 SCF Done:  E(RB3LYP) =  -519.073411835     A.U. after    7 cycles
 Optimization completed.
    -- Stationary point found.
 Normal termination of Gaussian 16 at Tue Dec  8 21:39:30 2020.

 --------------------------------------------------------------------
 #N Geom=AllCheck Guess=TCheck SCRF=Check GenChk RB3LYP/6-31G(d) Freq
 --------------------------------------------------------------------

 Structure from the checkpoint file:  "JID_1931.chk"
 ------------------------------
 CID_89112434_JID_1931_neutraal
 ------------------------------
 Charge =  0 Multiplicity = 1

 SCF Done:  E(RB3LYP) =  -519.073411835     A.U. after    1 cycles

  Exact polarizability: 113.446   6.314  82.461  -0.499   1.833  82.510
 Approx polarizability: 135.635   4.949 122.236  -2.740   1.578 120.737

                      1                      2                      3
                      A                      A                      A
 Frequencies --     28.7664                40.9135                70.7103
 Red. masses --      2.4301                 4.0793                 3.2952
 Frc consts  --      0.0012                 0.0040                 0.0097
 IR Inten    --      0.2573                 0.1271                 1.7251

                      4                      5                      6
                      A                      A                      A
 Frequencies --    106.8966               182.2223               214.7644
 Red. masses --      3.5800                 2.7376                 1.1531
 Frc consts  --      0.0241                 0.0536                 0.0313
 IR Inten    --      0.2802                 0.3275                 0.6327

                      7                      8                      9
                      A                      A                      A
 Frequencies --    260.1595               294.8406               332.6554
 Red. masses --      2.4900                 2.2962                 3.1252
 Frc consts  --      0.0993                 0.1176                 0.2038
 IR Inten    --      4.5843                 4.1917                 2.6366

                     10                     11                     12
                      A                      A                      A
 Frequencies --    346.6806               438.9958               484.2118
 Red. masses --      2.8100                 2.4178                 2.8530
 Frc consts  --      0.1990                 0.2745                 0.3941
 IR Inten    --      1.6733                 3.2172                 4.7010

                     13                     14                     15
                      A                      A                      A
 Frequencies --    541.6512               614.3192               658.4472
 Red. masses --      2.2619                 3.5156                 2.6398
 Frc consts  --      0.3910                 0.7817                 0.6743
 IR Inten    --      5.6608                 1.4350                 2.0390

                     16                     17                     18
                      A                      A                      A
 Frequencies --    790.9978               806.0455               840.7817
 Red. masses --      2.0748                 1.9388                 2.0424
 Frc consts  --      0.7649                 0.7422                 0.8507
 IR Inten    --     11.8643                 4.2020                27.3782

                     19                     20                     21
                      A                      A                      A
 Frequencies --    859.2058               871.2480               907.2799
 Red. masses --      2.5052                 1.7554                 2.5457
 Frc consts  --      1.0896                 0.7851                 1.2346
 IR Inten    --      6.1299               101.2651                29.4267

                     22                     23                     24
                      A                      A                      A
 Frequencies --    923.4001               938.8290               945.0262
 Red. masses --      3.4910                 3.7982                 2.7793
 Frc consts  --      1.7538                 1.9724                 1.4624
 IR Inten    --      9.4746                 3.8724                26.6410

                     25                     26                     27
                      A                      A                      A
 Frequencies --    982.0707               988.1314              1036.0404
 Red. masses --      2.5310                 2.3256                 1.4950
 Frc consts  --      1.4382                 1.3379                 0.9455
 IR Inten    --     28.1758                 6.2582                 3.9159

                     28                     29                     30
                      A                      A                      A
 Frequencies --   1051.5380              1086.7844              1090.1947
 Red. masses --      1.7729                 1.8241                 1.9716
 Frc consts  --      1.1550                 1.2694                 1.3806
 IR Inten    --     10.0703                12.8565                40.3807

                     31                     32                     33
                      A                      A                      A
 Frequencies --   1106.6295              1113.0023              1143.2382
 Red. masses --      2.9853                 3.8894                 2.7882
 Frc consts  --      2.1540                 2.8387                 2.1471
 IR Inten    --      1.6023               260.3714                96.3328

                     34                     35                     36
                      A                      A                      A
 Frequencies --   1158.4881              1183.1390              1206.6888
 Red. masses --      2.2817                 2.4474                 1.3769
 Frc consts  --      1.8042                 2.0185                 1.1813
 IR Inten    --     20.8847                 2.6461                 1.5939

                     37                     38                     39
                      A                      A                      A
 Frequencies --   1244.5305              1248.9201              1285.5239
 Red. masses --      1.2325                 1.2997                 1.1853
 Frc consts  --      1.1247                 1.1945                 1.1541
 IR Inten    --      1.7685                 2.2661                 0.2589

                     40                     41                     42
                      A                      A                      A
 Frequencies --   1304.6876              1315.6616              1332.6660
 Red. masses --      1.4165                 1.3516                 1.3802
 Frc consts  --      1.4207                 1.3784                 1.4442
 IR Inten    --      1.1142                 1.1164                 2.8758

                     43                     44                     45
                      A                      A                      A
 Frequencies --   1343.2105              1373.4054              1377.6082
 Red. masses --      1.2837                 1.3972                 1.2410
 Frc consts  --      1.3646                 1.5528                 1.3877
 IR Inten    --      3.6393                30.8864                 5.9181

                     46                     47                     48
                      A                      A                      A
 Frequencies --   1387.1336              1409.9515              1421.3759
 Red. masses --      1.4412                 1.2708                 1.3116
 Frc consts  --      1.6338                 1.4884                 1.5612
 IR Inten    --      4.9932                35.3921                 1.4972

                     49                     50                     51
                      A                      A                      A
 Frequencies --   1437.8387              1481.2116              1486.7992
 Red. masses --      1.3852                 1.4121                 1.1741
 Frc consts  --      1.6873                 1.8253                 1.5292
 IR Inten    --     68.1211                 3.1785                 7.1628

                     52                     53                     54
                      A                      A                      A
 Frequencies --   1498.6221              1512.6230              1513.9728
 Red. masses --      1.1011                 1.0618                 1.1179
 Frc consts  --      1.4570                 1.4314                 1.5097
 IR Inten    --      4.1694                 2.0530                11.8617

                     55                     56                     57
                      A                      A                      A
 Frequencies --   1522.7159              1528.7943              1542.6550
 Red. masses --      1.0849                 1.0886                 1.0979
 Frc consts  --      1.4821                 1.4990                 1.5395
 IR Inten    --      0.4085                 4.5199                 1.6145

                     58                     59                     60
                      A                      A                      A
 Frequencies --   2998.3059              3010.8419              3028.6817
 Red. masses --      1.0834                 1.0869                 1.0825
 Frc consts  --      5.7386                 5.8052                 5.8504
 IR Inten    --     96.7470                93.5067                19.6236

                     61                     62                     63
                      A                      A                      A
 Frequencies --   3047.0632              3049.8543              3060.5277
 Red. masses --      1.0650                 1.0675                 1.0354
 Frc consts  --      5.8259                 5.8505                 5.7141
 IR Inten    --     18.8799                42.8755                 7.4357

                     64                     65                     66
                      A                      A                      A
 Frequencies --   3067.0351              3075.9365              3091.7552
 Red. masses --      1.0615                 1.0608                 1.1010
 Frc consts  --      5.8830                 5.9133                 6.2011
 IR Inten    --     46.6229                13.1224                27.4118

                     67                     68                     69
                      A                      A                      A
 Frequencies --   3099.4958              3118.4548              3122.5017
 Red. masses --      1.1012                 1.1032                 1.1069
 Frc consts  --      6.2331                 6.3211                 6.3589
 IR Inten    --     24.9373                48.2014                38.4473

                     70                     71                     72
                      A                      A                      A
 Frequencies --   3131.7877              3151.1197              3454.6066
 Red. masses --      1.1022                 1.1036                 1.0741
 Frc consts  --      6.3693                 6.4563                 7.5525
 IR Inten    --     14.1694                23.0180                 4.2545

 - Thermochemistry -
 -------------------
 Temperature   298.150 Kelvin.  Pressure   1.00000 Atm.
 Atom     1 has atomic number  6 and mass  12.00000

 Molecular mass:   157.11028 amu.
 Principal axes and moments of inertia in atomic units:
                           1         2         3
     Eigenvalues --   677.287713212.512903422.55881
           X            0.99983   0.01722   0.00591
           Y           -0.01742   0.99919   0.03635
           Z           -0.00528  -0.03644   0.99932
 This molecule is an asymmetric top.
 Rotational symmetry number  1.
 Warning -- assumption of classical behavior for rotation
           may cause significant error
 Rotational temperatures (Kelvin)      0.12788     0.02696     0.02531
 Rotational constants (GHZ):           2.66466     0.56178     0.52731
 Zero-point vibrational energy     608437.9 (Joules/Mol)
                                  145.42014 (Kcal/Mol)
 Warning -- explicit consideration of  14 degrees of freedom as
           vibrations may cause significant error
 Vibrational temperatures:     41.39    58.87   101.74   153.80   262.18
          (Kelvin)            309.00   374.31   424.21   478.62   498.80
                              631.62   696.67   779.32   883.87   947.36
                             1138.07  1159.72  1209.70  1236.21  1253.53
                             1305.37  1328.57  1350.77  1359.68  1412.98
                             1421.70  1490.63  1512.93  1563.64  1568.55
                             1592.19  1601.36  1644.86  1666.81  1702.27
                             1736.16  1790.60  1796.92  1849.58  1877.15
                             1892.94  1917.41  1932.58  1976.02  1982.07
                             1995.78  2028.61  2045.04  2068.73  2131.13
                             2139.17  2156.18  2176.33  2178.27  2190.85
                             2199.59  2219.54  4313.89  4331.93  4357.60
                             4384.04  4388.06  4403.42  4412.78  4425.59
                             4448.35  4459.48  4486.76  4492.58  4505.94
                             4533.76  4970.41

 Zero-point correction=                           0.231742 (Hartree/Particle)
 Thermal correction to Energy=                    0.242602
 Thermal correction to Enthalpy=                  0.243546
 Thermal correction to Gibbs Free Energy=         0.193488
 Sum of electronic and zero-point Energies=           -518.841670
 Sum of electronic and thermal Energies=              -518.830810
 Sum of electronic and thermal Enthalpies=            -518.829866
 Sum of electronic and thermal Free Energies=         -518.879924

                     E (Thermal)             CV                S
                      KCal/Mol        Cal/Mol-Kelvin    Cal/Mol-Kelvin
 Total                  152.235             40.462            105.357
 Electronic               0.000              0.000              0.000
 Translational            0.889              2.981             41.065
 Rotational               0.889              2.981             30.389
 Vibrational            150.457             34.501             33.903
 Vibration     1          0.593              1.984              5.913
 Vibration     2          0.594              1.981              5.214
 Vibration     3          0.598              1.968              4.133
 Vibration     4          0.606              1.944              3.325
 Vibration     5          0.630              1.864              2.306
 Vibration     6          0.645              1.818              2.003
 Vibration     7          0.668              1.746              1.661
 Vibration     8          0.689              1.683              1.446
 Vibration     9          0.715              1.610              1.247
 Vibration    10          0.725              1.582              1.181
 Vibration    11          0.799              1.385              0.830
 Vibration    12          0.840              1.285              0.699
 Vibration    13          0.897              1.158              0.562
 Vibration    14          0.974              1.002              0.426

                           ! Non-Optimized Parameters !
 Normal termination of Gaussian 16 at Tue Dec  8 21:45:38 2020.

 ----------------------------------------------------------------------
 # B3LYP/6-311++G(d,p) empiricaldispersion=gd3bj scf=xqc pop=npa geom=c
 heck
 ----------------------------------------------------------------------

 --------------------------------------
 CID_89112434_JID_1931_Energie_neutraal
 --------------------------------------
 Structure from the checkpoint file:  "JID_1931.chk"
 Charge =  0 Multiplicity = 1

 SCF Done:  E(RB3LYP) =  -519.224636997     A.U. after   13 cycles
 Normal termination of Gaussian 16 at Tue Dec  8 21:48:44 2020.

 ----------------------------------------------------------------------
 # B3LYP/6-311++G(d,p) empiricaldispersion=gd3bj scf=xqc pop=npa geom=c
 heck
 ----------------------------------------------------------------------

 ------------------------------------
 CID_89112434_JID_1931_Energie_kation
 ------------------------------------
 Structure from the checkpoint file:  "JID_1931.chk"
 Charge =  1 Multiplicity = 2

 SCF Done:  E(UB3LYP) =  -518.915727053     A.U. after   20 cycles
 Normal termination of Gaussian 16 at Tue Dec  8 21:53:54 2020.
 Gaussian 16:  ES64L-G16RevA.03 25-Dec-2016

 ----------------------------------------------------------------------
 # B3LYP/6-311++G(d,p) empiricaldispersion=gd3bj scf=xqc pop=npa geom=c
 heck
 ----------------------------------------------------------------------

 -----------------------------------
 CID_89112434_JID_1931_Energie_anion
 -----------------------------------
 Structure from the checkpoint file:  "JID_1931.chk"
 Charge = -1 Multiplicity = 2

                         Standard orientation:
 ---------------------------------------------------------------------
 Center     Atomic      Atomic             Coordinates (Angstroms)
 Number     Number       Type             X           Y           Z
 ---------------------------------------------------------------------
      1          6           0        3.665407    0.804591    0.383009
      2          6           0        2.709786    0.167058   -0.592665
      3          8           0        2.253168   -1.137746   -0.208808
      4          6           0        0.917031   -0.624407   -0.311971
      5          8           0        1.383334    0.712560   -0.562601
      6          6           0        0.106871   -0.797897    0.953867
      7          6           0       -1.355348   -0.335169    0.867935
      8          6           0       -2.258128   -1.142218   -0.110519
      9          6           0       -3.097697   -0.056908   -0.845096
     10          7           0       -2.950874    1.202463   -0.095583
     11          6           0       -1.577785    1.134086    0.421254
     12          1           0        3.860422    1.841834    0.089428
     13          1           0        4.615197    0.258742    0.386263
     14          1           0        3.237250    0.789041    1.388828
     15          1           0        3.114421    0.161882   -1.617643
     16          1           0        0.404012   -1.031311   -1.197260
     17          1           0        0.143078   -1.865839    1.208777
     18          1           0        0.633250   -0.261776    1.752150
     19          1           0       -1.777058   -0.436063    1.876574
     20          1           0       -2.894294   -1.842936    0.440147
     21          1           0       -1.673342   -1.738710   -0.819007
     22          1           0       -2.698956    0.102079   -1.854711
     23          1           0       -4.154498   -0.319050   -0.949403
     24          1           0       -3.589469    1.173329    0.700305
     25          1           0       -1.426647    1.856378    1.229336
     26          1           0       -0.890092    1.401832   -0.388318
 ---------------------------------------------------------------------

 SCF Done:  E(UB3LYP) =  -519.208807857     A.U. after   29 cycles

 The electronic state is 2-A.
 Alpha  occ. eigenvalues --  -19.03874 -19.03775 -14.18895 -10.18534 -10.18157
 Alpha  occ. eigenvalues --  -10.08467 -10.07782 -10.07289 -10.07212 -10.07049
 Alpha  occ. eigenvalues --  -10.06026  -1.03649  -0.86988  -0.81169  -0.70546
 Alpha  occ. eigenvalues --   -0.66699  -0.62556  -0.60002  -0.53576  -0.49566
 Alpha  occ. eigenvalues --   -0.48179  -0.45681  -0.42615  -0.41189  -0.40145
 Alpha  occ. eigenvalues --   -0.37840  -0.36663  -0.33709  -0.32799  -0.32340
 Alpha  occ. eigenvalues --   -0.31320  -0.30174  -0.28715  -0.27640  -0.26559
 Alpha  occ. eigenvalues --   -0.24715  -0.23836  -0.23525  -0.22322  -0.21697
 Alpha  occ. eigenvalues --   -0.21120  -0.15766  -0.12827   0.04611
 Alpha virt. eigenvalues --    0.06096   0.07458   0.08616   0.08808   0.09192
 Alpha virt. eigenvalues --    0.09742   0.10834   0.11311   0.11507   0.11938
 Alpha virt. eigenvalues --    0.12524   0.13667   0.13898   0.14594   0.15634

  Beta  occ. eigenvalues --  -19.03866 -19.03768 -14.18874 -10.18521 -10.18152
  Beta  occ. eigenvalues --  -10.08450 -10.07770 -10.07252 -10.07201 -10.07030
  Beta  occ. eigenvalues --  -10.06002  -1.03636  -0.86974  -0.81128  -0.70513
  Beta  occ. eigenvalues --   -0.66656  -0.62509  -0.59958  -0.53524  -0.49499
  Beta  occ. eigenvalues --   -0.48129  -0.45633  -0.42600  -0.41168  -0.40069
  Beta  occ. eigenvalues --   -0.37796  -0.36624  -0.33662  -0.32756  -0.32303
  Beta  occ. eigenvalues --   -0.31282  -0.30141  -0.28671  -0.27604  -0.26519
  Beta  occ. eigenvalues --   -0.24683  -0.23802  -0.23494  -0.22283  -0.21649
  Beta  occ. eigenvalues --   -0.21094  -0.15728  -0.12798
  Beta virt. eigenvalues --    0.06896   0.07504   0.07932   0.09070   0.09464
  Beta virt. eigenvalues --    0.09790   0.10415   0.11156   0.11605   0.11866
  Beta virt. eigenvalues --    0.12344   0.12962   0.13877   0.14165   0.14766

 Mulliken charges and spin densities:
               1          2
     1  C    1.641829  -2.077119
     2  C   -0.168250   0.318665
     3  O   -0.141128   0.020822
     4  C    0.078778  -0.752274
     5  O   -0.108537   0.029697
     6  C   -1.377636   1.189919
     7  C    0.631353  -0.256165
     8  C   -0.062812  -0.307199
     9  C    0.621519  -1.093281
    10  N   -0.191181   0.129104
    11  C    0.491561  -1.184866
    12  H   -0.220168   0.376741
    13  H   -0.249562   0.408335
    14  H   -0.147827   0.300854
    15  H   -0.431765   0.592732
    16  H    0.250588  -0.096797
    17  H    0.077334   0.107821
    18  H   -0.136936   0.283757
    19  H   -0.792371   1.032789
    20  H   -0.443521   0.602856
    21  H   -0.134406   0.252238
    22  H    0.086212   0.056586
    23  H   -0.263841   0.431582
    24  H   -0.057526   0.301260
    25  H   -0.128780   0.290394
    26  H    0.177073   0.041548
 Sum of Mulliken charges =  -1.00000   1.00000

 Dipole moment (field-independent basis, Debye):
    X=              2.2168    Y=             -0.9516    Z=             -2.9718  Tot=              3.8277
 Quadrupole moment (field-independent basis, Debye-Ang):
   XX=           -153.8980   YY=           -103.5731   ZZ=           -101.6880
   XY=             -4.4492   XZ=              8.7766   YZ=              2.8966

 Summary of Natural Population Analysis:

                                       Natural Population
                Natural  -----------------------------------------------
    Atom  No    Charge         Core      Valence    Rydberg      Total
 -----------------------------------------------------------------------
      C    1   -0.30579      0.99964     2.30017    0.00598     3.30579
      C    2    0.22857      0.99963     1.75242    0.01938     2.77143
      O    3   -0.31045      0.99990     3.30305    0.00751     4.31045
      C    4    0.23202      0.99959     1.75139    0.01700     2.76798
      O    5   -0.31146      0.99989     3.30403    0.00753     4.31146
      C    6   -0.20981      0.99958     2.19923    0.01100     3.20981
      C    7   -0.12173      0.99960     2.10866    0.01347     3.12173
      C    8   -0.20122      0.99962     2.19275    0.00885     3.20122
      C    9   -0.09116      0.99964     2.08021    0.01130     3.09116
      N   10   -0.33468      0.99977     2.82223    0.01269     3.83468
      C   11   -0.09196      0.99961     2.08030    0.01205     3.09196
      H   12    0.10637      0.00000     0.39214    0.00149     0.39363
      H   13    0.10566      0.00000     0.39263    0.00171     0.39434
      H   14    0.10601      0.00000     0.39263    0.00136     0.39399
      H   15    0.06987      0.00000     0.42868    0.00145     0.43013
      H   16    0.07173      0.00000     0.42670    0.00157     0.42827
      H   17    0.10731      0.00000     0.39146    0.00122     0.39269
      H   18    0.10628      0.00000     0.39218    0.00154     0.39372
      H   19    0.10304      0.00000     0.39255    0.00441     0.39696
      H   20    0.10370      0.00000     0.39378    0.00252     0.39630
      H   21    0.09231      0.00000     0.40634    0.00135     0.40769
      H   22    0.08501      0.00000     0.41354    0.00145     0.41499
      H   23    0.09650      0.00000     0.40225    0.00125     0.40350
      H   24    0.17060      0.00000     0.32573    0.00367     0.32940
      H   25    0.09855      0.00000     0.40040    0.00105     0.40145
      H   26    0.09472      0.00000     0.40296    0.00232     0.40528
 =======================================================================
   * Total *   -0.00000     10.99647    31.84840    0.15513    43.00000

 Normal termination of Gaussian 16 at Tue Dec  8 22:00:50 2020.
