 Gaussian 16, Revision A.03,

 -----------------------------------------------------------
 # opt freq B3LYP/6-31G(d) empiricaldispersion=gd3bj scf=xqc
 -----------------------------------------------------------

 -------------------------------
 CID_152716374_JID_9090_neutraal
 -------------------------------
 Symbolic Z-matrix:
 Charge =  0 Multiplicity = 1

 SCF Done:  E(RB3LYP) =  -922.904236497     A.U. after   14 cycles
 SCF Done:  E(RB3LYP) =  -922.912172233     A.U. after   14 cycles
 SCF Done:  E(RB3LYP) =  -922.910246612     A.U. after   15 cycles
 SCF Done:  E(RB3LYP) =  -922.913253842     A.U. after   12 cycles
 SCF Done:  E(RB3LYP) =  -922.914731146     A.U. after   12 cycles
 SCF Done:  E(RB3LYP) =  -922.915086502     A.U. after   13 cycles
 SCF Done:  E(RB3LYP) =  -922.915498682     A.U. after   13 cycles
 SCF Done:  E(RB3LYP) =  -922.915532698     A.U. after   12 cycles
 SCF Done:  E(RB3LYP) =  -922.915792284     A.U. after   11 cycles
 SCF Done:  E(RB3LYP) =  -922.915768878     A.U. after   12 cycles
 SCF Done:  E(RB3LYP) =  -922.919265731     A.U. after    9 cycles
 SCF Done:  E(RB3LYP) =  -922.919265815     A.U. after    7 cycles
 SCF Done:  E(RB3LYP) =  -922.919265856     A.U. after    7 cycles
 SCF Done:  E(RB3LYP) =  -922.919265882     A.U. after    7 cycles
 Optimization completed.
    -- Stationary point found.
 Normal termination of Gaussian 16 at Sat Dec 12 10:34:53 2020.

 --------------------------------------------------------------------
 #N Geom=AllCheck Guess=TCheck SCRF=Check GenChk RB3LYP/6-31G(d) Freq
 --------------------------------------------------------------------

 Structure from the checkpoint file:  "JID_9090.chk"
 -------------------------------
 CID_152716374_JID_9090_neutraal
 -------------------------------
 Charge =  0 Multiplicity = 1

 SCF Done:  E(RB3LYP) =  -922.919265881     A.U. after    1 cycles

  Exact polarizability: 165.467   3.965 166.372   1.681  -0.669 131.021
 Approx polarizability: 227.570  -2.083 223.796   8.707   5.299 213.795

                      1                      2                      3
                      A                      A                      A
 Frequencies --      9.6895                22.7690                24.8761
 Red. masses --      4.2624                 3.7054                 4.4829
 Frc consts  --      0.0002                 0.0011                 0.0016
 IR Inten    --      2.6388                 3.5425                 1.1104

                      4                      5                      6
                      A                      A                      A
 Frequencies --     39.4850                46.6572                54.8463
 Red. masses --      4.8006                 4.5630                 5.3408
 Frc consts  --      0.0044                 0.0059                 0.0095
 IR Inten    --      0.3458                 1.6070                 3.8542

                      7                      8                      9
                      A                      A                      A
 Frequencies --     61.5249                78.2209                85.9613
 Red. masses --      5.2755                 5.6893                 5.3804
 Frc consts  --      0.0118                 0.0205                 0.0234
 IR Inten    --      4.5371                 2.8121                 2.1730

                     10                     11                     12
                      A                      A                      A
 Frequencies --     93.1859               105.8178               119.8045
 Red. masses --      4.0425                 3.1033                 1.3437
 Frc consts  --      0.0207                 0.0205                 0.0114
 IR Inten    --      1.1854                 2.3229                 0.9981

                     13                     14                     15
                      A                      A                      A
 Frequencies --    135.2260               152.6982               174.5635
 Red. masses --      4.0766                 1.0792                 4.6722
 Frc consts  --      0.0439                 0.0148                 0.0839
 IR Inten    --      8.0464                 0.6995                 1.2746

                     16                     17                     18
                      A                      A                      A
 Frequencies --    202.2514               214.7116               253.9265
 Red. masses --      2.8667                 2.7503                 2.6455
 Frc consts  --      0.0691                 0.0747                 0.1005
 IR Inten    --      1.7199                 1.9903                 7.7933

                     19                     20                     21
                      A                      A                      A
 Frequencies --    272.3800               290.7102               325.8720
 Red. masses --      2.7023                 2.7431                 2.5386
 Frc consts  --      0.1181                 0.1366                 0.1588
 IR Inten    --      5.3957                 6.7454                 0.5161

                     22                     23                     24
                      A                      A                      A
 Frequencies --    336.8996               362.1510               419.8713
 Red. masses --      2.5039                 2.7752                 2.3421
 Frc consts  --      0.1674                 0.2145                 0.2433
 IR Inten    --      0.6952                 4.1838                18.8835

                     25                     26                     27
                      A                      A                      A
 Frequencies --    430.3031               441.4969               460.5590
 Red. masses --      2.1871                 2.9258                 2.0671
 Frc consts  --      0.2386                 0.3360                 0.2583
 IR Inten    --      1.6193                 5.9091                 1.1941

                     28                     29                     30
                      A                      A                      A
 Frequencies --    484.9503               491.1960               508.8154
 Red. masses --      2.3960                 2.5291                 2.2344
 Frc consts  --      0.3320                 0.3595                 0.3408
 IR Inten    --      5.6510                 7.1628                 3.2666

                     31                     32                     33
                      A                      A                      A
 Frequencies --    519.9303               583.2335               585.5450
 Red. masses --      3.7279                 3.2836                 3.2982
 Frc consts  --      0.5938                 0.6581                 0.6663
 IR Inten    --     13.8000                 6.1102                 1.5501

                     34                     35                     36
                      A                      A                      A
 Frequencies --    653.1081               675.8245               710.4274
 Red. masses --      3.2857                 2.6911                 3.0253
 Frc consts  --      0.8257                 0.7242                 0.8996
 IR Inten    --      2.2658                 1.0388                 0.1834

                     37                     38                     39
                      A                      A                      A
 Frequencies --    742.1337               764.3893               777.4091
 Red. masses --      2.3650                 2.8026                 3.2475
 Frc consts  --      0.7674                 0.9648                 1.1564
 IR Inten    --      2.8298                 4.1981                 2.1663

                     40                     41                     42
                      A                      A                      A
 Frequencies --    812.4356               848.8767               871.8125
 Red. masses --      1.9984                 1.9485                 1.9095
 Frc consts  --      0.7772                 0.8273                 0.8551
 IR Inten    --     15.9664                 0.9126                 1.6141

                     43                     44                     45
                      A                      A                      A
 Frequencies --    901.8670               933.0918               937.2711
 Red. masses --      1.8817                 1.7008                 2.1405
 Frc consts  --      0.9017                 0.8725                 1.1079
 IR Inten    --      0.3078                 7.0747                 0.2507

                     46                     47                     48
                      A                      A                      A
 Frequencies --    972.2061               978.2613               984.7046
 Red. masses --      1.8540                 2.1071                 2.2455
 Frc consts  --      1.0324                 1.1881                 1.2828
 IR Inten    --      1.2808                 7.6595                 9.7709

                     49                     50                     51
                      A                      A                      A
 Frequencies --    993.1840              1013.3924              1029.3313
 Red. masses --      2.5877                 2.3413                 2.0296
 Frc consts  --      1.5039                 1.4166                 1.2670
 IR Inten    --     12.1264                 4.1185                18.1738

                     52                     53                     54
                      A                      A                      A
 Frequencies --   1043.0469              1055.9230              1072.9479
 Red. masses --      1.6365                 2.2551                 2.1798
 Frc consts  --      1.0490                 1.4814                 1.4785
 IR Inten    --      2.9069                15.1795                10.8775

                     55                     56                     57
                      A                      A                      A
 Frequencies --   1088.9420              1099.9005              1132.5423
 Red. masses --      2.4606                 2.3347                 3.1298
 Frc consts  --      1.7191                 1.6641                 2.3652
 IR Inten    --     11.3159                10.8859               148.3523

                     58                     59                     60
                      A                      A                      A
 Frequencies --   1140.8729              1175.7390              1191.7400
 Red. masses --      2.7998                 1.9314                 1.4286
 Frc consts  --      2.1471                 1.5731                 1.1955
 IR Inten    --     91.5521                20.2435                12.3096

                     61                     62                     63
                      A                      A                      A
 Frequencies --   1196.0645              1215.5622              1220.7120
 Red. masses --      1.7394                 1.8282                 1.4391
 Frc consts  --      1.4661                 1.5916                 1.2635
 IR Inten    --     21.0023                66.7604                47.5569

                     64                     65                     66
                      A                      A                      A
 Frequencies --   1237.6207              1249.1611              1272.3878
 Red. masses --      1.3323                 1.2715                 1.3860
 Frc consts  --      1.2024                 1.1690                 1.3221
 IR Inten    --      4.6951                23.1319                 5.2091

                     67                     68                     69
                      A                      A                      A
 Frequencies --   1291.7550              1302.4371              1327.1469
 Red. masses --      1.3772                 1.4749                 1.3917
 Frc consts  --      1.3539                 1.4741                 1.4442
 IR Inten    --     23.6322                21.8392                25.7827

                     70                     71                     72
                      A                      A                      A
 Frequencies --   1371.8761              1375.5096              1379.6863
 Red. masses --      1.3023                 1.4309                 1.3311
 Frc consts  --      1.4441                 1.5951                 1.4929
 IR Inten    --      5.3223                 8.4167                 2.1420

                     73                     74                     75
                      A                      A                      A
 Frequencies --   1390.8202              1393.9299              1405.5111
 Red. masses --      1.3777                 1.4954                 1.3325
 Frc consts  --      1.5702                 1.7119                 1.5509
 IR Inten    --      7.3585                21.4072                44.4779

                     76                     77                     78
                      A                      A                      A
 Frequencies --   1412.1617              1415.2070              1417.1323
 Red. masses --      1.3712                 1.4100                 1.6677
 Frc consts  --      1.6111                 1.6638                 1.9732
 IR Inten    --     48.2316                30.2459                25.6113

                     79                     80                     81
                      A                      A                      A
 Frequencies --   1444.2467              1465.5538              1482.9718
 Red. masses --      1.2439                 1.0848                 1.0775
 Frc consts  --      1.5287                 1.3728                 1.3962
 IR Inten    --      3.3702                30.1345                13.5857

                     82                     83                     84
                      A                      A                      A
 Frequencies --   1483.8782              1490.0790              1490.3139
 Red. masses --      1.0893                 1.1066                 1.0853
 Frc consts  --      1.4132                 1.4476                 1.4203
 IR Inten    --     17.3578                12.1231                12.5157

                     85                     86                     87
                      A                      A                      A
 Frequencies --   1490.8550              1494.4034              1496.6039
 Red. masses --      1.0830                 1.0576                 1.0596
 Frc consts  --      1.4182                 1.3916                 1.3983
 IR Inten    --      2.4678                14.3788                16.6315

                     88                     89                     90
                      A                      A                      A
 Frequencies --   1502.4114              1505.0372              1516.1395
 Red. masses --      1.0898                 1.0617                 1.0853
 Frc consts  --      1.4494                 1.4170                 1.4698
 IR Inten    --     14.4408                 6.7301                11.1406

                     91                     92                     93
                      A                      A                      A
 Frequencies --   1533.0029              1790.8958              1799.3051
 Red. masses --      1.0999                10.2600                10.3624
 Frc consts  --      1.5230                19.3883                19.7660
 IR Inten    --      5.2965               127.0691               168.5254

                     94                     95                     96
                      A                      A                      A
 Frequencies --   1811.7421              1813.5458              3030.2226
 Red. masses --      9.9811                10.1345                 1.0637
 Frc consts  --     19.3029                19.6385                 5.7547
 IR Inten    --    161.0381                89.5897                14.7927

                     97                     98                     99
                      A                      A                      A
 Frequencies --   3040.9852              3044.0571              3050.1844
 Red. masses --      1.0647                 1.0651                 1.0404
 Frc consts  --      5.8010                 5.8151                 5.7028
 IR Inten    --     14.2845                11.0280                 4.8406

                    100                    101                    102
                      A                      A                      A
 Frequencies --   3050.7539              3054.6989              3059.0307
 Red. masses --      1.0623                 1.0433                 1.0630
 Frc consts  --      5.8255                 5.7356                 5.8607
 IR Inten    --      9.6123                11.2050                10.6004

                    103                    104                    105
                      A                      A                      A
 Frequencies --   3065.2141              3073.8469              3083.5863
 Red. masses --      1.0923                 1.0575                 1.0621
 Frc consts  --      6.0469                 5.8870                 5.9502
 IR Inten    --     12.6977                37.0149                11.6412

                    106                    107                    108
                      A                      A                      A
 Frequencies --   3088.3356              3105.2106              3107.8401
 Red. masses --      1.0963                 1.0636                 1.0997
 Frc consts  --      6.1609                 6.0425                 6.2582
 IR Inten    --      3.1811                15.7791                 7.2005

                    109                    110                    111
                      A                      A                      A
 Frequencies --   3109.3826              3115.2666              3117.5465
 Red. masses --      1.0982                 1.0967                 1.0962
 Frc consts  --      6.2557                 6.2709                 6.2772
 IR Inten    --      9.5185                13.2828                 9.3035

                    112                    113                    114
                      A                      A                      A
 Frequencies --   3124.4444              3128.1888              3136.2727
 Red. masses --      1.1053                 1.1004                 1.1050
 Frc consts  --      6.3572                 6.3442                 6.4038
 IR Inten    --     39.0726                11.4272                 6.0433

                    115                    116                    117
                      A                      A                      A
 Frequencies --   3165.5885              3168.1320              3182.3995
 Red. masses --      1.1021                 1.1023                 1.1011
 Frc consts  --      6.5072                 6.5184                 6.5703
 IR Inten    --     13.0887                 8.8059                 9.8982

 - Thermochemistry -
 -------------------
 Temperature   298.150 Kelvin.  Pressure   1.00000 Atm.
 Atom     1 has atomic number  6 and mass  12.00000

 Molecular mass:   270.14672 amu.
 Principal axes and moments of inertia in atomic units:
                           1         2         3
     Eigenvalues --  4297.438785600.740728323.80278
           X            0.99790   0.06463  -0.00433
           Y           -0.06462   0.99791   0.00283
           Z            0.00451  -0.00255   0.99999
 This molecule is an asymmetric top.
 Rotational symmetry number  1.
 Warning -- assumption of classical behavior for rotation
           may cause significant error
 Rotational temperatures (Kelvin)      0.02015     0.01546     0.01041
 Rotational constants (GHZ):           0.41996     0.32223     0.21682
 Zero-point vibrational energy     912621.3 (Joules/Mol)
                                  218.12172 (Kcal/Mol)
 Warning -- explicit consideration of  33 degrees of freedom as
           vibrations may cause significant error
 Vibrational temperatures:     13.94    32.76    35.79    56.81    67.13
          (Kelvin)             78.91    88.52   112.54   123.68   134.07
                              152.25   172.37   194.56   219.70   251.16
                              290.99   308.92   365.34   391.89   418.27
                              468.86   484.72   521.05   604.10   619.11
                              635.22   662.64   697.74   706.72   732.07
                              748.06   839.14   842.47   939.68   972.36
                             1022.15  1067.76  1099.79  1118.52  1168.91
                             1221.34  1254.34  1297.59  1342.51  1348.52
                             1398.79  1407.50  1416.77  1428.97  1458.05
                             1480.98  1500.71  1519.24  1543.73  1566.74
                             1582.51  1629.48  1641.46  1691.63  1714.65
                             1720.87  1748.92  1756.33  1780.66  1797.26
                             1830.68  1858.55  1873.92  1909.47  1973.82
                             1979.05  1985.06  2001.08  2005.55  2022.22
                             2031.79  2036.17  2038.94  2077.95  2108.61
                             2133.67  2134.97  2143.89  2144.23  2145.01
                             2150.11  2153.28  2161.63  2165.41  2181.39
                             2205.65  2576.70  2588.80  2606.69  2609.29
                             4359.81  4375.30  4379.72  4388.54  4389.35
                             4395.03  4401.26  4410.16  4422.58  4436.59
                             4443.43  4467.71  4471.49  4473.71  4482.17
                             4485.45  4495.38  4500.77  4512.40  4554.58
                             4558.24  4578.76

 Zero-point correction=                           0.347599 (Hartree/Particle)
 Thermal correction to Energy=                    0.369684
 Thermal correction to Enthalpy=                  0.370628
 Thermal correction to Gibbs Free Energy=         0.291908
 Sum of electronic and zero-point Energies=           -922.571667
 Sum of electronic and thermal Energies=              -922.549582
 Sum of electronic and thermal Enthalpies=            -922.548638
 Sum of electronic and thermal Free Energies=         -922.627358

                     E (Thermal)             CV                S
                      KCal/Mol        Cal/Mol-Kelvin    Cal/Mol-Kelvin
 Total                  231.980             77.827            165.680
 Electronic               0.000              0.000              0.000
 Translational            0.889              2.981             42.680
 Rotational               0.889              2.981             33.660
 Vibrational            230.202             71.865             89.340
 Vibration     1          0.593              1.987              8.074
 Vibration     2          0.593              1.985              6.377
 Vibration     3          0.593              1.985              6.201
 Vibration     4          0.594              1.981              5.285
 Vibration     5          0.595              1.979              4.954
 Vibration     6          0.596              1.976              4.635
 Vibration     7          0.597              1.973              4.408
 Vibration     8          0.600              1.964              3.935
 Vibration     9          0.601              1.959              3.750
 Vibration    10          0.602              1.954              3.592
 Vibration    11          0.605              1.945              3.344
 Vibration    12          0.609              1.933              3.104
 Vibration    13          0.613              1.918              2.870
 Vibration    14          0.619              1.900              2.638
 Vibration    15          0.627              1.874              2.386
 Vibration    16          0.639              1.837              2.113
 Vibration    17          0.645              1.819              2.003
 Vibration    18          0.665              1.756              1.703
 Vibration    19          0.675              1.724              1.581
 Vibration    20          0.687              1.691              1.470
 Vibration    21          0.710              1.624              1.280
 Vibration    22          0.718              1.602              1.227
 Vibration    23          0.736              1.550              1.113
 Vibration    24          0.783              1.427              0.892
 Vibration    25          0.791              1.404              0.858
 Vibration    26          0.801              1.380              0.822
 Vibration    27          0.818              1.338              0.764
 Vibration    28          0.841              1.283              0.697
 Vibration    29          0.847              1.270              0.681
 Vibration    30          0.864              1.230              0.636
 Vibration    31          0.875              1.206              0.610
 Vibration    32          0.940              1.068              0.479
 Vibration    33          0.943              1.063              0.475

                           ! Non-Optimized Parameters !
 Normal termination of Gaussian 16 at Sat Dec 12 10:56:27 2020.

 ----------------------------------------------------------------------
 # B3LYP/6-311++G(d,p) empiricaldispersion=gd3bj scf=xqc pop=npa geom=c
 heck
 ----------------------------------------------------------------------

 ---------------------------------------
 CID_152716374_JID_9090_Energie_neutraal
 ---------------------------------------
 Structure from the checkpoint file:  "JID_9090.chk"
 Charge =  0 Multiplicity = 1

 SCF Done:  E(RB3LYP) =  -923.192644491     A.U. after   14 cycles
 Normal termination of Gaussian 16 at Sat Dec 12 11:04:30 2020.

 ----------------------------------------------------------------------
 # B3LYP/6-311++G(d,p) empiricaldispersion=gd3bj scf=xqc pop=npa geom=c
 heck
 ----------------------------------------------------------------------

 -------------------------------------
 CID_152716374_JID_9090_Energie_kation
 -------------------------------------
 Structure from the checkpoint file:  "JID_9090.chk"
 Charge =  1 Multiplicity = 2

 SCF Done:  E(UB3LYP) =  -922.886448494     A.U. after   33 cycles
 SCF Done:  E(UB3LYP) =  -922.886464040     a.u. after    4 cycles
 Normal termination of Gaussian 16 at Sat Dec 12 12:40:38 2020.
 Gaussian 16:  ES64L-G16RevA.03 25-Dec-2016

 ----------------------------------------------------------------------
 # B3LYP/6-311++G(d,p) empiricaldispersion=gd3bj scf=xqc pop=npa geom=c
 heck
 ----------------------------------------------------------------------

 ------------------------------------
 CID_152716374_JID_9090_Energie_anion
 ------------------------------------
 Structure from the checkpoint file:  "JID_9090.chk"
 Charge = -1 Multiplicity = 2

                         Standard orientation:
 ---------------------------------------------------------------------
 Center     Atomic      Atomic             Coordinates (Angstroms)
 Number     Number       Type             X           Y           Z
 ---------------------------------------------------------------------
      1          6           0       -1.611066    3.214016    0.194094
      2          6           0       -2.211141    1.970729   -0.415707
      3          8           0       -1.821964    1.503537   -1.470438
      4          6           0       -3.356254    1.312801    0.356754
      5          6           0       -3.391917   -0.190560    0.118234
      6          6           0       -2.234796   -0.903376    0.790103
      7          8           0       -1.440155   -0.307961    1.500793
      8          6           0       -2.092994   -2.396821    0.533456
      9          6           0       -0.681737   -2.781096    0.066758
     10          8           0       -0.422875   -2.346698   -1.257412
     11          6           0        0.227403   -1.086824   -1.400569
     12          6           0        1.760204   -1.200521   -1.309414
     13          6           0        2.287031   -1.550234    0.073431
     14          8           0        2.826801   -2.622035    0.287163
     15          6           0        2.135693   -0.526454    1.197532
     16          6           0        3.013084    0.719337    0.992820
     17          6           0        2.375093    1.824138    0.160719
     18          8           0        1.185726    1.836082   -0.097535
     19          6           0        3.304156    2.922313   -0.317832
     20          1           0       -2.392617    3.910976    0.520235
     21          1           0       -0.931020    3.691467   -0.511642
     22          1           0       -1.043072    2.910127    1.081249
     23          1           0       -3.265110    1.539038    1.423173
     24          1           0       -4.289200    1.775550    0.005430
     25          1           0       -4.329639   -0.643830    0.468893
     26          1           0       -3.327024   -0.403288   -0.956169
     27          1           0       -2.297943   -2.910814    1.483142
     28          1           0       -2.828657   -2.740371   -0.200610
     29          1           0        0.048598   -2.388356    0.781137
     30          1           0       -0.587934   -3.871672    0.060574
     31          1           0       -0.038355   -0.731796   -2.399302
     32          1           0       -0.143903   -0.346161   -0.690703
     33          1           0        2.112433   -1.968828   -2.002904
     34          1           0        2.168644   -0.230291   -1.619680
     35          1           0        1.091327   -0.209870    1.293288
     36          1           0        2.429817   -1.037392    2.117493
     37          1           0        3.236040    1.172564    1.970256
     38          1           0        3.993768    0.462480    0.570039
     39          1           0        3.955774    2.526793   -1.107908
     40          1           0        2.723225    3.754888   -0.718841
     41          1           0        3.958040    3.270694    0.490017
 ---------------------------------------------------------------------

 SCF Done:  E(UB3LYP) =  -923.186170768     A.U. after   33 cycles
 SCF Done:  E(UB3LYP) =  -923.186170768     a.u. after    1 cycles

 The electronic state is 2-A.
 Alpha  occ. eigenvalues --  -19.02395 -19.01440 -19.01097 -19.00995 -18.99900
 Alpha  occ. eigenvalues --  -10.16172 -10.16125 -10.15732 -10.14110 -10.12090
 Alpha  occ. eigenvalues --  -10.11497 -10.08768 -10.08118 -10.07704 -10.07682
 Alpha  occ. eigenvalues --  -10.07629 -10.07444 -10.07390 -10.07192  -0.94721
 Alpha  occ. eigenvalues --   -0.94496  -0.94416  -0.93741  -0.93087  -0.70610
 Alpha  occ. eigenvalues --   -0.69959  -0.68556  -0.66335  -0.64743  -0.64015
 Alpha  occ. eigenvalues --   -0.58852  -0.56748  -0.54895  -0.50489  -0.44564
 Alpha  occ. eigenvalues --   -0.44017  -0.42395  -0.41524  -0.40947  -0.39881
 Alpha  occ. eigenvalues --   -0.38830  -0.38338  -0.37633  -0.36467  -0.36092
 Alpha  occ. eigenvalues --   -0.35606  -0.35134  -0.34397  -0.33694  -0.33446
 Alpha  occ. eigenvalues --   -0.32731  -0.32018  -0.31183  -0.30837  -0.30366
 Alpha  occ. eigenvalues --   -0.30040  -0.28713  -0.28504  -0.27587  -0.27148
 Alpha  occ. eigenvalues --   -0.27011  -0.26060  -0.26012  -0.25362  -0.24835
 Alpha  occ. eigenvalues --   -0.24760  -0.24523  -0.21088  -0.16455  -0.15610
 Alpha  occ. eigenvalues --   -0.15365  -0.14990  -0.14608   0.04042
 Alpha virt. eigenvalues --    0.05158   0.06403   0.06527   0.06870   0.07805
 Alpha virt. eigenvalues --    0.07986   0.08469   0.08641   0.09194   0.09748
 Alpha virt. eigenvalues --    0.10031   0.10586   0.10748   0.11247   0.11662

  Beta  occ. eigenvalues --  -19.02393 -19.01419 -19.01072 -19.00922 -18.99758
  Beta  occ. eigenvalues --  -10.16158 -10.16112 -10.15616 -10.13900 -10.12077
  Beta  occ. eigenvalues --  -10.11493 -10.08750 -10.08112 -10.07700 -10.07652
  Beta  occ. eigenvalues --  -10.07635 -10.07450 -10.07388 -10.07190  -0.94674
  Beta  occ. eigenvalues --   -0.94426  -0.94278  -0.93650  -0.92879  -0.70548
  Beta  occ. eigenvalues --   -0.69868  -0.68507  -0.66241  -0.64674  -0.63969
  Beta  occ. eigenvalues --   -0.58746  -0.56671  -0.54858  -0.50442  -0.44436
  Beta  occ. eigenvalues --   -0.43861  -0.42265  -0.41364  -0.40902  -0.39787
  Beta  occ. eigenvalues --   -0.38749  -0.38212  -0.37527  -0.36378  -0.36019
  Beta  occ. eigenvalues --   -0.35541  -0.35066  -0.34253  -0.33602  -0.33369
  Beta  occ. eigenvalues --   -0.32617  -0.31911  -0.31131  -0.30779  -0.30310
  Beta  occ. eigenvalues --   -0.29983  -0.28583  -0.28382  -0.27529  -0.27089
  Beta  occ. eigenvalues --   -0.26942  -0.25981  -0.25911  -0.25249  -0.24624
  Beta  occ. eigenvalues --   -0.24500  -0.24130  -0.21026  -0.16415  -0.15557
  Beta  occ. eigenvalues --   -0.15322  -0.14963  -0.14501
  Beta virt. eigenvalues --    0.06244   0.06586   0.06861   0.07172   0.07367
  Beta virt. eigenvalues --    0.08047   0.08718   0.08897   0.08940   0.09700
  Beta virt. eigenvalues --    0.10023   0.10301   0.10667   0.10989   0.11421

 Mulliken charges and spin densities:
               1          2
     1  C   -0.675857  -0.043340
     2  C    0.327608  -0.010865
     3  O   -0.181227   0.006343
     4  C   -0.305710  -0.172003
     5  C    0.281684  -0.579091
     6  C   -0.169254   0.648841
     7  O   -0.231503   0.057148
     8  C    0.107927  -0.669233
     9  C   -0.198487  -0.073870
    10  O    0.014108   0.005003
    11  C   -0.468887  -0.044146
    12  C   -0.050471  -0.038453
    13  C   -0.345616  -0.046155
    14  O   -0.206625   0.010347
    15  C   -0.210006   0.375099
    16  C    0.546980  -1.139686
    17  C   -0.837652   1.174386
    18  O   -0.203358   0.026093
    19  C    0.812937  -1.455104
    20  H    0.129635   0.002472
    21  H    0.182453   0.006199
    22  H    0.182142   0.043398
    23  H    0.188208   0.006004
    24  H   -0.052250   0.239262
    25  H   -0.525703   0.730266
    26  H    0.307921  -0.097137
    27  H   -0.103472   0.274590
    28  H    0.089202   0.092451
    29  H    0.238944  -0.040607
    30  H    0.084410   0.088886
    31  H    0.190065   0.002894
    32  H   -0.030631   0.011910
    33  H    0.227165  -0.004068
    34  H    0.175105  -0.027080
    35  H    0.358151  -0.125145
    36  H    0.158421   0.058175
    37  H   -0.389424   0.614979
    38  H    0.154268   0.039742
    39  H    0.031543   0.119967
    40  H   -0.024330   0.170434
    41  H   -0.578415   0.761094
 Sum of Mulliken charges =  -1.00000   1.00000

 Dipole moment (field-independent basis, Debye):
    X=             -1.7790    Y=             -0.0838    Z=             -2.6369  Tot=              3.1820
 Quadrupole moment (field-independent basis, Debye-Ang):
   XX=           -190.7789   YY=           -166.2277   ZZ=           -143.7533
   XY=            -15.8911   XZ=            -10.0898   YZ=             -3.2119

 Summary of Natural Population Analysis:

                                       Natural Population
                Natural  -----------------------------------------------
    Atom  No    Charge         Core      Valence    Rydberg      Total
 -----------------------------------------------------------------------
      C    1   -0.33361      0.99961     2.32948    0.00453     3.33361
      C    2    0.30226      0.99969     1.67670    0.02135     2.69774
      O    3   -0.28952      0.99987     3.28294    0.00671     4.28952
      C    4   -0.23911      0.99958     2.22982    0.00971     3.23911
      C    5   -0.24169      0.99958     2.23325    0.00887     3.24169
      C    6    0.32176      0.99967     1.65732    0.02125     2.67824
      O    7   -0.29219      0.99987     3.28620    0.00613     4.29219
      C    8   -0.24722      0.99958     2.23864    0.00900     3.24722
      C    9   -0.00551      0.99957     1.99275    0.01319     3.00551
      O   10   -0.30429      0.99988     3.29610    0.00831     4.30429
      C   11   -0.01288      0.99956     2.00113    0.01219     3.01288
      C   12   -0.24978      0.99956     2.24215    0.00807     3.24978
      C   13    0.29728      0.99965     1.67964    0.02342     2.70272
      O   14   -0.28988      0.99987     3.28308    0.00693     4.28988
      C   15   -0.24826      0.99957     2.23826    0.01043     3.24826
      C   16   -0.23797      0.99957     2.22968    0.00871     3.23797
      C   17    0.30357      0.99968     1.67616    0.02060     2.69643
      O   18   -0.28641      0.99987     3.27848    0.00806     4.28641
      C   19   -0.33352      0.99962     2.32836    0.00554     3.33352
      H   20    0.09924      0.00000     0.40010    0.00067     0.40076
      H   21    0.11255      0.00000     0.38644    0.00100     0.38745
      H   22    0.12294      0.00000     0.37618    0.00088     0.37706
      H   23    0.10943      0.00000     0.38975    0.00082     0.39057
      H   24    0.11046      0.00000     0.38855    0.00098     0.38954
      H   25    0.11409      0.00000     0.38240    0.00351     0.38591
      H   26    0.11853      0.00000     0.38022    0.00125     0.38147
      H   27    0.11303      0.00000     0.38532    0.00165     0.38697
      H   28    0.10149      0.00000     0.39742    0.00109     0.39851
      H   29    0.08826      0.00000     0.41002    0.00173     0.41174
      H   30    0.08795      0.00000     0.41111    0.00094     0.41205
      H   31    0.09390      0.00000     0.40533    0.00077     0.40610
      H   32    0.10345      0.00000     0.39475    0.00181     0.39655
      H   33    0.10571      0.00000     0.39285    0.00143     0.39429
      H   34    0.11093      0.00000     0.38809    0.00098     0.38907
      H   35    0.13083      0.00000     0.36790    0.00127     0.36917
      H   36    0.10802      0.00000     0.39094    0.00103     0.39198
      H   37    0.12201      0.00000     0.37511    0.00288     0.37799
      H   38    0.10463      0.00000     0.39413    0.00124     0.39537
      H   39    0.10700      0.00000     0.39217    0.00083     0.39300
      H   40    0.10874      0.00000     0.39027    0.00099     0.39126
      H   41    0.11379      0.00000     0.38128    0.00493     0.38621
 =======================================================================
   * Total *    0.00000     18.99385    53.76048    0.24567    73.00000

 Normal termination of Gaussian 16 at Sat Dec 12 13:06:18 2020.
