 Gaussian 16, Revision A.03,

 -----------------------------------------------------------
 # opt freq B3LYP/6-31G(d) empiricaldispersion=gd3bj scf=xqc
 -----------------------------------------------------------

 -------------------------------
 CID_126647356_JID_1838_neutraal
 -------------------------------
 Symbolic Z-matrix:
 Charge =  0 Multiplicity = 1

 SCF Done:  E(RB3LYP) =  -501.657523816     A.U. after   13 cycles
 SCF Done:  E(RB3LYP) =  -501.659522344     A.U. after   11 cycles
 SCF Done:  E(RB3LYP) =  -501.660369974     A.U. after   11 cycles
 SCF Done:  E(RB3LYP) =  -501.661000756     A.U. after   10 cycles
 SCF Done:  E(RB3LYP) =  -501.661285441     A.U. after   10 cycles
 SCF Done:  E(RB3LYP) =  -501.661432815     A.U. after   10 cycles
 SCF Done:  E(RB3LYP) =  -501.661547161     A.U. after   10 cycles
 SCF Done:  E(RB3LYP) =  -501.661660202     A.U. after   10 cycles
 SCF Done:  E(RB3LYP) =  -501.661888266     A.U. after   11 cycles
 SCF Done:  E(RB3LYP) =  -501.662737760     A.U. after   12 cycles
 SCF Done:  E(RB3LYP) =  -501.664788273     A.U. after    9 cycles
 SCF Done:  E(RB3LYP) =  -501.664789388     A.U. after    7 cycles
 SCF Done:  E(RB3LYP) =  -501.664789515     A.U. after    7 cycles
 SCF Done:  E(RB3LYP) =  -501.664789463     A.U. after    6 cycles
 SCF Done:  E(RB3LYP) =  -501.664789404     A.U. after    6 cycles
 SCF Done:  E(RB3LYP) =  -501.664789343     A.U. after    6 cycles
 Optimization completed.
    -- Stationary point found.
 Normal termination of Gaussian 16 at Tue Dec  8 21:23:48 2020.

 --------------------------------------------------------------------
 #N Geom=AllCheck Guess=TCheck SCRF=Check GenChk RB3LYP/6-31G(d) Freq
 --------------------------------------------------------------------

 Structure from the checkpoint file:  "JID_1838.chk"
 -------------------------------
 CID_126647356_JID_1838_neutraal
 -------------------------------
 Charge =  0 Multiplicity = 1

 SCF Done:  E(RB3LYP) =  -501.664789343     A.U. after    1 cycles

  Exact polarizability: 119.113  -1.546  95.139  -0.782  -1.154  95.624
 Approx polarizability: 142.566  -0.446 137.397  -0.516  -1.534 135.846

                      1                      2                      3
                      A                      A                      A
 Frequencies --     28.9886                40.0351               100.6498
 Red. masses --      3.2928                 2.9724                 3.3224
 Frc consts  --      0.0016                 0.0028                 0.0198
 IR Inten    --      0.0762                 0.2843                 0.3176

                      4                      5                      6
                      A                      A                      A
 Frequencies --    126.6695               211.9687               225.5389
 Red. masses --      3.3796                 3.4826                 1.0750
 Frc consts  --      0.0319                 0.0922                 0.0322
 IR Inten    --      5.2099                 1.8217                23.9009

                      7                      8                      9
                      A                      A                      A
 Frequencies --    231.6460               248.2045               258.0462
 Red. masses --      1.5343                 1.1610                 1.1838
 Frc consts  --      0.0485                 0.0421                 0.0464
 IR Inten    --      5.5892                 3.1586                17.3906

                     10                     11                     12
                      A                      A                      A
 Frequencies --    269.8436               284.3875               312.1563
 Red. masses --      1.6797                 1.0584                 1.3614
 Frc consts  --      0.0721                 0.0504                 0.0782
 IR Inten    --      0.6600                 5.2064                 0.3406

                     13                     14                     15
                      A                      A                      A
 Frequencies --    334.1085               351.2025               358.7668
 Red. masses --      1.1326                 2.3259                 2.0819
 Frc consts  --      0.0745                 0.1690                 0.1579
 IR Inten    --     23.0151                 5.3485                 4.7379

                     16                     17                     18
                      A                      A                      A
 Frequencies --    369.3682               401.2814               427.5643
 Red. masses --      2.5396                 2.3793                 2.2295
 Frc consts  --      0.2041                 0.2257                 0.2401
 IR Inten    --      2.8240                 2.9152                 1.2315

                     19                     20                     21
                      A                      A                      A
 Frequencies --    450.9254               458.7974               492.6610
 Red. masses --      2.5108                 2.3571                 2.8864
 Frc consts  --      0.3008                 0.2923                 0.4128
 IR Inten    --      5.6316                 3.2214                12.0288

                     22                     23                     24
                      A                      A                      A
 Frequencies --    537.5385               591.8503               729.8188
 Red. masses --      3.0961                 2.4231                 3.2857
 Frc consts  --      0.5271                 0.5001                 1.0311
 IR Inten    --      8.3512                 0.4788                 1.4143

                     25                     26                     27
                      A                      A                      A
 Frequencies --    770.8738               834.1092               883.2887
 Red. masses --      3.4008                 2.1565                 1.8308
 Frc consts  --      1.1907                 0.8840                 0.8416
 IR Inten    --      4.3330                63.2142                65.7550

                     28                     29                     30
                      A                      A                      A
 Frequencies --    904.7982               934.1763               935.7658
 Red. masses --      1.7560                 1.7629                 1.6666
 Frc consts  --      0.8470                 0.9064                 0.8598
 IR Inten    --     15.7837                42.6167                47.0969

                     31                     32                     33
                      A                      A                      A
 Frequencies --    952.4892               961.1243               969.4222
 Red. masses --      1.6462                 1.6338                 1.8702
 Frc consts  --      0.8799                 0.8892                 1.0355
 IR Inten    --      4.0967                27.8227                22.2955

                     34                     35                     36
                      A                      A                      A
 Frequencies --   1013.0372              1015.4653              1030.4064
 Red. masses --      1.5669                 1.4976                 1.3592
 Frc consts  --      0.9474                 0.9099                 0.8503
 IR Inten    --     20.5847                14.0953                 6.8980

                     37                     38                     39
                      A                      A                      A
 Frequencies --   1049.0735              1064.3274              1103.9144
 Red. masses --      1.5585                 1.4488                 2.2790
 Frc consts  --      1.0106                 0.9669                 1.6363
 IR Inten    --     21.2247                39.3717               105.3651

                     40                     41                     42
                      A                      A                      A
 Frequencies --   1115.3063              1145.3252              1218.4929
 Red. masses --      1.8334                 1.7618                 1.7000
 Frc consts  --      1.3437                 1.3617                 1.4871
 IR Inten    --     16.4668                11.3800                 6.0799

                     43                     44                     45
                      A                      A                      A
 Frequencies --   1243.2256              1256.3807              1261.8307
 Red. masses --      2.3589                 2.6023                 2.6465
 Frc consts  --      2.1482                 2.4202                 2.4827
 IR Inten    --    131.5084                91.2047                45.2867

                     46                     47                     48
                      A                      A                      A
 Frequencies --   1280.9555              1337.1393              1354.8193
 Red. masses --      1.3011                 1.5364                 1.8101
 Frc consts  --      1.2579                 1.6185                 1.9575
 IR Inten    --     11.6903                 7.2515                23.6184

                     49                     50                     51
                      A                      A                      A
 Frequencies --   1362.8929              1405.2428              1424.2690
 Red. masses --      1.5623                 1.4169                 1.3506
 Frc consts  --      1.7098                 1.6486                 1.6142
 IR Inten    --      0.3066                 4.0070                19.4761

                     52                     53                     54
                      A                      A                      A
 Frequencies --   1427.9020              1440.8561              1442.9242
 Red. masses --      1.3893                 1.2667                 1.2666
 Frc consts  --      1.6689                 1.5495                 1.5537
 IR Inten    --      2.5966                13.8991                 8.1407

                     55                     56                     57
                      A                      A                      A
 Frequencies --   1443.7180              1496.6539              1508.5587
 Red. masses --      1.3914                 1.0889                 1.0528
 Frc consts  --      1.7087                 1.4371                 1.4117
 IR Inten    --     12.1298                 0.8607                 0.4500

                     58                     59                     60
                      A                      A                      A
 Frequencies --   1514.6015              1515.0129              1522.8324
 Red. masses --      1.0510                 1.0586                 1.0583
 Frc consts  --      1.4205                 1.4316                 1.4460
 IR Inten    --      0.3119                 0.7325                 1.3397

                     61                     62                     63
                      A                      A                      A
 Frequencies --   1526.5205              1529.4275              1539.4207
 Red. masses --      1.0565                 1.0577                 1.0552
 Frc consts  --      1.4506                 1.4577                 1.4734
 IR Inten    --      2.0167                 1.0990                 3.5942

                     64                     65                     66
                      A                      A                      A
 Frequencies --   1540.5820              1563.4445              1682.4655
 Red. masses --      1.0574                 1.0789                 1.1036
 Frc consts  --      1.4786                 1.5538                 1.8405
 IR Inten    --      5.4303                 4.1078                34.7092

                     67                     68                     69
                      A                      A                      A
 Frequencies --   1714.8474              3023.5261              3028.7510
 Red. masses --      1.0868                 1.0593                 1.0651
 Frc consts  --      1.8831                 5.7053                 5.7569
 IR Inten    --     16.2599                22.2103                17.4436

                     70                     71                     72
                      A                      A                      A
 Frequencies --   3039.7010              3050.5342              3052.4574
 Red. masses --      1.0386                 1.0382                 1.0347
 Frc consts  --      5.6538                 5.6925                 5.6802
 IR Inten    --     43.8694                13.5292                15.9736

                     73                     74                     75
                      A                      A                      A
 Frequencies --   3062.9174              3065.6557              3090.1696
 Red. masses --      1.0412                 1.0944                 1.0997
 Frc consts  --      5.7551                 6.0602                 6.1870
 IR Inten    --     10.1690                46.7569                27.2308

                     76                     77                     78
                      A                      A                      A
 Frequencies --   3103.4287              3114.8697              3125.7825
 Red. masses --      1.0985                 1.1010                 1.1018
 Frc consts  --      6.2337                 6.2936                 6.3426
 IR Inten    --     40.7032                34.7678                 3.5000

                     79                     80                     81
                      A                      A                      A
 Frequencies --   3126.8779              3128.8741              3132.5126
 Red. masses --      1.1029                 1.1027                 1.1014
 Frc consts  --      6.3534                 6.3603                 6.3678
 IR Inten    --     25.2850                11.1654                63.6279

                     82                     83                     84
                      A                      A                      A
 Frequencies --   3134.1100              3150.6387              3447.5193
 Red. masses --      1.1015                 1.1034                 1.0520
 Frc consts  --      6.3749                 6.4532                 7.3667
 IR Inten    --     39.8332                18.4099                10.8406

                     85                     86                     87
                      A                      A                      A
 Frequencies --   3471.8348              3538.7376              3564.4424
 Red. masses --      1.0497                 1.0880                 1.0925
 Frc consts  --      7.4547                 8.0276                 8.1779
 IR Inten    --      0.3507                18.0963                 0.3124

 - Thermochemistry -
 -------------------
 Temperature   298.150 Kelvin.  Pressure   1.00000 Atm.
 Atom     1 has atomic number  6 and mass  12.00000

 Molecular mass:   160.15756 amu.
 Principal axes and moments of inertia in atomic units:
                           1         2         3
     Eigenvalues --   871.085613334.702533404.62734
           X            0.99994  -0.01003  -0.00411
           Y            0.00951   0.99374  -0.11127
           Z            0.00520   0.11123   0.99378
 This molecule is an asymmetric top.
 Rotational symmetry number  1.
 Warning -- assumption of classical behavior for rotation
           may cause significant error
 Rotational temperatures (Kelvin)      0.09943     0.02597     0.02544
 Rotational constants (GHZ):           2.07183     0.54120     0.53008
 Zero-point vibrational energy     750855.7 (Joules/Mol)
                                  179.45883 (Kcal/Mol)
 Warning -- explicit consideration of  23 degrees of freedom as
           vibrations may cause significant error
 Vibrational temperatures:     41.71    57.60   144.81   182.25   304.98
          (Kelvin)            324.50   333.29   357.11   371.27   388.24
                              409.17   449.12   480.71   505.30   516.19
                              531.44   577.35   615.17   648.78   660.11
                              708.83   773.40   851.54  1050.05  1109.12
                             1200.10  1270.86  1301.80  1344.07  1346.36
                             1370.42  1382.84  1394.78  1457.53  1461.03
                             1482.53  1509.38  1531.33  1588.29  1604.68
                             1647.87  1753.14  1788.72  1807.65  1815.49
                             1843.01  1923.85  1949.28  1960.90  2021.83
                             2049.21  2054.43  2073.07  2076.05  2077.19
                             2153.35  2170.48  2179.17  2179.77  2191.02
                             2196.32  2200.50  2214.88  2216.55  2249.45
                             2420.69  2467.28  4350.18  4357.70  4373.45
                             4389.04  4391.81  4406.85  4410.79  4446.06
                             4465.14  4481.60  4497.30  4498.88  4501.75
                             4506.99  4509.29  4533.07  4960.21  4995.20
                             5091.45  5128.44

 Zero-point correction=                           0.285986 (Hartree/Particle)
 Thermal correction to Energy=                    0.299957
 Thermal correction to Enthalpy=                  0.300901
 Thermal correction to Gibbs Free Energy=         0.246098
 Sum of electronic and zero-point Energies=           -501.378803
 Sum of electronic and thermal Energies=              -501.364832
 Sum of electronic and thermal Enthalpies=            -501.363888
 Sum of electronic and thermal Free Energies=         -501.418691

                     E (Thermal)             CV                S
                      KCal/Mol        Cal/Mol-Kelvin    Cal/Mol-Kelvin
 Total                  188.226             53.479            115.342
 Electronic               0.000              0.000              0.000
 Translational            0.889              2.981             41.122
 Rotational               0.889              2.981             30.670
 Vibrational            186.448             47.517             43.550
 Vibration     1          0.593              1.984              5.897
 Vibration     2          0.594              1.981              5.257
 Vibration     3          0.604              1.949              3.442
 Vibration     4          0.611              1.926              2.996
 Vibration     5          0.643              1.823              2.027
 Vibration     6          0.650              1.802              1.914
 Vibration     7          0.653              1.793              1.866
 Vibration     8          0.662              1.766              1.743
 Vibration     9          0.667              1.749              1.675
 Vibration    10          0.674              1.729              1.597
 Vibration    11          0.683              1.703              1.507
 Vibration    12          0.701              1.651              1.351
 Vibration    13          0.716              1.607              1.240
 Vibration    14          0.728              1.573              1.161
 Vibration    15          0.734              1.557              1.127
 Vibration    16          0.742              1.535              1.082
 Vibration    17          0.767              1.467              0.958
 Vibration    18          0.789              1.410              0.867
 Vibration    19          0.810              1.359              0.793
 Vibration    20          0.817              1.341              0.770
 Vibration    21          0.848              1.266              0.677
 Vibration    22          0.893              1.167              0.571
 Vibration    23          0.949              1.049              0.464

 Optimization completed.
    -- Stationary point found.
 Normal termination of Gaussian 16 at Tue Dec  8 21:31:58 2020.

 ----------------------------------------------------------------------
 # B3LYP/6-311++G(d,p) empiricaldispersion=gd3bj scf=xqc pop=npa geom=c
 heck
 ----------------------------------------------------------------------

 ---------------------------------------
 CID_126647356_JID_1838_Energie_neutraal
 ---------------------------------------
 Structure from the checkpoint file:  "JID_1838.chk"
 Charge =  0 Multiplicity = 1

 SCF Done:  E(RB3LYP) =  -501.826427527     A.U. after   13 cycles
 Normal termination of Gaussian 16 at Tue Dec  8 21:35:12 2020.

 ----------------------------------------------------------------------
 # B3LYP/6-311++G(d,p) empiricaldispersion=gd3bj scf=xqc pop=npa geom=c
 heck
 ----------------------------------------------------------------------

 -------------------------------------
 CID_126647356_JID_1838_Energie_kation
 -------------------------------------
 Structure from the checkpoint file:  "JID_1838.chk"
 Charge =  1 Multiplicity = 2

 SCF Done:  E(UB3LYP) =  -501.521340062     A.U. after   24 cycles
 Normal termination of Gaussian 16 at Tue Dec  8 21:43:21 2020.
 Gaussian 16:  ES64L-G16RevA.03 25-Dec-2016

 ----------------------------------------------------------------------
 # B3LYP/6-311++G(d,p) empiricaldispersion=gd3bj scf=xqc pop=npa geom=c
 heck
 ----------------------------------------------------------------------

 ------------------------------------
 CID_126647356_JID_1838_Energie_anion
 ------------------------------------
 Structure from the checkpoint file:  "JID_1838.chk"
 Charge = -1 Multiplicity = 2

                         Standard orientation:
 ---------------------------------------------------------------------
 Center     Atomic      Atomic             Coordinates (Angstroms)
 Number     Number       Type             X           Y           Z
 ---------------------------------------------------------------------
      1          6           0        2.183436   -0.111171    1.535855
      2          6           0        2.220362    0.105093    0.016346
      3          6           0        3.660939   -0.045013   -0.490413
      4          6           0        1.327980   -0.935605   -0.716500
      5          6           0       -0.084994   -1.124720   -0.177062
      6          8           0       -0.773282    0.128010   -0.210493
      7          6           0       -2.186966    0.094850   -0.008415
      8          6           0       -2.558159   -0.541191    1.336252
      9          6           0       -2.593591    1.571995   -0.046426
     10          7           0       -2.782957   -0.702612   -1.082756
     11          7           0        1.808903    1.501409   -0.233848
     12          1           0        2.442269   -1.143955    1.798599
     13          1           0        1.187636    0.104884    1.937726
     14          1           0        2.892737    0.564416    2.022851
     15          1           0        4.072248   -1.027890   -0.234616
     16          1           0        3.704510    0.062053   -1.582303
     17          1           0        4.295338    0.729169   -0.047623
     18          1           0        1.271359   -0.654106   -1.776951
     19          1           0        1.813006   -1.921723   -0.679137
     20          1           0       -0.631138   -1.855163   -0.783844
     21          1           0       -0.046805   -1.503047    0.853604
     22          1           0       -2.342475   -1.612823    1.337159
     23          1           0       -1.993408   -0.062614    2.141610
     24          1           0       -3.626269   -0.408845    1.541983
     25          1           0       -2.278657    2.016427   -0.996829
     26          1           0       -3.679881    1.674199    0.047710
     27          1           0       -2.118012    2.131543    0.765777
     28          1           0       -3.772085   -0.858143   -0.899894
     29          1           0       -2.715574   -0.189048   -1.960563
     30          1           0        0.807880    1.561780   -0.050661
     31          1           0        1.907903    1.691799   -1.232255
 ---------------------------------------------------------------------

 SCF Done:  E(UB3LYP) =  -501.813359467     A.U. after   25 cycles

 The electronic state is 2-A.
 Alpha  occ. eigenvalues --  -19.01591 -14.18465 -14.17720 -10.14884 -10.10426
 Alpha  occ. eigenvalues --  -10.10309 -10.06254 -10.06045 -10.05458 -10.05393
 Alpha  occ. eigenvalues --  -10.05139  -0.93411  -0.78805  -0.77368  -0.67373
 Alpha  occ. eigenvalues --   -0.64983  -0.61896  -0.59068  -0.58971  -0.52346
 Alpha  occ. eigenvalues --   -0.46732  -0.44290  -0.40161  -0.39044  -0.37681
 Alpha  occ. eigenvalues --   -0.36732  -0.35427  -0.34601  -0.33092  -0.31705
 Alpha  occ. eigenvalues --   -0.30341  -0.29540  -0.28376  -0.28025  -0.27616
 Alpha  occ. eigenvalues --   -0.26611  -0.26282  -0.25760  -0.25391  -0.23254
 Alpha  occ. eigenvalues --   -0.22908  -0.20734  -0.16283  -0.14608  -0.13428
 Alpha  occ. eigenvalues --    0.04492
 Alpha virt. eigenvalues --    0.06540   0.07729   0.08520   0.08915   0.09312
 Alpha virt. eigenvalues --    0.09604   0.10846   0.11008   0.11088   0.11675
 Alpha virt. eigenvalues --    0.11809   0.12791   0.13310   0.14460   0.14684

  Beta  occ. eigenvalues --  -19.01581 -14.18414 -14.17706 -10.14879 -10.10426
  Beta  occ. eigenvalues --  -10.10296 -10.06240 -10.06029 -10.05438 -10.05350
  Beta  occ. eigenvalues --  -10.05101  -0.93395  -0.78782  -0.77297  -0.67339
  Beta  occ. eigenvalues --   -0.64934  -0.61854  -0.59007  -0.58929  -0.52297
  Beta  occ. eigenvalues --   -0.46660  -0.44245  -0.40113  -0.39008  -0.37643
  Beta  occ. eigenvalues --   -0.36696  -0.35387  -0.34572  -0.33055  -0.31669
  Beta  occ. eigenvalues --   -0.30304  -0.29511  -0.28340  -0.28000  -0.27578
  Beta  occ. eigenvalues --   -0.26571  -0.26244  -0.25736  -0.25354  -0.23224
  Beta  occ. eigenvalues --   -0.22887  -0.20707  -0.16262  -0.14560  -0.13410
  Beta virt. eigenvalues --    0.06573   0.07620   0.08335   0.08879   0.09558
  Beta virt. eigenvalues --    0.09873   0.10049   0.11040   0.11270   0.11527
  Beta virt. eigenvalues --    0.12075   0.12286   0.13044   0.13535   0.14765

 Mulliken charges and spin densities:
               1          2
     1  C    0.420225  -1.021208
     2  C   -1.035862   1.281934
     3  C    0.262508  -0.817407
     4  C    0.728923  -1.291408
     5  C   -0.568764   0.309002
     6  O    0.008315   0.009387
     7  C   -1.150425   0.691887
     8  C    1.531770  -1.912648
     9  C    0.604451  -1.078656
    10  N   -0.295303   0.093768
    11  N   -0.231776   0.005464
    12  H   -0.172478   0.315164
    13  H    0.152951  -0.007808
    14  H    0.029133   0.121427
    15  H   -0.022600   0.156709
    16  H   -0.088483   0.223286
    17  H    0.098949   0.046426
    18  H    0.133265   0.035727
    19  H   -0.204148   0.365003
    20  H    0.018189   0.215243
    21  H    0.193959  -0.077607
    22  H   -0.340677   0.507422
    23  H    0.011420   0.138008
    24  H   -0.503778   0.673405
    25  H   -0.285959   0.435172
    26  H   -0.318412   0.475713
    27  H   -0.022631   0.170353
    28  H   -0.157964   0.397370
    29  H   -0.178162   0.421308
    30  H    0.334083  -0.047242
    31  H    0.049282   0.164806
 Sum of Mulliken charges =  -1.00000   1.00000

 Dipole moment (field-independent basis, Debye):
    X=              5.4822    Y=              0.0960    Z=              0.4919  Tot=              5.5051
 Quadrupole moment (field-independent basis, Debye-Ang):
   XX=           -150.3628   YY=           -107.5900   ZZ=           -105.8728
   XY=             -1.8933   XZ=             -2.5913   YZ=              0.3159

 Summary of Natural Population Analysis:

                                       Natural Population
                Natural  -----------------------------------------------
    Atom  No    Charge         Core      Valence    Rydberg      Total
 -----------------------------------------------------------------------
      C    1   -0.28881      0.99961     2.28277    0.00643     3.28881
      C    2    0.04892      0.99960     1.94001    0.01148     2.95108
      C    3   -0.28451      0.99962     2.27901    0.00588     3.28451
      C    4   -0.20182      0.99958     2.19147    0.01078     3.20182
      C    5   -0.01602      0.99955     2.00409    0.01238     3.01602
      O    6   -0.32558      0.99986     3.31333    0.01239     4.32558
      C    7    0.21986      0.99959     1.76270    0.01785     2.78014
      C    8   -0.30282      0.99960     2.29663    0.00659     3.30282
      C    9   -0.29331      0.99960     2.28638    0.00734     3.29331
      N   10   -0.43309      0.99974     2.92223    0.01112     3.93309
      N   11   -0.43203      0.99975     2.92201    0.01027     3.93203
      H   12    0.09678      0.00000     0.40220    0.00102     0.40322
      H   13    0.10288      0.00000     0.39589    0.00123     0.39712
      H   14    0.10165      0.00000     0.39727    0.00108     0.39835
      H   15    0.09836      0.00000     0.40065    0.00099     0.40164
      H   16    0.09650      0.00000     0.40247    0.00103     0.40350
      H   17    0.10177      0.00000     0.39720    0.00103     0.39823
      H   18    0.09840      0.00000     0.40011    0.00150     0.40160
      H   19    0.09988      0.00000     0.39906    0.00106     0.40012
      H   20    0.09710      0.00000     0.40102    0.00188     0.40290
      H   21    0.07909      0.00000     0.41913    0.00179     0.42091
      H   22    0.10444      0.00000     0.39421    0.00135     0.39556
      H   23    0.10343      0.00000     0.39546    0.00111     0.39657
      H   24    0.10577      0.00000     0.39248    0.00175     0.39423
      H   25    0.10217      0.00000     0.39624    0.00160     0.39783
      H   26    0.10217      0.00000     0.39601    0.00182     0.39783
      H   27    0.10076      0.00000     0.39804    0.00121     0.39924
      H   28    0.18267      0.00000     0.31289    0.00444     0.31733
      H   29    0.17831      0.00000     0.31863    0.00306     0.32169
      H   30    0.18812      0.00000     0.30946    0.00243     0.31188
      H   31    0.16899      0.00000     0.32909    0.00192     0.33101
 =======================================================================
   * Total *   -0.00000     10.99609    33.85813    0.14577    45.00000

 Normal termination of Gaussian 16 at Tue Dec  8 21:51:07 2020.
