 Gaussian 16, Revision A.03,

 -----------------------------------------------------------
 # opt freq B3LYP/6-31G(d) empiricaldispersion=gd3bj scf=xqc
 -----------------------------------------------------------

 ------------------------------
 CID_130713814_JID_270_neutraal
 ------------------------------
 Symbolic Z-matrix:
 Charge =  0 Multiplicity = 1

 SCF Done:  E(RB3LYP) =  -784.028401026     A.U. after   13 cycles
 SCF Done:  E(RB3LYP) =  -784.037134983     A.U. after   12 cycles
 SCF Done:  E(RB3LYP) =  -784.038134915     A.U. after   12 cycles
 SCF Done:  E(RB3LYP) =  -784.036409876     A.U. after   13 cycles
 SCF Done:  E(RB3LYP) =  -784.038831246     A.U. after   11 cycles
 SCF Done:  E(RB3LYP) =  -784.039214103     A.U. after   11 cycles
 SCF Done:  E(RB3LYP) =  -784.039340763     A.U. after   11 cycles
 SCF Done:  E(RB3LYP) =  -784.039491092     A.U. after   11 cycles
 SCF Done:  E(RB3LYP) =  -784.040108861     A.U. after   13 cycles
 SCF Done:  E(RB3LYP) =  -784.019193420     A.U. after   12 cycles
 SCF Done:  E(RB3LYP) =  -784.048255976     A.U. after   11 cycles
 SCF Done:  E(RB3LYP) =  -784.048401646     A.U. after   12 cycles
 SCF Done:  E(RB3LYP) =  -784.048540686     A.U. after   11 cycles
 SCF Done:  E(RB3LYP) =  -784.048554962     A.U. after   10 cycles
 SCF Done:  E(RB3LYP) =  -784.048555531     A.U. after    8 cycles
 SCF Done:  E(RB3LYP) =  -784.048555594     A.U. after    7 cycles
 Optimization completed.
    -- Stationary point found.
 Normal termination of Gaussian 16 at Tue Dec  8 10:28:36 2020.

 --------------------------------------------------------------------
 #N Geom=AllCheck Guess=TCheck SCRF=Check GenChk RB3LYP/6-31G(d) Freq
 --------------------------------------------------------------------

 Structure from the checkpoint file:  "JID_270.chk"
 ------------------------------
 CID_130713814_JID_270_neutraal
 ------------------------------
 Charge =  0 Multiplicity = 1

 SCF Done:  E(RB3LYP) =  -784.048555594     A.U. after    1 cycles

  Exact polarizability: 106.701  -4.998 101.636   4.026   3.699 102.634
 Approx polarizability: 142.184  -5.968 147.480   4.972  10.013 161.256

                      1                      2                      3
                      A                      A                      A
 Frequencies --     70.3620                81.9260               114.4080
 Red. masses --      3.9323                 2.8479                 3.1306
 Frc consts  --      0.0115                 0.0113                 0.0241
 IR Inten    --      1.5718                 1.0234                 4.0846

                      4                      5                      6
                      A                      A                      A
 Frequencies --    154.5412               172.7631               190.1887
 Red. masses --      3.0154                 2.7269                 1.3390
 Frc consts  --      0.0424                 0.0480                 0.0285
 IR Inten    --      0.7756                 1.1558                 0.0435

                      7                      8                      9
                      A                      A                      A
 Frequencies --    238.7360               253.7750               278.6793
 Red. masses --      2.4949                 2.1803                 1.2099
 Frc consts  --      0.0838                 0.0827                 0.0554
 IR Inten    --      2.1253                 2.5419                 0.0810

                     10                     11                     12
                      A                      A                      A
 Frequencies --    294.2291               304.3917               318.8358
 Red. masses --      1.8851                 2.4219                 1.3368
 Frc consts  --      0.0962                 0.1322                 0.0801
 IR Inten    --      4.9437                 0.6284                 0.1436

                     13                     14                     15
                      A                      A                      A
 Frequencies --    327.5409               353.8370               364.2509
 Red. masses --      2.2897                 1.9808                 2.8930
 Frc consts  --      0.1447                 0.1461                 0.2261
 IR Inten    --      9.3212                 0.5771                 4.1849

                     16                     17                     18
                      A                      A                      A
 Frequencies --    392.0664               446.1704               512.6096
 Red. masses --      1.5615                 3.1532                 2.9393
 Frc consts  --      0.1414                 0.3698                 0.4551
 IR Inten    --     16.9249                 2.6031                 2.9983

                     19                     20                     21
                      A                      A                      A
 Frequencies --    553.6374               640.5001               675.6308
 Red. masses --      2.4276                 2.4177                 2.2343
 Frc consts  --      0.4384                 0.5844                 0.6009
 IR Inten    --      6.1441                 2.4364                10.5326

                     22                     23                     24
                      A                      A                      A
 Frequencies --    715.9517               809.3531               902.6264
 Red. masses --      5.9470                 2.1590                 2.9796
 Frc consts  --      1.7960                 0.8333                 1.4303
 IR Inten    --      2.5385                66.0923                12.2998

                     25                     26                     27
                      A                      A                      A
 Frequencies --    921.1381               944.4597               967.5899
 Red. masses --      2.4305                 1.3597                 1.4552
 Frc consts  --      1.2151                 0.7146                 0.8027
 IR Inten    --     15.3765                23.9454                 0.7202

                     28                     29                     30
                      A                      A                      A
 Frequencies --    976.9231               996.4534               999.9793
 Red. masses --      1.8938                 1.2873                 1.2412
 Frc consts  --      1.0649                 0.7531                 0.7313
 IR Inten    --     16.2485                34.1192                11.9730

                     31                     32                     33
                      A                      A                      A
 Frequencies --   1017.6551              1045.2607              1049.8055
 Red. masses --      1.5715                 1.2101                 1.2024
 Frc consts  --      0.9589                 0.7790                 0.7808
 IR Inten    --     44.5088                 3.0264                20.0477

                     34                     35                     36
                      A                      A                      A
 Frequencies --   1053.0383              1154.8743              1165.1913
 Red. masses --      1.3743                 1.8021                 2.5984
 Frc consts  --      0.8979                 1.4161                 2.0785
 IR Inten    --      6.4352                10.4750                32.1891

                     37                     38                     39
                      A                      A                      A
 Frequencies --   1198.8334              1227.8635              1233.7292
 Red. masses --      2.5172                 2.2898                 2.6609
 Frc consts  --      2.1315                 2.0340                 2.3862
 IR Inten    --     17.0483                24.9274                 9.6363

                     40                     41                     42
                      A                      A                      A
 Frequencies --   1312.9942              1331.3672              1343.8363
 Red. masses --      1.3377                 1.2529                 1.3031
 Frc consts  --      1.3587                 1.3085                 1.3865
 IR Inten    --      4.0934                 2.0361                 4.3427

                     43                     44                     45
                      A                      A                      A
 Frequencies --   1384.9946              1387.4533              1424.2148
 Red. masses --      1.2518                 1.2169                 1.2282
 Frc consts  --      1.4148                 1.3802                 1.4679
 IR Inten    --      2.0049                11.6089                 4.3392

                     46                     47                     48
                      A                      A                      A
 Frequencies --   1445.2937              1470.7475              1496.1417
 Red. masses --      1.2191                 1.1898                 1.0531
 Frc consts  --      1.5004                 1.5164                 1.3888
 IR Inten    --      6.5687                 6.1938                 2.3704

                     49                     50                     51
                      A                      A                      A
 Frequencies --   1515.1534              1518.7222              1521.2640
 Red. masses --      1.0565                 1.1096                 1.0592
 Frc consts  --      1.4290                 1.5079                 1.4442
 IR Inten    --      7.4953                11.3621                 5.6305

                     52                     53                     54
                      A                      A                      A
 Frequencies --   1528.1794              1532.1055              1548.3199
 Red. masses --      1.0503                 1.0502                 1.0486
 Frc consts  --      1.4451                 1.4524                 1.4811
 IR Inten    --      5.1265                 7.9142                 4.9150

                     55                     56                     57
                      A                      A                      A
 Frequencies --   1710.5502              1728.5933              3001.6932
 Red. masses --      1.1816                 3.0525                 1.0824
 Frc consts  --      2.0369                 5.3739                 5.7460
 IR Inten    --      7.1296                 6.2981                25.6011

                     58                     59                     60
                      A                      A                      A
 Frequencies --   3043.1993              3050.1908              3072.0733
 Red. masses --      1.0419                 1.0427                 1.0302
 Frc consts  --      5.6852                 5.7156                 5.7285
 IR Inten    --     15.1547                42.9186                24.9447

                     61                     62                     63
                      A                      A                      A
 Frequencies --   3114.0277              3118.6096              3141.6162
 Red. masses --      1.0953                 1.0946                 1.1025
 Frc consts  --      6.2577                 6.2722                 6.4113
 IR Inten    --      7.6123                35.7915                22.1847

                     64                     65                     66
                      A                      A                      A
 Frequencies --   3152.2195              3154.4594              3163.8943
 Red. masses --      1.1052                 1.0795                 1.1005
 Frc consts  --      6.4700                 6.3287                 6.4905
 IR Inten    --     10.8223                18.4225                 8.7725

                     67                     68                     69
                      A                      A                      A
 Frequencies --   3170.4535              3171.1553              3244.5927
 Red. masses --      1.0704                 1.1062                 1.1160
 Frc consts  --      6.3393                 6.5542                 6.9221
 IR Inten    --      5.2565                 5.2305                15.1960

                     70                     71                     72
                      A                      A                      A
 Frequencies --   3395.3756              3510.5155              3527.9302
 Red. masses --      1.0530                 1.0769                 1.0854
 Frc consts  --      7.1522                 7.8194                 7.9597
 IR Inten    --     17.5851                 0.7670                 0.2269

 - Thermochemistry -
 -------------------
 Temperature   298.150 Kelvin.  Pressure   1.00000 Atm.
 Atom     1 has atomic number  6 and mass  12.00000

 Molecular mass:   160.10342 amu.
 Principal axes and moments of inertia in atomic units:
                           1         2         3
     Eigenvalues --  1348.900262027.620792255.97040
           X            0.99890  -0.03269   0.03359
           Y            0.03098   0.99826   0.05015
           Z           -0.03518  -0.04905   0.99818
 This molecule is an asymmetric top.
 Rotational symmetry number  1.
 Warning -- assumption of classical behavior for rotation
           may cause significant error
 Rotational temperatures (Kelvin)      0.06421     0.04272     0.03839
 Rotational constants (GHZ):           1.33794     0.89008     0.79998
 Zero-point vibrational energy     606218.0 (Joules/Mol)
                                  144.88959 (Kcal/Mol)
 Warning -- explicit consideration of  19 degrees of freedom as
           vibrations may cause significant error
 Vibrational temperatures:    101.24   117.87   164.61   222.35   248.57
          (Kelvin)            273.64   343.49   365.13   400.96   423.33
                              437.95   458.73   471.26   509.09   524.08
                              564.10   641.94   737.53   796.56   921.54
                              972.08  1030.09  1164.48  1298.68  1325.31
                             1358.87  1392.15  1405.57  1433.67  1438.75
                             1464.18  1503.90  1510.44  1515.09  1661.61
                             1676.45  1724.85  1766.62  1775.06  1889.11
                             1915.54  1933.48  1992.70  1996.24  2049.13
                             2079.46  2116.08  2152.61  2179.97  2185.10
                             2188.76  2198.71  2204.36  2227.69  2461.10
                             2487.06  4318.77  4378.49  4388.54  4420.03
                             4480.39  4486.98  4520.08  4535.34  4538.56
                             4552.14  4561.58  4562.59  4668.25  4885.19
                             5050.85  5075.90

 Zero-point correction=                           0.230896 (Hartree/Particle)
 Thermal correction to Energy=                    0.243622
 Thermal correction to Enthalpy=                  0.244566
 Thermal correction to Gibbs Free Energy=         0.193151
 Sum of electronic and zero-point Energies=           -783.817659
 Sum of electronic and thermal Energies=              -783.804934
 Sum of electronic and thermal Enthalpies=            -783.803990
 Sum of electronic and thermal Free Energies=         -783.855405

                     E (Thermal)             CV                S
                      KCal/Mol        Cal/Mol-Kelvin    Cal/Mol-Kelvin
 Total                  152.875             47.711            108.213
 Electronic               0.000              0.000              0.000
 Translational            0.889              2.981             41.121
 Rotational               0.889              2.981             30.202
 Vibrational            151.098             41.750             36.890
 Vibration     1          0.598              1.968              4.143
 Vibration     2          0.600              1.962              3.844
 Vibration     3          0.607              1.937              3.193
 Vibration     4          0.620              1.898              2.616
 Vibration     5          0.626              1.876              2.405
 Vibration     6          0.634              1.853              2.226
 Vibration     7          0.657              1.781              1.812
 Vibration     8          0.665              1.756              1.704
 Vibration     9          0.679              1.713              1.542
 Vibration    10          0.689              1.684              1.450
 Vibration    11          0.695              1.665              1.393
 Vibration    12          0.705              1.638              1.316
 Vibration    13          0.711              1.620              1.272
 Vibration    14          0.730              1.567              1.149
 Vibration    15          0.738              1.546              1.104
 Vibration    16          0.760              1.487              0.992
 Vibration    17          0.805              1.369              0.807
 Vibration    18          0.868              1.222              0.627
 Vibration    19          0.909              1.132              0.537

 Optimization completed.
    -- Stationary point found.
 Normal termination of Gaussian 16 at Tue Dec  8 10:34:12 2020.

 ----------------------------------------------------------------------
 # B3LYP/6-311++G(d,p) empiricaldispersion=gd3bj scf=xqc pop=npa geom=c
 heck
 ----------------------------------------------------------------------

 --------------------------------------
 CID_130713814_JID_270_Energie_neutraal
 --------------------------------------
 Structure from the checkpoint file:  "JID_270.chk"
 Charge =  0 Multiplicity = 1

 SCF Done:  E(RB3LYP) =  -784.197809032     A.U. after   14 cycles
 Normal termination of Gaussian 16 at Tue Dec  8 10:41:59 2020.

 ----------------------------------------------------------------------
 # B3LYP/6-311++G(d,p) empiricaldispersion=gd3bj scf=xqc pop=npa geom=c
 heck
 ----------------------------------------------------------------------

 ------------------------------------
 CID_130713814_JID_270_Energie_kation
 ------------------------------------
 Structure from the checkpoint file:  "JID_270.chk"
 Charge =  1 Multiplicity = 2

 SCF Done:  E(UB3LYP) =  -783.902178023     A.U. after   25 cycles
 Normal termination of Gaussian 16 at Tue Dec  8 10:50:44 2020.
 Gaussian 16:  ES64L-G16RevA.03 25-Dec-2016

 ----------------------------------------------------------------------
 # B3LYP/6-311++G(d,p) empiricaldispersion=gd3bj scf=xqc pop=npa geom=c
 heck
 ----------------------------------------------------------------------

 -----------------------------------
 CID_130713814_JID_270_Energie_anion
 -----------------------------------
 Structure from the checkpoint file:  "JID_270.chk"
 Charge = -1 Multiplicity = 2

                         Standard orientation:
 ---------------------------------------------------------------------
 Center     Atomic      Atomic             Coordinates (Angstroms)
 Number     Number       Type             X           Y           Z
 ---------------------------------------------------------------------
      1          6           0        0.907041    2.120618    0.504325
      2          6           0        0.687961    0.601274    0.512433
      3          6           0        1.414210   -0.013811    1.711983
      4          6           0       -0.835883    0.259823    0.594293
      5          6           0       -1.695922    1.145396   -0.289627
      6          6           0       -2.270243    0.776892   -1.434959
      7          7           0       -1.030177   -1.179954    0.400691
      8          7           0       -2.348490   -1.659979    0.679173
      9         16           0        1.409438    0.000092   -1.106158
     10          6           0        2.009624   -1.688662   -0.732633
     11          1           0        0.396292    2.579602    1.361009
     12          1           0        0.523721    2.585250   -0.408603
     13          1           0        1.974515    2.346227    0.578029
     14          1           0        1.070386    0.478342    2.630730
     15          1           0        1.200677   -1.080186    1.802668
     16          1           0        2.495587    0.135788    1.635681
     17          1           0       -1.123946    0.466393    1.637057
     18          1           0       -1.843862    2.164237    0.066413
     19          1           0       -2.866981    1.471629   -2.018790
     20          1           0       -2.165112   -0.226614   -1.838705
     21          1           0       -0.833513   -1.408538   -0.570490
     22          1           0       -2.400776   -1.809361    1.684938
     23          1           0       -3.042641   -0.944382    0.444234
     24          1           0        2.864751   -1.672215   -0.053161
     25          1           0        1.218188   -2.312937   -0.315027
     26          1           0        2.331660   -2.104355   -1.691399
 ---------------------------------------------------------------------

 SCF Done:  E(UB3LYP) =  -784.181840128     A.U. after   32 cycles

 The electronic state is 2-A.
 Alpha  occ. eigenvalues --  -88.73070 -14.21749 -14.21330 -10.11325 -10.10142
 Alpha  occ. eigenvalues --  -10.08832 -10.07200 -10.06481 -10.06046 -10.05490
 Alpha  occ. eigenvalues --   -7.81694  -5.78096  -5.77712  -5.77059  -0.86096
 Alpha  occ. eigenvalues --   -0.74068  -0.68318  -0.64974  -0.64902  -0.58752
 Alpha  occ. eigenvalues --   -0.56212  -0.53954  -0.46438  -0.43092  -0.40708
 Alpha  occ. eigenvalues --   -0.37771  -0.37165  -0.36201  -0.34711  -0.32847
 Alpha  occ. eigenvalues --   -0.32568  -0.31881  -0.29707  -0.28902  -0.27286
 Alpha  occ. eigenvalues --   -0.26935  -0.25340  -0.24597  -0.23326  -0.19739
 Alpha  occ. eigenvalues --   -0.16346  -0.15583  -0.14073  -0.11928   0.04785
 Alpha virt. eigenvalues --    0.06797   0.07707   0.08063   0.09175   0.09498
 Alpha virt. eigenvalues --    0.09909   0.10203   0.10895   0.11381   0.12434
 Alpha virt. eigenvalues --    0.12735   0.12963   0.13627   0.13823   0.14605

  Beta  occ. eigenvalues --  -88.73062 -14.21743 -14.21299 -10.11315 -10.10123
  Beta  occ. eigenvalues --  -10.08809 -10.07183 -10.06462 -10.06021 -10.05454
  Beta  occ. eigenvalues --   -7.81685  -5.78077  -5.77706  -5.77053  -0.86068
  Beta  occ. eigenvalues --   -0.74031  -0.68275  -0.64929  -0.64860  -0.58694
  Beta  occ. eigenvalues --   -0.56155  -0.53889  -0.46380  -0.43047  -0.40668
  Beta  occ. eigenvalues --   -0.37720  -0.37124  -0.36159  -0.34675  -0.32803
  Beta  occ. eigenvalues --   -0.32524  -0.31853  -0.29669  -0.28857  -0.27247
  Beta  occ. eigenvalues --   -0.26886  -0.25295  -0.24554  -0.23286  -0.19710
  Beta  occ. eigenvalues --   -0.16322  -0.15552  -0.14055  -0.11907
  Beta virt. eigenvalues --    0.07005   0.07687   0.08498   0.08705   0.09519
  Beta virt. eigenvalues --    0.09932   0.10392   0.10821   0.11235   0.11856
  Beta virt. eigenvalues --    0.12788   0.13229   0.13287   0.13904   0.14229

 Mulliken charges and spin densities:
               1          2
     1  C    0.361499  -0.912483
     2  C   -1.132660   2.144732
     3  C    1.569899  -2.039672
     4  C    1.296839  -1.906095
     5  C   -1.093409   0.937673
     6  C    0.892623  -1.442379
     7  N   -0.195769   0.063216
     8  N   -0.447775  -0.084972
     9  S    0.150370  -0.344913
    10  C   -0.223827  -0.463829
    11  H   -0.152768   0.325810
    12  H   -0.032082   0.195114
    13  H   -0.077762   0.213245
    14  H   -0.236603   0.391372
    15  H   -0.087670   0.261328
    16  H   -0.092332   0.263142
    17  H   -0.504386   0.741471
    18  H   -0.854773   1.060426
    19  H   -0.281926   0.423676
    20  H   -0.033501   0.145881
    21  H    0.219901   0.019689
    22  H   -0.006463   0.254467
    23  H    0.186164   0.035744
    24  H   -0.230917   0.393462
    25  H    0.088609   0.094926
    26  H   -0.081281   0.228969
 Sum of Mulliken charges =  -1.00000   1.00000

 Dipole moment (field-independent basis, Debye):
    X=              1.8618    Y=             -2.2626    Z=             -3.4162  Tot=              4.5007
 Quadrupole moment (field-independent basis, Debye-Ang):
   XX=           -119.3910   YY=           -116.1218   ZZ=           -113.8202
   XY=              4.8449   XZ=              0.4396   YZ=             -0.3808

 Summary of Natural Population Analysis:

                                       Natural Population
                Natural  -----------------------------------------------
    Atom  No    Charge         Core      Valence    Rydberg      Total
 -----------------------------------------------------------------------
      C    1   -0.29196      0.99960     2.28408    0.00828     3.29196
      C    2   -0.08470      0.99953     2.06787    0.01730     3.08470
      C    3   -0.29442      0.99959     2.28590    0.00893     3.29442
      C    4   -0.04195      0.99948     2.02145    0.02101     3.04195
      C    5   -0.09405      0.99954     2.08140    0.01311     3.09405
      C    6   -0.19230      0.99954     2.18462    0.00814     3.19230
      N    7   -0.25900      0.99973     2.74341    0.01587     3.75900
      N    8   -0.32679      0.99978     2.81556    0.01145     3.82679
      S    9    0.08732      4.99957     2.89686    0.01624     7.91268
      C   10   -0.35468      0.99961     2.34879    0.00628     3.35468
      H   11    0.10488      0.00000     0.39333    0.00179     0.39512
      H   12    0.10574      0.00000     0.39306    0.00121     0.39426
      H   13    0.10455      0.00000     0.39411    0.00134     0.39545
      H   14    0.10641      0.00000     0.39151    0.00208     0.39359
      H   15    0.11043      0.00000     0.38763    0.00193     0.38957
      H   16    0.10169      0.00000     0.39717    0.00114     0.39831
      H   17    0.10638      0.00000     0.38850    0.00512     0.39362
      H   18    0.10168      0.00000     0.39604    0.00229     0.39832
      H   19    0.09673      0.00000     0.40213    0.00115     0.40327
      H   20    0.09002      0.00000     0.40818    0.00180     0.40998
      H   21    0.17163      0.00000     0.32476    0.00361     0.32837
      H   22    0.17188      0.00000     0.32596    0.00216     0.32812
      H   23    0.16663      0.00000     0.33121    0.00216     0.33337
      H   24    0.10142      0.00000     0.39699    0.00159     0.39858
      H   25    0.10773      0.00000     0.39034    0.00193     0.39227
      H   26    0.10475      0.00000     0.39431    0.00094     0.39525
 =======================================================================
   * Total *    0.00000     13.99598    29.84517    0.15885    44.00000

 Normal termination of Gaussian 16 at Tue Dec  8 11:00:49 2020.
