 Gaussian 16, Revision A.03,

 -----------------------------------------------------------
 # opt freq B3LYP/6-31G(d) empiricaldispersion=gd3bj scf=xqc
 -----------------------------------------------------------

 ------------------------------
 CID_54435883_JID_2535_neutraal
 ------------------------------
 Symbolic Z-matrix:
 Charge =  0 Multiplicity = 1

 SCF Done:  E(RB3LYP) =  -914.908219653     A.U. after   15 cycles
 SCF Done:  E(RB3LYP) =  -914.910162742     A.U. after   13 cycles
 SCF Done:  E(RB3LYP) =  -914.907395424     A.U. after   13 cycles
 SCF Done:  E(RB3LYP) =  -914.911015267     A.U. after   13 cycles
 SCF Done:  E(RB3LYP) =  -914.912646579     A.U. after   15 cycles
 SCF Done:  E(RB3LYP) =  -914.912892766     A.U. after   12 cycles
 SCF Done:  E(RB3LYP) =  -914.912992658     A.U. after   12 cycles
 SCF Done:  E(RB3LYP) =  -914.913077392     A.U. after   12 cycles
 SCF Done:  E(RB3LYP) =  -914.913219298     A.U. after   13 cycles
 SCF Done:  E(RB3LYP) =  -914.913275725     A.U. after   13 cycles
 SCF Done:  E(RB3LYP) =  -914.913775360     A.U. after   10 cycles
 SCF Done:  E(RB3LYP) =  -914.913776346     A.U. after   10 cycles
 SCF Done:  E(RB3LYP) =  -914.913776395     A.U. after    8 cycles
 SCF Done:  E(RB3LYP) =  -914.913776425     A.U. after    8 cycles
 SCF Done:  E(RB3LYP) =  -914.913776425     A.U. after    7 cycles
 Optimization completed.
    -- Stationary point found.
 Normal termination of Gaussian 16 at Wed Dec  9 17:35:16 2020.

 --------------------------------------------------------------------
 #N Geom=AllCheck Guess=TCheck SCRF=Check GenChk RB3LYP/6-31G(d) Freq
 --------------------------------------------------------------------

 Structure from the checkpoint file:  "JID_2535.chk"
 ------------------------------
 CID_54435883_JID_2535_neutraal
 ------------------------------
 Charge =  0 Multiplicity = 1

 SCF Done:  E(RB3LYP) =  -914.913776425     A.U. after    1 cycles

  Exact polarizability: 128.889   0.233 115.513  -6.304   0.002  73.477
 Approx polarizability: 191.612  -1.003 173.703 -18.997   2.590 125.271

                      1                      2                      3
                      A                      A                      A
 Frequencies --     18.8867                52.1116                56.3658
 Red. masses --      6.1391                 4.8012                 3.0136
 Frc consts  --      0.0013                 0.0077                 0.0056
 IR Inten    --      0.4918                 0.7415                 0.3898

                      4                      5                      6
                      A                      A                      A
 Frequencies --     97.0524               117.9183               138.3700
 Red. masses --      5.5878                 4.1610                 3.9829
 Frc consts  --      0.0310                 0.0341                 0.0449
 IR Inten    --      2.0956                 0.5483                 0.1185

                      7                      8                      9
                      A                      A                      A
 Frequencies --    207.7518               229.3458               296.6505
 Red. masses --      1.7870                 2.1277                 2.4267
 Frc consts  --      0.0454                 0.0659                 0.1258
 IR Inten    --      2.7123                 3.5392                 4.8755

                     10                     11                     12
                      A                      A                      A
 Frequencies --    323.5506               359.5475               435.0954
 Red. masses --      2.5437                 3.4296                 3.4266
 Frc consts  --      0.1569                 0.2612                 0.3822
 IR Inten    --      3.1872                 9.4205                13.1545

                     13                     14                     15
                      A                      A                      A
 Frequencies --    464.1124               492.4181               569.1675
 Red. masses --      2.8837                 4.8531                 4.9104
 Frc consts  --      0.3660                 0.6933                 0.9372
 IR Inten    --      1.5699                 4.8954                 2.1826

                     16                     17                     18
                      A                      A                      A
 Frequencies --    615.0467               661.0285               699.8653
 Red. masses --      3.6353                 6.3875                 4.8106
 Frc consts  --      0.8102                 1.6445                 1.3883
 IR Inten    --      4.9496                 1.0925                 8.7871

                     19                     20                     21
                      A                      A                      A
 Frequencies --    713.9062               735.9776               803.7627
 Red. masses --      2.7543                 1.3075                 1.4270
 Frc consts  --      0.8271                 0.4173                 0.5432
 IR Inten    --      5.2159                 4.5136                 2.3512

                     22                     23                     24
                      A                      A                      A
 Frequencies --    818.3893               820.0376               871.6430
 Red. masses --      2.6800                 1.4432                 2.5167
 Frc consts  --      1.0576                 0.5718                 1.1266
 IR Inten    --     10.7840                30.5984                 7.4918

                     25                     26                     27
                      A                      A                      A
 Frequencies --    881.5412               902.3961               939.0433
 Red. masses --      4.0995                 2.8136                 3.5536
 Frc consts  --      1.8770                 1.3499                 1.8462
 IR Inten    --     36.0247                 3.7742                29.5078

                     28                     29                     30
                      A                      A                      A
 Frequencies --    966.0810              1007.1332              1039.5730
 Red. masses --      2.6550                 2.2574                 2.7174
 Frc consts  --      1.4600                 1.3491                 1.7303
 IR Inten    --      5.0667                 3.9613                14.6344

                     31                     32                     33
                      A                      A                      A
 Frequencies --   1077.5318              1135.6994              1164.4093
 Red. masses --      3.2491                 1.9684                 1.2948
 Frc consts  --      2.2226                 1.4959                 1.0343
 IR Inten    --     24.5664                33.6047                20.7755

                     34                     35                     36
                      A                      A                      A
 Frequencies --   1185.0801              1213.0455              1227.9192
 Red. masses --      1.5281                 1.6793                 1.6315
 Frc consts  --      1.2644                 1.4559                 1.4494
 IR Inten    --     94.1493                 5.7845                11.2814

                     37                     38                     39
                      A                      A                      A
 Frequencies --   1267.3468              1279.0665              1343.0927
 Red. masses --      1.8501                 1.3218                 1.1304
 Frc consts  --      1.7508                 1.2741                 1.2014
 IR Inten    --    238.8381                 5.3561                12.5918

                     40                     41                     42
                      A                      A                      A
 Frequencies --   1369.7267              1379.7141              1394.2487
 Red. masses --      2.9128                 1.4031                 1.4754
 Frc consts  --      3.2198                 1.5737                 1.6898
 IR Inten    --      5.6685                10.1906                48.7821

                     43                     44                     45
                      A                      A                      A
 Frequencies --   1424.7392              1446.2349              1495.6545
 Red. masses --      1.3908                 1.3392                 3.0358
 Frc consts  --      1.6633                 1.6503                 4.0012
 IR Inten    --     22.5960                 6.0336                37.6082

                     46                     47                     48
                      A                      A                      A
 Frequencies --   1503.0841              1509.9206              1514.8696
 Red. masses --      1.1634                 1.2935                 1.0449
 Frc consts  --      1.5486                 1.7375                 1.4128
 IR Inten    --     10.0081                29.2813                 7.7908

                     49                     50                     51
                      A                      A                      A
 Frequencies --   1519.0001              1532.9062              1578.7588
 Red. masses --      1.0859                 1.0680                 7.1804
 Frc consts  --      1.4762                 1.4785                10.5446
 IR Inten    --      2.4753                18.1793                27.8874

                     52                     53                     54
                      A                      A                      A
 Frequencies --   1822.4153              3060.5876              3062.5239
 Red. masses --     10.7852                 1.0374                 1.0633
 Frc consts  --     21.1044                 5.7255                 5.8756
 IR Inten    --    183.2624                18.4222                11.6729

                     55                     56                     57
                      A                      A                      A
 Frequencies --   3067.5319              3093.0649              3110.5153
 Red. masses --      1.0636                 1.0586                 1.1022
 Frc consts  --      5.8964                 5.9673                 6.2833
 IR Inten    --     18.5878                35.7354                15.0203

                     58                     59                     60
                      A                      A                      A
 Frequencies --   3125.2037              3134.8827              3143.1558
 Red. masses --      1.1020                 1.0987                 1.1053
 Frc consts  --      6.3417                 6.3619                 6.4339
 IR Inten    --     33.2360                12.0720                14.3454

                     61                     62                     63
                      A                      A                      A
 Frequencies --   3163.8892              3248.6572              3278.1912
 Red. masses --      1.1045                 1.0939                 1.0948
 Frc consts  --      6.5143                 6.8023                 6.9322
 IR Inten    --     22.1604                 1.0168                 1.4600

 - Thermochemistry -
 -------------------
 Temperature   298.150 Kelvin.  Pressure   1.00000 Atm.
 Atom     1 has atomic number  6 and mass  12.00000

 Molecular mass:   185.05105 amu.
 Principal axes and moments of inertia in atomic units:
                           1         2         3
     Eigenvalues --  1263.949693557.408354435.65750
           X            0.99931   0.03700   0.00174
           Y           -0.03697   0.99920  -0.01521
           Z           -0.00230   0.01513   0.99988
 This molecule is an asymmetric top.
 Rotational symmetry number  1.
 Warning -- assumption of classical behavior for rotation
           may cause significant error
 Rotational temperatures (Kelvin)      0.06853     0.02435     0.01953
 Rotational constants (GHZ):           1.42786     0.50732     0.40687
 Zero-point vibrational energy     485722.4 (Joules/Mol)
                                  116.09043 (Kcal/Mol)
 Warning -- explicit consideration of  16 degrees of freedom as
           vibrations may cause significant error
 Vibrational temperatures:     27.17    74.98    81.10   139.64   169.66
          (Kelvin)            199.08   298.91   329.98   426.81   465.52
                              517.31   626.01   667.75   708.48   818.91
                              884.91   951.07  1006.95  1027.15  1058.91
                             1156.44  1177.48  1179.85  1254.10  1268.34
                             1298.35  1351.07  1389.98  1449.04  1495.71
                             1550.33  1634.02  1675.33  1705.07  1745.30
                             1766.70  1823.43  1840.29  1932.41  1970.73
                             1985.10  2006.01  2049.88  2080.81  2151.91
                             2162.60  2172.44  2179.56  2185.50  2205.51
                             2271.48  2622.05  4403.50  4406.29  4413.49
                             4450.23  4475.34  4496.47  4510.40  4522.30
                             4552.13  4674.09  4716.59

 Zero-point correction=                           0.185002 (Hartree/Particle)
 Thermal correction to Energy=                    0.197033
 Thermal correction to Enthalpy=                  0.197977
 Thermal correction to Gibbs Free Energy=         0.144453
 Sum of electronic and zero-point Energies=           -914.728775
 Sum of electronic and thermal Energies=              -914.716743
 Sum of electronic and thermal Enthalpies=            -914.715799
 Sum of electronic and thermal Free Energies=         -914.769323

                     E (Thermal)             CV                S
                      KCal/Mol        Cal/Mol-Kelvin    Cal/Mol-Kelvin
 Total                  123.640             43.461            112.651
 Electronic               0.000              0.000              0.000
 Translational            0.889              2.981             41.553
 Rotational               0.889              2.981             31.367
 Vibrational            121.863             37.500             39.732
 Vibration     1          0.593              1.986              6.748
 Vibration     2          0.596              1.977              4.736
 Vibration     3          0.596              1.975              4.581
 Vibration     4          0.603              1.951              3.513
 Vibration     5          0.608              1.934              3.134
 Vibration     6          0.614              1.915              2.826
 Vibration     7          0.641              1.829              2.063
 Vibration     8          0.652              1.796              1.884
 Vibration     9          0.690              1.680              1.436
 Vibration    10          0.708              1.628              1.292
 Vibration    11          0.734              1.556              1.124
 Vibration    12          0.796              1.394              0.842
 Vibration    13          0.822              1.330              0.754
 Vibration    14          0.848              1.267              0.677
 Vibration    15          0.925              1.098              0.506
 Vibration    16          0.975              1.000              0.424

 Optimization completed.
    -- Stationary point found.
 Normal termination of Gaussian 16 at Wed Dec  9 17:40:14 2020.

 ----------------------------------------------------------------------
 # B3LYP/6-311++G(d,p) empiricaldispersion=gd3bj scf=xqc pop=npa geom=c
 heck
 ----------------------------------------------------------------------

 --------------------------------------
 CID_54435883_JID_2535_Energie_neutraal
 --------------------------------------
 Structure from the checkpoint file:  "JID_2535.chk"
 Charge =  0 Multiplicity = 1

 SCF Done:  E(RB3LYP) =  -915.087111271     A.U. after   15 cycles
 Normal termination of Gaussian 16 at Wed Dec  9 17:44:12 2020.

 ----------------------------------------------------------------------
 # B3LYP/6-311++G(d,p) empiricaldispersion=gd3bj scf=xqc pop=npa geom=c
 heck
 ----------------------------------------------------------------------

 ------------------------------------
 CID_54435883_JID_2535_Energie_kation
 ------------------------------------
 Structure from the checkpoint file:  "JID_2535.chk"
 Charge =  1 Multiplicity = 2

 SCF Done:  E(UB3LYP) =  -914.760897885     A.U. after   25 cycles
 Normal termination of Gaussian 16 at Wed Dec  9 17:50:48 2020.
 Gaussian 16:  ES64L-G16RevA.03 25-Dec-2016

 ----------------------------------------------------------------------
 # B3LYP/6-311++G(d,p) empiricaldispersion=gd3bj scf=xqc pop=npa geom=c
 heck
 ----------------------------------------------------------------------

 -----------------------------------
 CID_54435883_JID_2535_Energie_anion
 -----------------------------------
 Structure from the checkpoint file:  "JID_2535.chk"
 Charge = -1 Multiplicity = 2

                         Standard orientation:
 ---------------------------------------------------------------------
 Center     Atomic      Atomic             Coordinates (Angstroms)
 Number     Number       Type             X           Y           Z
 ---------------------------------------------------------------------
      1          6           0       -2.358685   -2.166247    0.201365
      2          6           0       -3.159647   -1.004741   -0.365414
      3          8           0       -2.277160    0.019161   -0.879939
      4          6           0       -1.804155    0.899356    0.024792
      5          8           0       -2.141574    0.936631    1.188955
      6          6           0       -0.822612    1.871661   -0.602765
      7          6           0        0.455713    1.994058    0.246479
      8          6           0        1.328880    0.775291    0.147485
      9          6           0        2.666320    0.757986   -0.138081
     10         16           0        3.267626   -0.870113   -0.153538
     11          6           0        1.650313   -1.416368    0.221375
     12          7           0        0.766160   -0.473852    0.346689
     13          1           0       -1.700667   -2.588919   -0.564537
     14          1           0       -3.037650   -2.951933    0.552341
     15          1           0       -1.743108   -1.827768    1.037954
     16          1           0       -3.759438   -1.307316   -1.227204
     17          1           0       -3.808916   -0.562424    0.393755
     18          1           0       -0.593318    1.567406   -1.626720
     19          1           0       -1.319200    2.848997   -0.640455
     20          1           0        1.026305    2.874195   -0.065887
     21          1           0        0.152900    2.149200    1.288901
     22          1           0        3.318744    1.596748   -0.335655
     23          1           0        1.432315   -2.471725    0.333746
 ---------------------------------------------------------------------

 SCF Done:  E(UB3LYP) =  -915.071627246     A.U. after   33 cycles
 SCF Done:  E(UB3LYP) =  -915.071627246     a.u. after    1 cycles

 The electronic state is 2-A.
 Alpha  occ. eigenvalues --  -88.76446 -19.05719 -18.99796 -14.19531 -10.18975
 Alpha  occ. eigenvalues --  -10.12175 -10.10979 -10.09148 -10.07790 -10.07359
 Alpha  occ. eigenvalues --  -10.06926 -10.05972  -7.85096  -5.81359  -5.81021
 Alpha  occ. eigenvalues --   -5.80734  -0.99629  -0.90962  -0.84759  -0.69806
 Alpha  occ. eigenvalues --   -0.68134  -0.66561  -0.62216  -0.56291  -0.52299
 Alpha  occ. eigenvalues --   -0.48398  -0.45024  -0.42990  -0.40365  -0.38817
 Alpha  occ. eigenvalues --   -0.37842  -0.35924  -0.34405  -0.32341  -0.31349
 Alpha  occ. eigenvalues --   -0.29861  -0.29696  -0.29281  -0.27857  -0.27092
 Alpha  occ. eigenvalues --   -0.26041  -0.25294  -0.23715  -0.23224  -0.19739
 Alpha  occ. eigenvalues --   -0.17223  -0.16984  -0.16283  -0.13281   0.05006
 Alpha virt. eigenvalues --    0.06391   0.07215   0.08021   0.08549   0.09307
 Alpha virt. eigenvalues --    0.10255   0.10705   0.10963   0.11365   0.11965
 Alpha virt. eigenvalues --    0.12486   0.12840   0.13544   0.14454   0.14925

  Beta  occ. eigenvalues --  -88.76419 -19.05709 -18.99793 -14.19490 -10.18968
  Beta  occ. eigenvalues --  -10.12156 -10.10777 -10.09150 -10.07637 -10.07341
  Beta  occ. eigenvalues --  -10.06908 -10.05957  -7.85072  -5.81347  -5.81011
  Beta  occ. eigenvalues --   -5.80642  -0.99612  -0.90951  -0.84588  -0.69743
  Beta  occ. eigenvalues --   -0.67953  -0.66511  -0.62062  -0.56198  -0.52207
  Beta  occ. eigenvalues --   -0.48107  -0.44970  -0.42863  -0.40305  -0.38719
  Beta  occ. eigenvalues --   -0.37811  -0.35853  -0.34370  -0.32266  -0.31241
  Beta  occ. eigenvalues --   -0.29772  -0.29394  -0.29164  -0.27812  -0.27002
  Beta  occ. eigenvalues --   -0.25846  -0.25253  -0.23668  -0.23151  -0.19700
  Beta  occ. eigenvalues --   -0.17011  -0.16656  -0.16205  -0.12548
  Beta virt. eigenvalues --    0.07142   0.07937   0.08419   0.08636   0.09222
  Beta virt. eigenvalues --    0.09785   0.10338   0.11053   0.11108   0.11767
  Beta virt. eigenvalues --    0.12161   0.12691   0.12810   0.14093   0.14539

 Mulliken charges and spin densities:
               1          2
     1  C   -0.305109  -0.170455
     2  C    0.614349  -0.725911
     3  O    0.010602   0.038110
     4  C   -0.422404  -0.016914
     5  O   -0.248729   0.016011
     6  C    0.551057  -0.672844
     7  C    1.296308  -1.798980
     8  C   -1.447722   0.382960
     9  C    0.596012   0.164381
    10  S    0.210286  -0.626525
    11  C   -0.261261   0.606995
    12  N    0.115786   0.058914
    13  H    0.227066  -0.082400
    14  H   -0.376125   0.501115
    15  H    0.131488   0.070522
    16  H   -0.490878   0.650068
    17  H    0.128869   0.025776
    18  H    0.160887   0.018916
    19  H   -0.402393   0.588845
    20  H   -0.436136   0.599086
    21  H    0.150685   0.047981
    22  H   -0.872797   1.159372
    23  H    0.070157   0.164978
 Sum of Mulliken charges =  -1.00000   1.00000

 Dipole moment (field-independent basis, Debye):
    X=              0.5327    Y=             -3.7071    Z=             -0.1440  Tot=              3.7479
 Quadrupole moment (field-independent basis, Debye-Ang):
   XX=           -140.1096   YY=           -123.2922   ZZ=           -103.1187
   XY=            -15.7648   XZ=              0.2408   YZ=             -0.4582

 Summary of Natural Population Analysis:

                                       Natural Population
                Natural  -----------------------------------------------
    Atom  No    Charge         Core      Valence    Rydberg      Total
 -----------------------------------------------------------------------
      C    1   -0.29952      0.99966     2.29421    0.00565     3.29952
      C    2   -0.01745      0.99958     2.00617    0.01170     3.01745
      O    3   -0.28063      0.99986     3.27152    0.00925     4.28063
      C    4    0.41733      0.99969     1.55591    0.02707     2.58267
      O    5   -0.31529      0.99987     3.31011    0.00531     4.31529
      C    6   -0.22984      0.99958     2.22143    0.00884     3.22984
      C    7   -0.19779      0.99958     2.18776    0.01044     3.19779
      C    8    0.05902      0.99949     1.92646    0.01504     2.94098
      C    9   -0.18373      0.99946     2.17309    0.01118     3.18373
      S   10    0.17522      4.99948     2.80324    0.02207     7.82478
      C   11   -0.01877      0.99965     2.00393    0.01520     3.01877
      N   12   -0.24436      0.99966     2.73320    0.01150     3.74436
      H   13    0.09941      0.00000     0.39962    0.00098     0.40059
      H   14    0.09754      0.00000     0.40134    0.00112     0.40246
      H   15    0.11221      0.00000     0.38656    0.00123     0.38779
      H   16    0.08852      0.00000     0.40998    0.00150     0.41148
      H   17    0.09356      0.00000     0.40522    0.00122     0.40644
      H   18    0.10793      0.00000     0.39068    0.00139     0.39207
      H   19    0.11311      0.00000     0.38514    0.00176     0.38689
      H   20    0.10646      0.00000     0.39160    0.00194     0.39354
      H   21    0.11166      0.00000     0.38698    0.00137     0.38834
      H   22    0.11245      0.00000     0.38514    0.00241     0.38755
      H   23    0.09296      0.00000     0.40600    0.00104     0.40704
 =======================================================================
   * Total *    0.00000     15.99553    32.83527    0.16920    49.00000

 Normal termination of Gaussian 16 at Wed Dec  9 17:58:25 2020.
