 Gaussian 16, Revision A.03,

 -----------------------------------------------------------
 # opt freq B3LYP/6-31G(d) empiricaldispersion=gd3bj scf=xqc
 -----------------------------------------------------------

 -------------------------------
 CID_64286123_JID_10509_neutraal
 -------------------------------
 Symbolic Z-matrix:
 Charge =  0 Multiplicity = 1

 SCF Done:  E(RB3LYP) =  -1369.13025418     A.U. after   15 cycles
 SCF Done:  E(RB3LYP) =  -1369.14419566     A.U. after   13 cycles
 SCF Done:  E(RB3LYP) =  -1369.14586788     A.U. after   12 cycles
 SCF Done:  E(RB3LYP) =  -1369.14598046     A.U. after   12 cycles
 SCF Done:  E(RB3LYP) =  -1369.14639423     A.U. after   12 cycles
 SCF Done:  E(RB3LYP) =  -1369.14662275     A.U. after   11 cycles
 SCF Done:  E(RB3LYP) =  -1369.14679948     A.U. after   12 cycles
 SCF Done:  E(RB3LYP) =  -1369.14692650     A.U. after   11 cycles
 SCF Done:  E(RB3LYP) =  -1369.14728908     A.U. after   12 cycles
 SCF Done:  E(RB3LYP) =  -1369.14764268     A.U. after   12 cycles
 SCF Done:  E(RB3LYP) =  -1369.14832736     A.U. after    8 cycles
 SCF Done:  E(RB3LYP) =  -1369.14832748     A.U. after    8 cycles
 SCF Done:  E(RB3LYP) =  -1369.14832754     A.U. after    7 cycles
 SCF Done:  E(RB3LYP) =  -1369.14832757     A.U. after    7 cycles
 Optimization completed.
    -- Stationary point found.
 Normal termination of Gaussian 16 at Sat Dec 12 16:07:40 2020.

 --------------------------------------------------------------------
 #N Geom=AllCheck Guess=TCheck SCRF=Check GenChk RB3LYP/6-31G(d) Freq
 --------------------------------------------------------------------

 Structure from the checkpoint file:  "JID_10509.chk"
 -------------------------------
 CID_64286123_JID_10509_neutraal
 -------------------------------
 Charge =  0 Multiplicity = 1

 SCF Done:  E(RB3LYP) =  -1369.14832757     A.U. after    1 cycles

  Exact polarizability: 223.015   8.852 142.092   3.557 -12.394 140.505
 Approx polarizability: 264.044  17.090 234.552   7.715 -33.715 232.116

                      1                      2                      3
                      A                      A                      A
 Frequencies --     10.9389                21.6199                34.0153
 Red. masses --      5.9933                 4.9069                 4.3243
 Frc consts  --      0.0004                 0.0014                 0.0029
 IR Inten    --      1.2299                 2.2076                 1.6748

                      4                      5                      6
                      A                      A                      A
 Frequencies --     42.1681                53.4235                70.9836
 Red. masses --      4.0880                 3.7974                 1.2606
 Frc consts  --      0.0043                 0.0064                 0.0037
 IR Inten    --      1.4174                 0.5266                 0.0957

                      7                      8                      9
                      A                      A                      A
 Frequencies --     97.4019                99.7003               106.3556
 Red. masses --      2.9739                 1.6627                 4.6992
 Frc consts  --      0.0166                 0.0097                 0.0313
 IR Inten    --      1.5756                 1.8082                 7.4105

                     10                     11                     12
                      A                      A                      A
 Frequencies --    113.6108               125.2360               133.8437
 Red. masses --      3.4453                 4.6300                 3.2154
 Frc consts  --      0.0262                 0.0428                 0.0339
 IR Inten    --      3.7668                 0.6642                 2.8659

                     13                     14                     15
                      A                      A                      A
 Frequencies --    154.6318               174.6126               197.1117
 Red. masses --      3.5207                 1.9706                 3.6923
 Frc consts  --      0.0496                 0.0354                 0.0845
 IR Inten    --      1.7959                 2.5632                 3.3196

                     16                     17                     18
                      A                      A                      A
 Frequencies --    214.8601               226.6745               229.0608
 Red. masses --      2.9761                 3.3193                 1.5122
 Frc consts  --      0.0809                 0.1005                 0.0467
 IR Inten    --      1.5379                 3.3993                 6.2672

                     19                     20                     21
                      A                      A                      A
 Frequencies --    248.0961               257.3936               302.7269
 Red. masses --      7.1021                 3.1112                 6.2177
 Frc consts  --      0.2576                 0.1214                 0.3357
 IR Inten    --      0.6982                 0.3525                 0.3067

                     22                     23                     24
                      A                      A                      A
 Frequencies --    321.4457               345.3556               379.1259
 Red. masses --      5.1184                 4.4634                 3.4641
 Frc consts  --      0.3116                 0.3137                 0.2934
 IR Inten    --      5.7861                 0.6614                 8.0671

                     25                     26                     27
                      A                      A                      A
 Frequencies --    394.4820               421.4952               438.8024
 Red. masses --      4.3756                 3.9470                 2.2963
 Frc consts  --      0.4012                 0.4131                 0.2605
 IR Inten    --      1.0166                 8.8948                22.3572

                     28                     29                     30
                      A                      A                      A
 Frequencies --    456.7465               462.1000               500.1114
 Red. masses --      1.4245                 3.4956                 6.5248
 Frc consts  --      0.1751                 0.4398                 0.9615
 IR Inten    --     66.8765                78.8330                15.2782

                     31                     32                     33
                      A                      A                      A
 Frequencies --    542.6570               565.2101               579.0862
 Red. masses --      3.9764                 3.7095                 7.2576
 Frc consts  --      0.6899                 0.6982                 1.4339
 IR Inten    --      2.5304                 8.7119               120.0493

                     34                     35                     36
                      A                      A                      A
 Frequencies --    623.3049               635.3648               636.6597
 Red. masses --      2.8678                 2.8316                 3.7351
 Frc consts  --      0.6565                 0.6735                 0.8920
 IR Inten    --     34.7498                29.2714                26.0263

                     37                     38                     39
                      A                      A                      A
 Frequencies --    649.3133               672.8940               722.0547
 Red. masses --      2.6739                 2.6296                 2.0301
 Frc consts  --      0.6642                 0.7015                 0.6236
 IR Inten    --     79.2219                49.4767                21.1013

                     40                     41                     42
                      A                      A                      A
 Frequencies --    733.4960               777.8742               797.2531
 Red. masses --      3.9653                 1.7900                 2.5464
 Frc consts  --      1.2570                 0.6381                 0.9536
 IR Inten    --      5.0216                22.6362                43.6386

                     43                     44                     45
                      A                      A                      A
 Frequencies --    820.3145               862.6219               864.0950
 Red. masses --      2.6212                 1.4863                 2.3598
 Frc consts  --      1.0392                 0.6516                 1.0381
 IR Inten    --    152.1836                37.3250                68.8255

                     46                     47                     48
                      A                      A                      A
 Frequencies --    941.8607               968.4045               985.3815
 Red. masses --      2.3692                 2.3784                 6.7260
 Frc consts  --      1.2383                 1.3142                 3.8478
 IR Inten    --     43.0079                17.3745                16.3951

                     49                     50                     51
                      A                      A                      A
 Frequencies --   1026.3891              1038.3018              1084.5350
 Red. masses --      2.0756                 2.2338                 2.9107
 Frc consts  --      1.2883                 1.4188                 2.0172
 IR Inten    --     55.9242                 5.4928               118.7097

                     52                     53                     54
                      A                      A                      A
 Frequencies --   1093.3649              1108.7476              1108.9622
 Red. masses --      1.8353                 2.7234                 2.4546
 Frc consts  --      1.2927                 1.9725                 1.7786
 IR Inten    --      4.1255                47.1937                94.1062

                     55                     56                     57
                      A                      A                      A
 Frequencies --   1128.9240              1141.6611              1152.8262
 Red. masses --      2.3900                 3.0626                 1.5566
 Frc consts  --      1.7946                 2.3519                 1.2189
 IR Inten    --    265.2094                54.6516                29.1620

                     58                     59                     60
                      A                      A                      A
 Frequencies --   1160.7309              1167.3267              1169.8814
 Red. masses --      1.3628                 3.3897                 2.1023
 Frc consts  --      1.0818                 2.7215                 1.6953
 IR Inten    --      1.7635                89.5284                 9.0952

                     61                     62                     63
                      A                      A                      A
 Frequencies --   1177.6142              1195.1356              1215.5693
 Red. masses --      2.2239                 1.2911                 1.4325
 Frc consts  --      1.8171                 1.0866                 1.2471
 IR Inten    --     54.8255                 1.2472                13.8431

                     64                     65                     66
                      A                      A                      A
 Frequencies --   1223.5781              1238.7167              1282.0609
 Red. masses --      1.5238                 1.2629                 1.1597
 Frc consts  --      1.3441                 1.1417                 1.1230
 IR Inten    --     21.4228                36.7580                33.9045

                     67                     68                     69
                      A                      A                      A
 Frequencies --   1302.9377              1311.1301              1330.9597
 Red. masses --      1.6807                 3.7046                 4.0195
 Frc consts  --      1.6811                 3.7522                 4.1952
 IR Inten    --     41.0530               128.8216               128.6614

                     70                     71                     72
                      A                      A                      A
 Frequencies --   1376.7062              1397.8828              1400.7902
 Red. masses --      1.3720                 4.8467                 1.3150
 Frc consts  --      1.5321                 5.5801                 1.5203
 IR Inten    --     11.1235                49.2187                 3.3845

                     73                     74                     75
                      A                      A                      A
 Frequencies --   1408.3550              1417.9010              1433.3743
 Red. masses --      4.7720                 1.2558                 1.5410
 Frc consts  --      5.5767                 1.4875                 1.8654
 IR Inten    --     52.9734                19.1740                45.5749

                     76                     77                     78
                      A                      A                      A
 Frequencies --   1440.3784              1461.2495              1474.4901
 Red. masses --      3.4463                 1.3602                 1.5527
 Frc consts  --      4.2127                 1.7111                 1.9890
 IR Inten    --     71.4754                 9.1396                10.3902

                     79                     80                     81
                      A                      A                      A
 Frequencies --   1476.6264              1490.7902              1501.8621
 Red. masses --      1.5170                 1.2252                 1.1263
 Frc consts  --      1.9489                 1.6043                 1.4967
 IR Inten    --     20.3553                 0.9095                 6.7518

                     82                     83                     84
                      A                      A                      A
 Frequencies --   1505.0054              1515.6068              1519.8386
 Red. masses --      1.1034                 1.0474                 1.0543
 Frc consts  --      1.4725                 1.4175                 1.4348
 IR Inten    --      3.4388                 5.9714                 3.7498

                     85                     86                     87
                      A                      A                      A
 Frequencies --   1524.6839              1533.1334              1536.2814
 Red. masses --      1.0609                 1.0585                 2.5300
 Frc consts  --      1.4531                 1.4659                 3.5181
 IR Inten    --     22.6673                15.8216                31.6585

                     88                     89                     90
                      A                      A                      A
 Frequencies --   1540.6154              1553.3487              1557.2423
 Red. masses --      1.0933                 1.1388                 1.0855
 Frc consts  --      1.5289                 1.6190                 1.5509
 IR Inten    --     30.1377                 3.9790                 6.9375

                     91                     92                     93
                      A                      A                      A
 Frequencies --   1589.0041              1773.4688              3003.9772
 Red. masses --      4.8562                 8.2323                 1.0365
 Frc consts  --      7.2243                15.2552                 5.5106
 IR Inten    --    115.8221               300.8018                55.5564

                     94                     95                     96
                      A                      A                      A
 Frequencies --   3023.1339              3048.2664              3054.7452
 Red. masses --      1.0582                 1.0380                 1.1054
 Frc consts  --      5.6980                 5.6825                 6.0775
 IR Inten    --     43.1036                54.2616                64.5952

                     97                     98                     99
                      A                      A                      A
 Frequencies --   3068.7317              3073.3557              3084.2433
 Red. masses --      1.1047                 1.0378                 1.0610
 Frc consts  --      6.1295                 5.7755                 5.9466
 IR Inten    --     29.0774                38.8498                19.8214

                    100                    101                    102
                      A                      A                      A
 Frequencies --   3100.4225              3125.8634              3139.9137
 Red. masses --      1.1051                 1.0963                 1.1036
 Frc consts  --      6.2586                 6.3113                 6.4103
 IR Inten    --     31.7342                 3.7918                14.9583

                    103                    104                    105
                      A                      A                      A
 Frequencies --   3140.8100              3142.0548              3168.9158
 Red. masses --      1.0986                 1.0966                 1.0980
 Frc consts  --      6.3854                 6.3788                 6.4965
 IR Inten    --     35.6877                15.2582                10.7093

                    106                    107                    108
                      A                      A                      A
 Frequencies --   3193.2189              3290.6140              3300.5550
 Red. masses --      1.1020                 1.0975                 1.0969
 Frc consts  --      6.6206                 7.0015                 7.0406
 IR Inten    --      0.5162                 2.5390                 4.9200

                    109                    110                    111
                      A                      A                      A
 Frequencies --   3522.4892              3570.0825              3708.5951
 Red. masses --      1.0745                 1.0751                 1.0655
 Frc consts  --      7.8549                 8.0732                 8.6345
 IR Inten    --     48.7949                27.0778                18.7696

 - Thermochemistry -
 -------------------
 Temperature   298.150 Kelvin.  Pressure   1.00000 Atm.
 Atom     1 has atomic number  6 and mass  12.00000

 Molecular mass:   305.10454 amu.
 Principal axes and moments of inertia in atomic units:
                           1         2         3
     Eigenvalues --  2523.65333********************
           X            0.99997  -0.00609   0.00506
           Y            0.00627   0.99929  -0.03722
           Z           -0.00483   0.03725   0.99929
 This molecule is an asymmetric top.
 Rotational symmetry number  1.
 Warning -- assumption of classical behavior for rotation
           may cause significant error
 Rotational temperatures (Kelvin)      0.03432     0.00645     0.00620
 Rotational constants (GHZ):           0.71513     0.13450     0.12916
 Zero-point vibrational energy     836548.3 (Joules/Mol)
                                  199.93984 (Kcal/Mol)
 Warning -- explicit consideration of  33 degrees of freedom as
           vibrations may cause significant error
 Vibrational temperatures:     15.74    31.11    48.94    60.67    76.86
          (Kelvin)            102.13   140.14   143.45   153.02   163.46
                              180.19   192.57   222.48   251.23   283.60
                              309.14   326.13   329.57   356.95   370.33
                              435.56   462.49   496.89   545.48   567.57
                              606.44   631.34   657.16   664.86   719.55
                              780.76   813.21   833.18   896.80   914.15
                              916.01   934.22   968.14  1038.88  1055.34
                             1119.19  1147.07  1180.25  1241.12  1243.24
                             1355.13  1393.32  1417.74  1476.74  1493.88
                             1560.40  1573.11  1595.24  1595.55  1624.27
                             1642.60  1658.66  1670.03  1679.52  1683.20
                             1694.32  1719.53  1748.93  1760.46  1782.24
                             1844.60  1874.64  1886.42  1914.95  1980.77
                             2011.24  2015.42  2026.31  2040.04  2062.31
                             2072.38  2102.41  2121.46  2124.54  2144.91
                             2160.84  2165.37  2180.62  2186.71  2193.68
                             2205.84  2210.37  2216.60  2234.92  2240.52
                             2286.22  2551.63  4322.05  4349.62  4385.78
                             4395.10  4415.22  4421.87  4437.54  4460.82
                             4497.42  4517.64  4518.93  4520.72  4559.36
                             4594.33  4734.46  4748.76  5068.08  5136.55
                             5335.84

 Zero-point correction=                           0.318624 (Hartree/Particle)
 Thermal correction to Energy=                    0.340798
 Thermal correction to Enthalpy=                  0.341742
 Thermal correction to Gibbs Free Energy=         0.263993
 Sum of electronic and zero-point Energies=          -1368.829703
 Sum of electronic and thermal Energies=             -1368.807530
 Sum of electronic and thermal Enthalpies=           -1368.806585
 Sum of electronic and thermal Free Energies=        -1368.884334

                     E (Thermal)             CV                S
                      KCal/Mol        Cal/Mol-Kelvin    Cal/Mol-Kelvin
 Total                  213.854             79.170            163.636
 Electronic               0.000              0.000              0.000
 Translational            0.889              2.981             43.043
 Rotational               0.889              2.981             34.514
 Vibrational            212.077             73.208             86.080
 Vibration     1          0.593              1.987              7.833
 Vibration     2          0.593              1.985              6.480
 Vibration     3          0.594              1.983              5.580
 Vibration     4          0.595              1.980              5.155
 Vibration     5          0.596              1.976              4.686
 Vibration     6          0.598              1.968              4.126
 Vibration     7          0.603              1.951              3.506
 Vibration     8          0.604              1.949              3.460
 Vibration     9          0.605              1.944              3.334
 Vibration    10          0.607              1.938              3.206
 Vibration    11          0.610              1.928              3.018
 Vibration    12          0.613              1.920              2.890
 Vibration    13          0.620              1.898              2.614
 Vibration    14          0.627              1.874              2.385
 Vibration    15          0.636              1.844              2.160
 Vibration    16          0.645              1.818              2.002
 Vibration    17          0.650              1.800              1.905
 Vibration    18          0.652              1.797              1.886
 Vibration    19          0.662              1.766              1.744
 Vibration    20          0.667              1.750              1.679
 Vibration    21          0.694              1.669              1.402
 Vibration    22          0.707              1.632              1.303
 Vibration    23          0.724              1.585              1.187
 Vibration    24          0.749              1.515              1.043
 Vibration    25          0.761              1.482              0.983
 Vibration    26          0.784              1.424              0.887
 Vibration    27          0.799              1.386              0.830
 Vibration    28          0.815              1.346              0.776
 Vibration    29          0.820              1.334              0.760
 Vibration    30          0.856              1.250              0.658
 Vibration    31          0.898              1.156              0.560
 Vibration    32          0.921              1.107              0.514
 Vibration    33          0.936              1.077              0.487

                           ! Non-Optimized Parameters !
 Normal termination of Gaussian 16 at Sat Dec 12 16:25:47 2020.

 ----------------------------------------------------------------------
 # B3LYP/6-311++G(d,p) empiricaldispersion=gd3bj scf=xqc pop=npa geom=c
 heck
 ----------------------------------------------------------------------

 ---------------------------------------
 CID_64286123_JID_10509_Energie_neutraal
 ---------------------------------------
 Structure from the checkpoint file:  "JID_10509.chk"
 Charge =  0 Multiplicity = 1

 SCF Done:  E(RB3LYP) =  -1369.47142638     A.U. after   16 cycles
 Normal termination of Gaussian 16 at Sat Dec 12 16:34:58 2020.

 ----------------------------------------------------------------------
 # B3LYP/6-311++G(d,p) empiricaldispersion=gd3bj scf=xqc pop=npa geom=c
 heck
 ----------------------------------------------------------------------

 -------------------------------------
 CID_64286123_JID_10509_Energie_kation
 -------------------------------------
 Structure from the checkpoint file:  "JID_10509.chk"
 Charge =  1 Multiplicity = 2

 SCF Done:  E(UB3LYP) =  -1369.16573131     A.U. after   33 cycles
 SCF Done:  E(UB3LYP) =  -1369.16573131     a.u. after    1 cycles
 Normal termination of Gaussian 16 at Sat Dec 12 17:00:39 2020.
 Gaussian 16:  ES64L-G16RevA.03 25-Dec-2016

 ----------------------------------------------------------------------
 # B3LYP/6-311++G(d,p) empiricaldispersion=gd3bj scf=xqc pop=npa geom=c
 heck
 ----------------------------------------------------------------------

 ------------------------------------
 CID_64286123_JID_10509_Energie_anion
 ------------------------------------
 Structure from the checkpoint file:  "JID_10509.chk"
 Charge = -1 Multiplicity = 2

                         Standard orientation:
 ---------------------------------------------------------------------
 Center     Atomic      Atomic             Coordinates (Angstroms)
 Number     Number       Type             X           Y           Z
 ---------------------------------------------------------------------
      1          6           0        5.545518   -0.960763   -0.194360
      2          7           0        5.294588    0.476709   -0.159024
      3          6           0        4.088653    1.080280   -0.467920
      4          8           0        4.044478    2.184248   -0.995798
      5          6           0        2.843915    0.353328   -0.115031
      6          6           0        1.695391    0.299341   -0.881451
      7          6           0        0.757076   -0.478775   -0.160781
      8          6           0        1.342321   -0.864429    1.034245
      9          7           0        2.609705   -0.363564    1.060732
     10          6           0        3.485996   -0.455362    2.224377
     11         16           0       -0.836327   -0.946958   -0.730421
     12          8           0       -1.158112   -0.039899   -1.843362
     13          8           0       -0.938677   -2.397305   -0.926842
     14          7           0       -1.763705   -0.638981    0.640514
     15          6           0       -2.129435    0.748176    0.949019
     16          6           0       -3.119352    1.454634   -0.009354
     17          6           0       -4.188513    0.513743   -0.544326
     18          8           0       -4.773197   -0.146304    0.576631
     19          6           0       -5.878502   -0.954653    0.220314
     20          8           0       -3.704731    2.556339    0.679262
     21          1           0        4.596734   -1.498753   -0.188886
     22          1           0        6.134109   -1.279130    0.673093
     23          1           0        6.085282   -1.244590   -1.105884
     24          1           0        6.067679    1.063079   -0.455699
     25          1           0        1.549575    0.760900   -1.845887
     26          1           0        0.930422   -1.421314    1.862201
     27          1           0        3.914056   -1.459041    2.309387
     28          1           0        4.294361    0.266924    2.121454
     29          1           0        2.914534   -0.231367    3.128272
     30          1           0       -2.569016   -1.263721    0.637503
     31          1           0       -2.583202    0.718988    1.943935
     32          1           0       -1.211546    1.336861    1.030979
     33          1           0       -2.581234    1.874661   -0.861241
     34          1           0       -4.947159    1.102297   -1.081195
     35          1           0       -3.759529   -0.214051   -1.246239
     36          1           0       -6.683308   -0.355582   -0.231655
     37          1           0       -5.587271   -1.740669   -0.492676
     38          1           0       -6.248653   -1.420489    1.136990
     39          1           0       -4.335198    2.167429    1.309211
 ---------------------------------------------------------------------

 SCF Done:  E(UB3LYP) =  -1369.47057131     A.U. after   33 cycles
 SCF Done:  E(UB3LYP) =  -1369.47057131     a.u. after    1 cycles

 The electronic state is 2-A.
 Alpha  occ. eigenvalues --  -88.97607 -19.06807 -19.05174 -19.02594 -19.02440
 Alpha  occ. eigenvalues --  -18.98925 -14.28686 -14.25842 -14.24048 -10.17596
 Alpha  occ. eigenvalues --  -10.14867 -10.14718 -10.14614 -10.13180 -10.12606
 Alpha  occ. eigenvalues --  -10.11882 -10.11465 -10.11129 -10.10254 -10.08350
 Alpha  occ. eigenvalues --   -8.03718  -6.00016  -5.99953  -5.99821  -1.02849
 Alpha  occ. eigenvalues --   -0.98138  -0.95169  -0.94332  -0.91622  -0.90980
 Alpha  occ. eigenvalues --   -0.84466  -0.82492  -0.73643  -0.69730  -0.66977
 Alpha  occ. eigenvalues --   -0.64335  -0.62803  -0.61305  -0.59692  -0.57180
 Alpha  occ. eigenvalues --   -0.53547  -0.52786  -0.48841  -0.47223  -0.45193
 Alpha  occ. eigenvalues --   -0.44489  -0.43134  -0.42483  -0.42041  -0.40479
 Alpha  occ. eigenvalues --   -0.39830  -0.39023  -0.38786  -0.38151  -0.37282
 Alpha  occ. eigenvalues --   -0.36549  -0.36285  -0.35334  -0.34282  -0.33664
 Alpha  occ. eigenvalues --   -0.32453  -0.32001  -0.31894  -0.30849  -0.30534
 Alpha  occ. eigenvalues --   -0.30273  -0.30108  -0.28386  -0.26997  -0.26819
 Alpha  occ. eigenvalues --   -0.26219  -0.24128  -0.23301  -0.21952  -0.21815
 Alpha  occ. eigenvalues --   -0.20419  -0.18478  -0.17798  -0.16801  -0.16063
 Alpha  occ. eigenvalues --   -0.14072   0.03289
 Alpha virt. eigenvalues --    0.04265   0.05765   0.06542   0.06937   0.07143
 Alpha virt. eigenvalues --    0.07826   0.08078   0.08604   0.09092   0.09627
 Alpha virt. eigenvalues --    0.09825   0.10338   0.10478   0.10899   0.11759

  Beta  occ. eigenvalues --  -88.97606 -19.06801 -19.05169 -19.02592 -19.02438
  Beta  occ. eigenvalues --  -18.98814 -14.28564 -14.25839 -14.24032 -10.17494
  Beta  occ. eigenvalues --  -10.14866 -10.14686 -10.14609 -10.13177 -10.12582
  Beta  occ. eigenvalues --  -10.11766 -10.11443 -10.11067 -10.10281 -10.08320
  Beta  occ. eigenvalues --   -8.03716  -6.00014  -5.99952  -5.99819  -1.02844
  Beta  occ. eigenvalues --   -0.98129  -0.95157  -0.94127  -0.91619  -0.90790
  Beta  occ. eigenvalues --   -0.84460  -0.82395  -0.73563  -0.69713  -0.66847
  Beta  occ. eigenvalues --   -0.64273  -0.62746  -0.61181  -0.59646  -0.57119
  Beta  occ. eigenvalues --   -0.53347  -0.52720  -0.48801  -0.47157  -0.45166
  Beta  occ. eigenvalues --   -0.44412  -0.43116  -0.42463  -0.42008  -0.40445
  Beta  occ. eigenvalues --   -0.39715  -0.38814  -0.38693  -0.38101  -0.37191
  Beta  occ. eigenvalues --   -0.36495  -0.36159  -0.35304  -0.34267  -0.33602
  Beta  occ. eigenvalues --   -0.32363  -0.31954  -0.31815  -0.30785  -0.30406
  Beta  occ. eigenvalues --   -0.30235  -0.29971  -0.27960  -0.26975  -0.26803
  Beta  occ. eigenvalues --   -0.26211  -0.24122  -0.23277  -0.21937  -0.21801
  Beta  occ. eigenvalues --   -0.20406  -0.18421  -0.17614  -0.16556  -0.15826
  Beta  occ. eigenvalues --   -0.13611
  Beta virt. eigenvalues --    0.04875   0.06003   0.06389   0.06830   0.07259
  Beta virt. eigenvalues --    0.07598   0.08243   0.08437   0.08921   0.09535
  Beta virt. eigenvalues --    0.09714   0.09951   0.10484   0.10730   0.10954

 Mulliken charges and spin densities:
               1          2
     1  C    0.798291  -1.201873
     2  N   -0.483763   0.222210
     3  C   -0.607105   0.390965
     4  O   -0.359566   0.043338
     5  C   -0.378196  -0.080723
     6  C    0.293409   0.332585
     7  C   -1.507532  -0.253635
     8  C    0.301935  -0.025565
     9  N    0.157055   0.072610
    10  C    0.344991  -0.753834
    11  S    1.323207  -0.298959
    12  O   -0.164772  -0.001081
    13  O   -0.080262   0.005239
    14  N   -0.217410  -0.002728
    15  C   -0.428492   0.004480
    16  C   -0.152876  -0.221973
    17  C   -0.430125   0.097342
    18  O   -0.218308   0.034320
    19  C    0.422386  -0.669053
    20  O   -0.181156   0.003947
    21  H    0.143282   0.032575
    22  H   -0.559803   0.731025
    23  H   -0.207245   0.362816
    24  H    0.127640   0.189532
    25  H    0.235655   0.001611
    26  H    0.010317   0.188406
    27  H   -0.334411   0.559738
    28  H    0.049927   0.133346
    29  H    0.091082   0.064275
    30  H    0.252469   0.050541
    31  H    0.161531   0.067806
    32  H    0.216685  -0.018852
    33  H    0.220227   0.018882
    34  H    0.129138   0.068681
    35  H    0.222200  -0.014890
    36  H   -0.162442   0.296854
    37  H    0.008819   0.129239
    38  H   -0.232708   0.380277
    39  H    0.195925   0.060524
 Sum of Mulliken charges =  -1.00000   1.00000

 Dipole moment (field-independent basis, Debye):
    X=             -5.9820    Y=              1.2450    Z=              1.2821  Tot=              6.2433
 Quadrupole moment (field-independent basis, Debye-Ang):
   XX=           -247.2692   YY=           -177.8496   ZZ=           -154.4950
   XY=              5.0545   XZ=             -3.0262   YZ=              5.9049

 Summary of Natural Population Analysis:

                                       Natural Population
                Natural  -----------------------------------------------
    Atom  No    Charge         Core      Valence    Rydberg      Total
 -----------------------------------------------------------------------
      C    1   -0.18111      0.99964     2.17340    0.00807     3.18111
      N    2   -0.32386      0.99969     2.81383    0.01033     3.82386
      C    3    0.33664      0.99961     1.64144    0.02231     2.66336
      O    4   -0.30450      0.99988     3.29924    0.00539     4.30450
      C    5    0.02954      0.99946     1.95739    0.01360     2.97046
      C    6   -0.10134      0.99946     2.09316    0.00872     3.10134
      C    7   -0.20549      0.99936     2.19048    0.01565     3.20549
      C    8    0.03400      0.99949     1.95449    0.01202     2.96600
      N    9   -0.17568      0.99963     2.66698    0.00907     3.67568
      C   10   -0.17827      0.99963     2.17109    0.00755     3.17827
      S   11    1.10868      4.99914     1.79049    0.10168     6.89132
      O   12   -0.47036      0.99991     3.46492    0.00554     4.47036
      O   13   -0.46275      0.99991     3.45718    0.00566     4.46275
      N   14   -0.43627      0.99976     2.92403    0.01248     3.93627
      C   15   -0.10703      0.99960     2.09349    0.01393     3.10703
      C   16    0.04306      0.99956     1.94440    0.01299     2.95694
      C   17   -0.02981      0.99957     2.01718    0.01307     3.02981
      O   18   -0.31266      0.99989     3.30193    0.01084     4.31266
      C   19   -0.09773      0.99962     2.08861    0.00950     3.09773
      O   20   -0.36829      0.99990     3.36180    0.00659     4.36829
      H   21    0.10324      0.00000     0.39542    0.00135     0.39676
      H   22    0.09700      0.00000     0.40050    0.00250     0.40300
      H   23    0.09391      0.00000     0.40491    0.00118     0.40609
      H   24    0.19028      0.00000     0.30755    0.00217     0.30972
      H   25    0.12026      0.00000     0.37879    0.00095     0.37974
      H   26    0.10702      0.00000     0.39184    0.00114     0.39298
      H   27    0.10551      0.00000     0.39205    0.00244     0.39449
      H   28    0.11112      0.00000     0.38748    0.00140     0.38888
      H   29    0.09770      0.00000     0.40153    0.00076     0.40230
      H   30    0.19958      0.00000     0.29817    0.00225     0.30042
      H   31    0.10272      0.00000     0.39603    0.00125     0.39728
      H   32    0.10812      0.00000     0.39092    0.00095     0.39188
      H   33    0.10338      0.00000     0.39555    0.00107     0.39662
      H   34    0.08773      0.00000     0.41102    0.00125     0.41227
      H   35    0.09353      0.00000     0.40487    0.00160     0.40647
      H   36    0.08022      0.00000     0.41816    0.00162     0.41978
      H   37    0.08076      0.00000     0.41797    0.00126     0.41924
      H   38    0.09299      0.00000     0.40577    0.00125     0.40701
      H   39    0.22814      0.00000     0.26900    0.00286     0.27186
 =======================================================================
   * Total *    0.00000     23.99271    56.67304    0.33425    81.00000

 Normal termination of Gaussian 16 at Sat Dec 12 17:26:33 2020.
