 Gaussian 16, Revision A.03,

 -----------------------------------------------------------
 # opt freq B3LYP/6-31G(d) empiricaldispersion=gd3bj scf=xqc
 -----------------------------------------------------------

 -------------------------------
 CID_131216195_JID_1033_neutraal
 -------------------------------
 Symbolic Z-matrix:
 Charge =  0 Multiplicity = 1

 SCF Done:  E(RB3LYP) =  -497.933532809     A.U. after   15 cycles
 SCF Done:  E(RB3LYP) =  -497.960840550     A.U. after   13 cycles
 SCF Done:  E(RB3LYP) =  -497.959192848     A.U. after   14 cycles
 SCF Done:  E(RB3LYP) =  -497.967442323     A.U. after   13 cycles
 SCF Done:  E(RB3LYP) =  -497.973359608     A.U. after   13 cycles
 SCF Done:  E(RB3LYP) =  -497.974010217     A.U. after   12 cycles
 SCF Done:  E(RB3LYP) =  -497.975198214     A.U. after   12 cycles
 SCF Done:  E(RB3LYP) =  -497.975676744     A.U. after   13 cycles
 SCF Done:  E(RB3LYP) =  -497.975984290     A.U. after   12 cycles
 SCF Done:  E(RB3LYP) =  -497.976264188     A.U. after   12 cycles
 SCF Done:  E(RB3LYP) =  -497.978534266     A.U. after   11 cycles
 SCF Done:  E(RB3LYP) =  -497.978536753     A.U. after    9 cycles
 SCF Done:  E(RB3LYP) =  -497.978536990     A.U. after    8 cycles
 SCF Done:  E(RB3LYP) =  -497.978537096     A.U. after    8 cycles
 SCF Done:  E(RB3LYP) =  -497.978537156     A.U. after    8 cycles
 SCF Done:  E(RB3LYP) =  -497.978537180     A.U. after    7 cycles
 Optimization completed.
    -- Stationary point found.
 Normal termination of Gaussian 16 at Tue Dec  8 19:17:08 2020.

 --------------------------------------------------------------------
 #N Geom=AllCheck Guess=TCheck SCRF=Check GenChk RB3LYP/6-31G(d) Freq
 --------------------------------------------------------------------

 Structure from the checkpoint file:  "JID_1033.chk"
 -------------------------------
 CID_131216195_JID_1033_neutraal
 -------------------------------
 Charge =  0 Multiplicity = 1

 SCF Done:  E(RB3LYP) =  -497.978537180     A.U. after    1 cycles

  Exact polarizability: 118.354  -5.221  80.921  -3.256   3.649  85.843
 Approx polarizability: 164.564 -15.242 116.598  -2.819   3.805 129.751

                      1                      2                      3
                      A                      A                      A
 Frequencies --     55.1024                61.7370               112.7586
 Red. masses --      3.5102                 3.9428                 4.8104
 Frc consts  --      0.0063                 0.0089                 0.0360
 IR Inten    --      1.2679                 1.3590                 5.0104

                      4                      5                      6
                      A                      A                      A
 Frequencies --    133.9053               161.1380               173.6626
 Red. masses --      4.3608                 4.3523                 5.2769
 Frc consts  --      0.0461                 0.0666                 0.0938
 IR Inten    --      7.0645                33.4068                 8.2655

                      7                      8                      9
                      A                      A                      A
 Frequencies --    209.3704               226.7885               252.1665
 Red. masses --      2.4369                 1.5639                 1.4892
 Frc consts  --      0.0629                 0.0474                 0.0558
 IR Inten    --     32.2726                 6.1017                 4.6013

                     10                     11                     12
                      A                      A                      A
 Frequencies --    281.4914               304.2218               320.7459
 Red. masses --      1.0678                 2.3268                 2.9554
 Frc consts  --      0.0499                 0.1269                 0.1791
 IR Inten    --      2.6454                25.2867                 6.3037

                     13                     14                     15
                      A                      A                      A
 Frequencies --    349.3507               373.0113               380.8494
 Red. masses --      2.4812                 2.0546                 3.2497
 Frc consts  --      0.1784                 0.1684                 0.2777
 IR Inten    --     36.0696                17.7319                 6.5150

                     16                     17                     18
                      A                      A                      A
 Frequencies --    417.4140               489.2316               542.0944
 Red. masses --      2.2314                 2.2212                 2.7254
 Frc consts  --      0.2291                 0.3132                 0.4719
 IR Inten    --      4.8009                 7.0670                 2.8677

                     19                     20                     21
                      A                      A                      A
 Frequencies --    619.3212               668.7519               743.7468
 Red. masses --      5.4098                 2.3383                 1.3596
 Frc consts  --      1.2226                 0.6161                 0.4431
 IR Inten    --      7.2774                11.3855                 4.6767

                     22                     23                     24
                      A                      A                      A
 Frequencies --    833.1683               846.5262               881.5365
 Red. masses --      2.6551                 3.6267                 5.9270
 Frc consts  --      1.0859                 1.5313                 2.7137
 IR Inten    --      1.6885                 2.8000                26.3476

                     25                     26                     27
                      A                      A                      A
 Frequencies --    922.3760               929.4361               960.8853
 Red. masses --      1.4883                 2.2598                 1.9865
 Frc consts  --      0.7460                 1.1502                 1.0807
 IR Inten    --     24.9323                18.6389                14.5953

                     28                     29                     30
                      A                      A                      A
 Frequencies --    997.9620              1029.0660              1061.9121
 Red. masses --      1.7241                 1.8410                 1.6287
 Frc consts  --      1.0117                 1.1486                 1.0821
 IR Inten    --     17.7660                 4.7176                10.6465

                     31                     32                     33
                      A                      A                      A
 Frequencies --   1088.9963              1089.6835              1114.6278
 Red. masses --      2.0395                 1.7318                 2.6047
 Frc consts  --      1.4251                 1.2115                 1.9066
 IR Inten    --     44.9840                42.8202                52.8097

                     34                     35                     36
                      A                      A                      A
 Frequencies --   1159.3795              1187.0280              1240.1092
 Red. masses --      1.6772                 1.9793                 1.3462
 Frc consts  --      1.3283                 1.6432                 1.2198
 IR Inten    --     10.1119                13.0298                 4.8233

                     37                     38                     39
                      A                      A                      A
 Frequencies --   1262.4730              1324.5444              1332.1088
 Red. masses --      1.6679                 1.4158                 2.2749
 Frc consts  --      1.5663                 1.4635                 2.3784
 IR Inten    --     37.0583                 4.5049                 8.6663

                     40                     41                     42
                      A                      A                      A
 Frequencies --   1366.6491              1381.3724              1390.3391
 Red. masses --      1.3449                 1.1629                 1.2282
 Frc consts  --      1.4800                 1.3075                 1.3988
 IR Inten    --      2.8995                30.2145                 1.3134

                     43                     44                     45
                      A                      A                      A
 Frequencies --   1427.2516              1430.8121              1443.6988
 Red. masses --      1.3029                 1.3128                 1.3236
 Frc consts  --      1.5637                 1.5835                 1.6253
 IR Inten    --     18.9882                 4.1166                 7.8346

                     46                     47                     48
                      A                      A                      A
 Frequencies --   1471.4311              1483.7194              1496.6186
 Red. masses --      1.0777                 1.1954                 1.1716
 Frc consts  --      1.3748                 1.5505                 1.5461
 IR Inten    --     11.7505                 2.8159                 2.9305

                     49                     50                     51
                      A                      A                      A
 Frequencies --   1514.8982              1519.1281              1529.6491
 Red. masses --      1.0481                 1.0556                 1.0784
 Frc consts  --      1.4171                 1.4353                 1.4866
 IR Inten    --      2.2727                13.3124                 7.1468

                     52                     53                     54
                      A                      A                      A
 Frequencies --   1540.9901              1542.9614              1731.5230
 Red. masses --      1.0502                 1.0558                 4.8452
 Frc consts  --      1.4693                 1.4809                 8.5589
 IR Inten    --      5.0341                17.5516                11.6130

                     55                     56                     57
                      A                      A                      A
 Frequencies --   2342.6100              2976.7901              3036.8493
 Red. masses --     12.5490                 1.0569                 1.0579
 Frc consts  --     40.5751                 5.5179                 5.7484
 IR Inten    --      3.6802                53.0856                30.4961

                     58                     59                     60
                      A                      A                      A
 Frequencies --   3046.4040              3055.2927              3070.1785
 Red. masses --      1.0380                 1.0715                 1.0838
 Frc consts  --      5.6760                 5.8931                 6.0189
 IR Inten    --     21.5382                22.3387                17.7128

                     61                     62                     63
                      A                      A                      A
 Frequencies --   3081.4273              3083.8524              3107.4237
 Red. masses --      1.0813                 1.1054                 1.0969
 Frc consts  --      6.0495                 6.1937                 6.2403
 IR Inten    --     48.1449                28.3239                17.3737

                     64                     65                     66
                      A                      A                      A
 Frequencies --   3130.4669              3132.9808              3154.9365
 Red. masses --      1.1022                 1.1029                 1.0605
 Frc consts  --      6.3641                 6.3784                 6.2193
 IR Inten    --     22.7576                22.1723                11.1805

                     67                     68                     69
                      A                      A                      A
 Frequencies --   3172.0710              3230.7158              3768.7213
 Red. masses --      1.0907                 1.1155                 1.0671
 Frc consts  --      6.4661                 6.8597                 8.9295
 IR Inten    --      2.0895                21.2820                50.0473

 - Thermochemistry -
 -------------------
 Temperature   298.150 Kelvin.  Pressure   1.00000 Atm.
 Atom     1 has atomic number  6 and mass  12.00000

 Molecular mass:   154.11061 amu.
 Principal axes and moments of inertia in atomic units:
                           1         2         3
     Eigenvalues --  1086.763352196.705902499.77667
           X            0.99967   0.02431   0.00821
           Y           -0.02470   0.99844   0.05017
           Z           -0.00698  -0.05036   0.99871
 This molecule is an asymmetric top.
 Rotational symmetry number  1.
 Warning -- assumption of classical behavior for rotation
           may cause significant error
 Rotational temperatures (Kelvin)      0.07970     0.03943     0.03465
 Rotational constants (GHZ):           1.66066     0.82157     0.72196
 Zero-point vibrational energy     567032.6 (Joules/Mol)
                                  135.52403 (Kcal/Mol)
 Warning -- explicit consideration of  19 degrees of freedom as
           vibrations may cause significant error
 Vibrational temperatures:     79.28    88.83   162.23   192.66   231.84
          (Kelvin)            249.86   301.24   326.30   362.81   405.00
                              437.71   461.48   502.64   536.68   547.96
                              600.57   703.90   779.95   891.07   962.18
                             1070.09  1198.74  1217.96  1268.33  1327.09
                             1337.25  1382.50  1435.84  1480.60  1527.85
                             1566.82  1567.81  1603.70  1668.09  1707.87
                             1784.24  1816.42  1905.72  1916.61  1966.30
                             1987.49  2000.39  2053.50  2058.62  2077.16
                             2117.06  2134.74  2153.30  2179.60  2185.69
                             2200.82  2217.14  2219.98  2491.28  3370.49
                             4282.94  4369.35  4383.10  4395.88  4417.30
                             4433.49  4436.98  4470.89  4504.04  4507.66
                             4539.25  4563.90  4648.28  5422.35

 Zero-point correction=                           0.215971 (Hartree/Particle)
 Thermal correction to Energy=                    0.228646
 Thermal correction to Enthalpy=                  0.229590
 Thermal correction to Gibbs Free Energy=         0.177663
 Sum of electronic and zero-point Energies=           -497.762566
 Sum of electronic and thermal Energies=              -497.749891
 Sum of electronic and thermal Enthalpies=            -497.748947
 Sum of electronic and thermal Free Energies=         -497.800875

                     E (Thermal)             CV                S
                      KCal/Mol        Cal/Mol-Kelvin    Cal/Mol-Kelvin
 Total                  143.478             46.274            109.291
 Electronic               0.000              0.000              0.000
 Translational            0.889              2.981             41.007
 Rotational               0.889              2.981             30.169
 Vibrational            141.700             40.312             38.116
 Vibration     1          0.596              1.976              4.625
 Vibration     2          0.597              1.973              4.401
 Vibration     3          0.607              1.939              3.221
 Vibration     4          0.613              1.919              2.889
 Vibration     5          0.622              1.890              2.536
 Vibration     6          0.627              1.875              2.395
 Vibration     7          0.642              1.826              2.049
 Vibration     8          0.650              1.800              1.904
 Vibration     9          0.664              1.759              1.715
 Vibration    10          0.681              1.708              1.525
 Vibration    11          0.695              1.666              1.394
 Vibration    12          0.706              1.634              1.306
 Vibration    13          0.727              1.577              1.169
 Vibration    14          0.744              1.528              1.067
 Vibration    15          0.751              1.511              1.036
 Vibration    16          0.780              1.432              0.901
 Vibration    17          0.845              1.274              0.686
 Vibration    18          0.897              1.157              0.561
 Vibration    19          0.979              0.991              0.418

 Optimization completed.
    -- Stationary point found.
 Normal termination of Gaussian 16 at Tue Dec  8 19:22:36 2020.

 ----------------------------------------------------------------------
 # B3LYP/6-311++G(d,p) empiricaldispersion=gd3bj scf=xqc pop=npa geom=c
 heck
 ----------------------------------------------------------------------

 ---------------------------------------
 CID_131216195_JID_1033_Energie_neutraal
 ---------------------------------------
 Structure from the checkpoint file:  "JID_1033.chk"
 Charge =  0 Multiplicity = 1

 SCF Done:  E(RB3LYP) =  -498.130125831     A.U. after   16 cycles
 Normal termination of Gaussian 16 at Tue Dec  8 19:24:44 2020.

 ----------------------------------------------------------------------
 # B3LYP/6-311++G(d,p) empiricaldispersion=gd3bj scf=xqc pop=npa geom=c
 heck
 ----------------------------------------------------------------------

 -------------------------------------
 CID_131216195_JID_1033_Energie_kation
 -------------------------------------
 Structure from the checkpoint file:  "JID_1033.chk"
 Charge =  1 Multiplicity = 2

 SCF Done:  E(UB3LYP) =  -497.820371517     A.U. after   25 cycles
 Normal termination of Gaussian 16 at Tue Dec  8 19:29:08 2020.
 Gaussian 16:  ES64L-G16RevA.03 25-Dec-2016

 ----------------------------------------------------------------------
 # B3LYP/6-311++G(d,p) empiricaldispersion=gd3bj scf=xqc pop=npa geom=c
 heck
 ----------------------------------------------------------------------

 ------------------------------------
 CID_131216195_JID_1033_Energie_anion
 ------------------------------------
 Structure from the checkpoint file:  "JID_1033.chk"
 Charge = -1 Multiplicity = 2

                         Standard orientation:
 ---------------------------------------------------------------------
 Center     Atomic      Atomic             Coordinates (Angstroms)
 Number     Number       Type             X           Y           Z
 ---------------------------------------------------------------------
      1          6           0       -1.938749   -0.572260   -1.485722
      2          6           0       -1.962397    0.059789   -0.119161
      3          6           0       -3.113030    0.346356    0.496808
      4          6           0       -0.647302    0.354106    0.593693
      5          6           0       -0.074117   -0.891074    1.301855
      6          8           0        0.205662   -1.955243    0.393918
      7          7           0        0.300590    1.112353   -0.255586
      8          6           0        1.000172    2.177707    0.452069
      9          6           0        1.182746    0.372625   -1.140958
     10          6           0        2.344436   -0.274351   -0.473892
     11          7           0        3.214405   -0.774141    0.112288
     12          1           0       -2.954727   -0.770149   -1.840070
     13          1           0       -1.382562   -1.515587   -1.470879
     14          1           0       -1.457181    0.093794   -2.212544
     15          1           0       -3.140487    0.815043    1.477901
     16          1           0       -4.074126    0.115691    0.044740
     17          1           0       -0.894360    1.037924    1.412852
     18          1           0        0.827135   -0.605107    1.858008
     19          1           0       -0.824255   -1.233171    2.026334
     20          1           0        1.144068   -2.179296    0.477614
     21          1           0        1.703485    1.816450    1.222935
     22          1           0        1.572433    2.773377   -0.268039
     23          1           0        0.269682    2.837339    0.928929
     24          1           0        0.630012   -0.411237   -1.657523
     25          1           0        1.580071    1.061995   -1.896673
 ---------------------------------------------------------------------

 SCF Done:  E(UB3LYP) =  -498.117393111     A.U. after   32 cycles

 The electronic state is 2-A.
 Alpha  occ. eigenvalues --  -19.02853 -14.21983 -14.21955 -10.13513 -10.12027
 Alpha  occ. eigenvalues --  -10.11751 -10.10793 -10.08654 -10.08108 -10.06057
 Alpha  occ. eigenvalues --  -10.05511  -0.93146  -0.84170  -0.81188  -0.71165
 Alpha  occ. eigenvalues --   -0.65538  -0.62880  -0.58539  -0.56465  -0.50786
 Alpha  occ. eigenvalues --   -0.45290  -0.41861  -0.41438  -0.39909  -0.38112
 Alpha  occ. eigenvalues --   -0.35194  -0.34200  -0.33331  -0.32494  -0.31330
 Alpha  occ. eigenvalues --   -0.30037  -0.28316  -0.28029  -0.27495  -0.27144
 Alpha  occ. eigenvalues --   -0.25535  -0.24199  -0.23495  -0.22903  -0.19451
 Alpha  occ. eigenvalues --   -0.15101  -0.12613   0.04562
 Alpha virt. eigenvalues --    0.07241   0.07568   0.08331   0.09302   0.09593
 Alpha virt. eigenvalues --    0.09967   0.10309   0.10511   0.11816   0.12169
 Alpha virt. eigenvalues --    0.12453   0.12759   0.13205   0.13898   0.14850

  Beta  occ. eigenvalues --  -19.02841 -14.21981 -14.21942 -10.13459 -10.12004
  Beta  occ. eigenvalues --  -10.11752 -10.10780 -10.08601 -10.08099 -10.06031
  Beta  occ. eigenvalues --  -10.05479  -0.93124  -0.84145  -0.81165  -0.71124
  Beta  occ. eigenvalues --   -0.65473  -0.62821  -0.58484  -0.56389  -0.50721
  Beta  occ. eigenvalues --   -0.45238  -0.41811  -0.41373  -0.39854  -0.38072
  Beta  occ. eigenvalues --   -0.35152  -0.34159  -0.33293  -0.32456  -0.31284
  Beta  occ. eigenvalues --   -0.29999  -0.28260  -0.28007  -0.27457  -0.27111
  Beta  occ. eigenvalues --   -0.25501  -0.24170  -0.23469  -0.22870  -0.19426
  Beta  occ. eigenvalues --   -0.15027  -0.12590
  Beta virt. eigenvalues --    0.06999   0.08101   0.08429   0.08793   0.09577
  Beta virt. eigenvalues --    0.10247   0.10495   0.10678   0.10734   0.12127
  Beta virt. eigenvalues --    0.12337   0.13044   0.13257   0.13572   0.14118

 Mulliken charges and spin densities:
               1          2
     1  C    0.379096  -1.041524
     2  C   -2.139696   2.979960
     3  C    0.371113  -1.116912
     4  C    0.733746  -1.161855
     5  C    1.132772  -1.679221
     6  O   -0.340192   0.057432
     7  N    0.081716   0.216464
     8  C    1.224603  -1.530456
     9  C   -0.878916   0.633617
    10  C    1.533856  -1.501504
    11  N   -0.440722   0.121851
    12  H   -0.004632   0.147178
    13  H    0.015334   0.179239
    14  H   -0.427830   0.594292
    15  H   -0.482618   0.612195
    16  H   -0.029421   0.135170
    17  H    0.065431   0.140299
    18  H   -0.039132   0.212220
    19  H   -0.039197   0.197575
    20  H    0.098365   0.153289
    21  H   -0.182043   0.328136
    22  H   -0.121178   0.266083
    23  H   -0.783768   0.942363
    24  H    0.243979  -0.094782
    25  H   -0.970666   1.208893
 Sum of Mulliken charges =  -1.00000   1.00000

 Dipole moment (field-independent basis, Debye):
    X=             -1.0637    Y=             -4.4965    Z=              0.5801  Tot=              4.6568
 Quadrupole moment (field-independent basis, Debye-Ang):
   XX=           -120.7992   YY=           -112.4836   ZZ=           -108.2470
   XY=              1.3180   XZ=              3.5036   YZ=             -0.0152

 Summary of Natural Population Analysis:

                                       Natural Population
                Natural  -----------------------------------------------
    Atom  No    Charge         Core      Valence    Rydberg      Total
 -----------------------------------------------------------------------
      C    1   -0.30646      0.99960     2.30075    0.00611     3.30646
      C    2    0.00594      0.99949     1.98223    0.01233     2.99406
      C    3   -0.19606      0.99948     2.18839    0.00820     3.19606
      C    4   -0.02562      0.99950     2.00980    0.01632     3.02562
      C    5   -0.01935      0.99955     2.00735    0.01245     3.01935
      O    6   -0.37874      0.99989     3.37211    0.00674     4.37874
      N    7   -0.27436      0.99973     2.75804    0.01660     3.77436
      C    8   -0.17763      0.99963     2.16859    0.00941     3.17763
      C    9   -0.14363      0.99950     2.12969    0.01445     3.14363
      C   10    0.15776      0.99965     1.82529    0.01730     2.84224
      N   11   -0.20059      0.99979     2.68889    0.01191     3.70059
      H   12    0.10063      0.00000     0.39847    0.00090     0.39937
      H   13    0.11082      0.00000     0.38775    0.00143     0.38918
      H   14    0.10665      0.00000     0.39156    0.00179     0.39335
      H   15    0.09447      0.00000     0.40415    0.00138     0.40553
      H   16    0.09096      0.00000     0.40812    0.00092     0.40904
      H   17    0.11012      0.00000     0.38682    0.00306     0.38988
      H   18    0.08890      0.00000     0.40988    0.00121     0.41110
      H   19    0.08653      0.00000     0.41214    0.00133     0.41347
      H   20    0.23817      0.00000     0.25865    0.00318     0.26183
      H   21    0.08424      0.00000     0.41390    0.00186     0.41576
      H   22    0.09941      0.00000     0.39842    0.00218     0.40059
      H   23    0.10257      0.00000     0.39528    0.00215     0.39743
      H   24    0.12532      0.00000     0.37246    0.00222     0.37468
      H   25    0.11994      0.00000     0.37696    0.00310     0.38006
 =======================================================================
   * Total *    0.00000     10.99581    30.84567    0.15852    42.00000

 Normal termination of Gaussian 16 at Tue Dec  8 19:34:50 2020.
