 Gaussian 16, Revision A.03,

 ----------------------------------------------------------------------
 # opt=(cartesian,calcfc) freq B3LYP/6-31G(d) empiricaldispersion=gd3bj
  scf=xqc
 ----------------------------------------------------------------------

 -------------------------------
 CID_121742465_JID_9016_neutraal
 -------------------------------
 Symbolic Z-matrix:
 Charge =  0 Multiplicity = 1

 SCF Done:  E(RB3LYP) =  -1167.85562780     A.U. after   15 cycles
 SCF Done:  E(RB3LYP) =  -1167.85672708     A.U. after   11 cycles
 SCF Done:  E(RB3LYP) =  -1167.85744663     A.U. after   11 cycles
 SCF Done:  E(RB3LYP) =  -1167.85749220     A.U. after   11 cycles
 SCF Done:  E(RB3LYP) =  -1167.85747454     A.U. after   12 cycles
 SCF Done:  E(RB3LYP) =  -1167.85756126     A.U. after   11 cycles
 SCF Done:  E(RB3LYP) =  -1167.85758461     A.U. after   11 cycles
 SCF Done:  E(RB3LYP) =  -1167.85758021     A.U. after   11 cycles
 SCF Done:  E(RB3LYP) =  -1167.85763364     A.U. after   10 cycles
 SCF Done:  E(RB3LYP) =  -1167.85764158     A.U. after   10 cycles
 SCF Done:  E(RB3LYP) =  -1167.85779264     A.U. after    8 cycles
 SCF Done:  E(RB3LYP) =  -1167.85779260     A.U. after    7 cycles
 SCF Done:  E(RB3LYP) =  -1167.85779270     A.U. after    7 cycles
 SCF Done:  E(RB3LYP) =  -1167.85779260     A.U. after    8 cycles
 SCF Done:  E(RB3LYP) =  -1167.85779269     A.U. after    5 cycles
 Optimization completed on the basis of negligible forces.
    -- Stationary point found.
 Normal termination of Gaussian 16 at Mon Jan  4 12:15:32 2021.

 --------------------------------------------------------------------
 #N Geom=AllCheck Guess=TCheck SCRF=Check GenChk RB3LYP/6-31G(d) Freq
 --------------------------------------------------------------------

 Structure from the checkpoint file:  "JID_9016.chk"
 -------------------------------
 CID_121742465_JID_9016_neutraal
 -------------------------------
 Charge =  0 Multiplicity = 1

 SCF Done:  E(RB3LYP) =  -1167.85779269     A.U. after    1 cycles

  Exact polarizability: 228.280  -0.490 181.875  -6.062  -4.830 140.444
 Approx polarizability: 308.788 -14.414 281.186 -11.362  -3.967 228.384

                      1                      2                      3
                      A                      A                      A
 Frequencies --     12.7352                27.9602                45.9468
 Red. masses --      4.3902                 4.2097                 5.0195
 Frc consts  --      0.0004                 0.0019                 0.0062
 IR Inten    --      0.0706                 0.1822                 1.5087

                      4                      5                      6
                      A                      A                      A
 Frequencies --     59.4127                87.7649                98.4275
 Red. masses --      3.9537                 3.8120                 2.6445
 Frc consts  --      0.0082                 0.0173                 0.0151
 IR Inten    --      0.9893                 0.6803                 4.0459

                      7                      8                      9
                      A                      A                      A
 Frequencies --    118.8598               130.8608               152.0527
 Red. masses --      3.7928                 3.4107                 3.0512
 Frc consts  --      0.0316                 0.0344                 0.0416
 IR Inten    --      1.5770                 2.4736                 1.6766

                     10                     11                     12
                      A                      A                      A
 Frequencies --    174.5339               208.7148               235.9756
 Red. masses --      3.0040                 3.0175                 1.2287
 Frc consts  --      0.0539                 0.0774                 0.0403
 IR Inten    --      1.1264                 2.5973                 0.1748

                     13                     14                     15
                      A                      A                      A
 Frequencies --    244.7251               257.1797               267.0861
 Red. masses --      1.8623                 2.3873                 4.4274
 Frc consts  --      0.0657                 0.0930                 0.1861
 IR Inten    --      0.9264                 1.7908                 0.8025

                     16                     17                     18
                      A                      A                      A
 Frequencies --    288.3572               295.3998               311.3254
 Red. masses --      2.5838                 1.9091                 3.3617
 Frc consts  --      0.1266                 0.0982                 0.1920
 IR Inten    --      2.2727                 4.9466                 1.0887

                     19                     20                     21
                      A                      A                      A
 Frequencies --    327.6721               368.2082               411.9361
 Red. masses --      4.0509                 3.6291                 3.3453
 Frc consts  --      0.2563                 0.2899                 0.3345
 IR Inten    --      9.7046                 1.0001                 2.2833

                     22                     23                     24
                      A                      A                      A
 Frequencies --    417.7273               460.6753               473.6620
 Red. masses --      3.4827                 3.2804                 2.6773
 Frc consts  --      0.3581                 0.4102                 0.3539
 IR Inten    --      2.2533                 2.8464                 1.5103

                     25                     26                     27
                      A                      A                      A
 Frequencies --    505.6529               550.5179               574.2493
 Red. masses --      3.2084                 2.7838                 3.9940
 Frc consts  --      0.4833                 0.4971                 0.7760
 IR Inten    --     12.7239                 4.3690                 8.6500

                     28                     29                     30
                      A                      A                      A
 Frequencies --    608.5046               619.1784               637.9758
 Red. masses --      4.9221                 4.3388                 6.1344
 Frc consts  --      1.0738                 0.9801                 1.4711
 IR Inten    --      7.5178                 6.8255                 1.0559

                     31                     32                     33
                      A                      A                      A
 Frequencies --    652.4264               674.5639               709.6555
 Red. masses --      3.9006                 3.7643                 3.2896
 Frc consts  --      0.9782                 1.0092                 0.9761
 IR Inten    --     10.2962                 2.1111                 2.8503

                     34                     35                     36
                      A                      A                      A
 Frequencies --    713.6594               747.7659               781.5021
 Red. masses --      1.9246                 2.0354                 2.3666
 Frc consts  --      0.5775                 0.6706                 0.8516
 IR Inten    --     25.3347                 9.4983                 8.7691

                     37                     38                     39
                      A                      A                      A
 Frequencies --    836.9409               852.5699               857.2787
 Red. masses --      2.1080                 2.7867                 1.2775
 Frc consts  --      0.8700                 1.1934                 0.5532
 IR Inten    --     40.1774                 9.6398                 0.7783

                     40                     41                     42
                      A                      A                      A
 Frequencies --    907.9598               921.4781               930.7142
 Red. masses --      1.4814                 1.6381                 2.3527
 Frc consts  --      0.7195                 0.8195                 1.2007
 IR Inten    --     23.6195                25.4968                 6.9012

                     43                     44                     45
                      A                      A                      A
 Frequencies --    948.8349               967.6478               972.5221
 Red. masses --      1.9504                 1.3604                 2.3418
 Frc consts  --      1.0346                 0.7505                 1.3050
 IR Inten    --     23.7874                 0.4007                 7.6946

                     46                     47                     48
                      A                      A                      A
 Frequencies --    993.1691               994.6968              1007.2515
 Red. masses --      1.8839                 1.2500                 1.7813
 Frc consts  --      1.0949                 0.7287                 1.0648
 IR Inten    --     20.8713                 0.2667                 3.2359

                     49                     50                     51
                      A                      A                      A
 Frequencies --   1023.7936              1029.3184              1033.6947
 Red. masses --      5.6026                 1.9380                 2.0063
 Frc consts  --      3.4599                 1.2097                 1.2631
 IR Inten    --      0.7221                10.2522                20.5869

                     52                     53                     54
                      A                      A                      A
 Frequencies --   1049.2155              1065.2100              1082.1535
 Red. masses --      1.9077                 2.2225                 1.8438
 Frc consts  --      1.2374                 1.4858                 1.2722
 IR Inten    --      3.0008                 4.0530                 6.6064

                     55                     56                     57
                      A                      A                      A
 Frequencies --   1102.9180              1108.8912              1132.6220
 Red. masses --      2.2451                 1.5551                 1.5766
 Frc consts  --      1.6090                 1.1267                 1.1916
 IR Inten    --      3.6680                 2.1133                 1.2414

                     58                     59                     60
                      A                      A                      A
 Frequencies --   1152.6670              1170.4254              1193.3282
 Red. masses --      2.2511                 1.4290                 1.8353
 Frc consts  --      1.7622                 1.1534                 1.5398
 IR Inten    --     20.4504                63.8938                15.0757

                     61                     62                     63
                      A                      A                      A
 Frequencies --   1195.0196              1198.2648              1216.3957
 Red. masses --      1.0989                 2.2569                 1.4118
 Frc consts  --      0.9246                 1.9093                 1.2308
 IR Inten    --      0.1478                39.4546                54.6306

                     64                     65                     66
                      A                      A                      A
 Frequencies --   1223.8905              1225.9334              1259.6325
 Red. masses --      1.1772                 2.5081                 1.2980
 Frc consts  --      1.0389                 2.2209                 1.2134
 IR Inten    --      1.0783                 6.0378                15.2816

                     67                     68                     69
                      A                      A                      A
 Frequencies --   1266.1726              1289.6437              1326.5710
 Red. masses --      1.7400                 1.6047                 1.4689
 Frc consts  --      1.6435                 1.5725                 1.5230
 IR Inten    --     51.7522                30.7991                17.4884

                     70                     71                     72
                      A                      A                      A
 Frequencies --   1328.5520              1342.0289              1344.8156
 Red. masses --      1.4854                 1.5317                 1.3350
 Frc consts  --      1.5448                 1.6254                 1.4225
 IR Inten    --      0.1559                14.7639                39.1115

                     73                     74                     75
                      A                      A                      A
 Frequencies --   1354.3822              1374.3496              1394.4204
 Red. masses --      1.5339                 2.1389                 1.4376
 Frc consts  --      1.6578                 2.3803                 1.6469
 IR Inten    --      5.2158                 0.7173                 7.9771

                     76                     77                     78
                      A                      A                      A
 Frequencies --   1396.3300              1413.2230              1417.5655
 Red. masses --      1.3905                 1.3387                 1.3838
 Frc consts  --      1.5974                 1.5753                 1.6384
 IR Inten    --     14.3306                 6.3378                10.1806

                     79                     80                     81
                      A                      A                      A
 Frequencies --   1442.7379              1476.1362              1478.8271
 Red. masses --      1.2268                 2.5275                 1.1068
 Frc consts  --      1.5046                 3.2449                 1.4261
 IR Inten    --      6.2437               209.7855                22.1076

                     82                     83                     84
                      A                      A                      A
 Frequencies --   1483.7118              1495.0697              1499.9477
 Red. masses --      1.1871                 1.1115                 2.1102
 Frc consts  --      1.5397                 1.4638                 2.7972
 IR Inten    --      1.6255                 5.0136                 9.7193

                     85                     86                     87
                      A                      A                      A
 Frequencies --   1515.5439              1519.4788              1520.2122
 Red. masses --      1.1841                 1.0539                 1.0703
 Frc consts  --      1.6024                 1.4336                 1.4574
 IR Inten    --     35.8892                12.6877                 2.8174

                     88                     89                     90
                      A                      A                      A
 Frequencies --   1526.2457              1529.3599              1538.7040
 Red. masses --      1.1183                 1.0507                 1.1073
 Frc consts  --      1.5348                 1.4479                 1.5446
 IR Inten    --      4.3499                 1.8679                35.8709

                     91                     92                     93
                      A                      A                      A
 Frequencies --   1547.0777              1550.6854              1647.0804
 Red. masses --      1.0553                 2.1848                 5.4746
 Frc consts  --      1.4882                 3.0953                 8.7505
 IR Inten    --     19.1608                11.5228                 1.5196

                     94                     95                     96
                      A                      A                      A
 Frequencies --   1668.4097              1728.1970              2951.6281
 Red. masses --      5.4768                 9.6367                 1.0608
 Frc consts  --      8.9822                16.9576                 5.4450
 IR Inten    --      5.1212               251.1973                90.1496

                     97                     98                     99
                      A                      A                      A
 Frequencies --   2968.7553              3043.7108              3059.0620
 Red. masses --      1.0714                 1.0642                 1.0382
 Frc consts  --      5.5637                 5.8086                 5.7240
 IR Inten    --     80.6272                19.7036                18.1520

                    100                    101                    102
                      A                      A                      A
 Frequencies --   3062.6090              3066.7425              3068.1303
 Red. masses --      1.0870                 1.0743                 1.0622
 Frc consts  --      6.0073                 5.9528                 5.8913
 IR Inten    --     26.9841                63.7024                23.5306

                    103                    104                    105
                      A                      A                      A
 Frequencies --   3078.7638              3085.9659              3092.5225
 Red. masses --      1.0665                 1.0849                 1.1002
 Frc consts  --      5.9560                 6.0872                 6.1994
 IR Inten    --     18.8835                 5.8677                13.6949

                    106                    107                    108
                      A                      A                      A
 Frequencies --   3097.8548              3116.3059              3125.6496
 Red. masses --      1.0824                 1.1011                 1.1024
 Frc consts  --      6.1199                 6.3005                 6.3457
 IR Inten    --     17.0134                35.0256                23.8555

                    109                    110                    111
                      A                      A                      A
 Frequencies --   3127.5091              3146.9693              3155.5122
 Red. masses --      1.1014                 1.1031                 1.0958
 Frc consts  --      6.3472                 6.4368                 6.4286
 IR Inten    --     13.4099                19.0610                16.3516

                    112                    113                    114
                      A                      A                      A
 Frequencies --   3181.8451              3190.1160              3199.3846
 Red. masses --      1.0849                 1.0882                 1.0928
 Frc consts  --      6.4713                 6.5247                 6.5904
 IR Inten    --      1.0339                 4.9824                27.7870

                    115                    116                    117
                      A                      A                      A
 Frequencies --   3209.6626              3233.4942              3503.8388
 Red. masses --      1.0971                 1.0915                 1.0732
 Frc consts  --      6.6589                 6.7237                 7.7629
 IR Inten    --     30.6636                 7.8064                17.3517

 - Thermochemistry -
 -------------------
 Temperature   298.150 Kelvin.  Pressure   1.00000 Atm.
 Atom     1 has atomic number  6 and mass  12.00000

 Molecular mass:   278.14529 amu.
 Principal axes and moments of inertia in atomic units:
                           1         2         3
     Eigenvalues --  3383.588148370.82529**********
           X            1.00000  -0.00239  -0.00035
           Y            0.00238   0.99981  -0.01954
           Z            0.00040   0.01954   0.99981
 This molecule is an asymmetric top.
 Rotational symmetry number  1.
 Warning -- assumption of classical behavior for rotation
           may cause significant error
 Rotational temperatures (Kelvin)      0.02560     0.01035     0.00855
 Rotational constants (GHZ):           0.53338     0.21560     0.17825
 Zero-point vibrational energy     933618.4 (Joules/Mol)
                                  223.14014 (Kcal/Mol)
 Warning -- explicit consideration of  29 degrees of freedom as
           vibrations may cause significant error
 Vibrational temperatures:     18.32    40.23    66.11    85.48   126.27
          (Kelvin)            141.62   171.01   188.28   218.77   251.12
                              300.29   339.52   352.10   370.02   384.28
                              414.88   425.01   447.93   471.45   529.77
                              592.68   601.02   662.81   681.49   727.52
                              792.07   826.22   875.50   890.86   917.90
                              938.70   970.55  1021.04  1026.80  1075.87
                             1124.41  1204.17  1226.66  1233.43  1306.35
                             1325.80  1339.09  1365.16  1392.23  1399.24
                             1428.95  1431.15  1449.21  1473.01  1480.96
                             1487.26  1509.59  1532.60  1556.98  1586.85
                             1595.45  1629.59  1658.43  1683.98  1716.93
                             1719.37  1724.04  1750.12  1760.91  1763.84
                             1812.33  1821.74  1855.51  1908.64  1911.49
                             1930.88  1934.89  1948.65  1977.38  2006.26
                             2009.01  2033.31  2039.56  2075.78  2123.83
                             2127.70  2134.73  2151.07  2158.09  2180.53
                             2186.19  2187.25  2195.93  2200.41  2213.85
                             2225.90  2231.09  2369.78  2400.47  2486.49
                             4246.73  4271.38  4379.22  4401.31  4406.41
                             4412.36  4414.36  4429.65  4440.02  4449.45
                             4457.12  4483.67  4497.11  4499.79  4527.79
                             4540.08  4577.97  4589.87  4603.20  4617.99
                             4652.28  5041.24

 Zero-point correction=                           0.355596 (Hartree/Particle)
 Thermal correction to Energy=                    0.374425
 Thermal correction to Enthalpy=                  0.375369
 Thermal correction to Gibbs Free Energy=         0.306674
 Sum of electronic and zero-point Energies=          -1167.502196
 Sum of electronic and thermal Energies=             -1167.483368
 Sum of electronic and thermal Enthalpies=           -1167.482423
 Sum of electronic and thermal Free Energies=        -1167.551119

                     E (Thermal)             CV                S
                      KCal/Mol        Cal/Mol-Kelvin    Cal/Mol-Kelvin
 Total                  234.955             72.045            144.582
 Electronic               0.000              0.000              0.000
 Translational            0.889              2.981             42.767
 Rotational               0.889              2.981             34.016
 Vibrational            233.178             66.083             67.799
 Vibration     1          0.593              1.987              7.531
 Vibration     2          0.593              1.984              5.969
 Vibration     3          0.595              1.979              4.985
 Vibration     4          0.597              1.974              4.477
 Vibration     5          0.601              1.958              3.709
 Vibration     6          0.604              1.950              3.485
 Vibration     7          0.609              1.934              3.119
 Vibration     8          0.612              1.922              2.933
 Vibration     9          0.619              1.900              2.646
 Vibration    10          0.627              1.874              2.386
 Vibration    11          0.642              1.827              2.055
 Vibration    12          0.655              1.786              1.833
 Vibration    13          0.660              1.772              1.768
 Vibration    14          0.667              1.751              1.681
 Vibration    15          0.672              1.734              1.615
 Vibration    16          0.685              1.695              1.484
 Vibration    17          0.690              1.682              1.443
 Vibration    18          0.700              1.652              1.355
 Vibration    19          0.711              1.620              1.272
 Vibration    20          0.741              1.538              1.087
 Vibration    21          0.776              1.444              0.920
 Vibration    22          0.781              1.432              0.900
 Vibration    23          0.818              1.337              0.764
 Vibration    24          0.830              1.308              0.727
 Vibration    25          0.861              1.237              0.644
 Vibration    26          0.906              1.139              0.543
 Vibration    27          0.931              1.087              0.496
 Vibration    28          0.967              1.014              0.435
 Vibration    29          0.979              0.991              0.418

 Optimization completed on the basis of negligible forces.
    -- Stationary point found.
 Normal termination of Gaussian 16 at Mon Jan  4 12:40:32 2021.

 ----------------------------------------------------------------------
 # B3LYP/6-311++G(d,p) empiricaldispersion=gd3bj scf=xqc pop=npa geom=c
 heck
 ----------------------------------------------------------------------

 ---------------------------------------
 CID_121742465_JID_9016_Energie_neutraal
 ---------------------------------------
 Structure from the checkpoint file:  "JID_9016.chk"
 Charge =  0 Multiplicity = 1

 SCF Done:  E(RB3LYP) =  -1168.09643834     A.U. after   15 cycles
 Normal termination of Gaussian 16 at Mon Jan  4 12:52:27 2021.

 ----------------------------------------------------------------------
 # B3LYP/6-311++G(d,p) empiricaldispersion=gd3bj scf=xqc pop=npa geom=c
 heck
 ----------------------------------------------------------------------

 -------------------------------------
 CID_121742465_JID_9016_Energie_kation
 -------------------------------------
 Structure from the checkpoint file:  "JID_9016.chk"
 Charge =  1 Multiplicity = 2

 SCF Done:  E(UB3LYP) =  -1167.81403065     A.U. after   30 cycles
 Normal termination of Gaussian 16 at Mon Jan  4 13:25:54 2021.
 Gaussian 16:  ES64L-G16RevA.03 25-Dec-2016

 ----------------------------------------------------------------------
 # B3LYP/6-311++G(d,p) empiricaldispersion=gd3bj scf=xqc pop=npa geom=c
 heck
 ----------------------------------------------------------------------

 ------------------------------------
 CID_121742465_JID_9016_Energie_anion
 ------------------------------------
 Structure from the checkpoint file:  "JID_9016.chk"
 Charge = -1 Multiplicity = 2

                         Standard orientation:
 ---------------------------------------------------------------------
 Center     Atomic      Atomic             Coordinates (Angstroms)
 Number     Number       Type             X           Y           Z
 ---------------------------------------------------------------------
      1          6           0        0.390907    2.179096   -1.741860
      2          6           0       -0.884634    1.644195   -1.085553
      3          6           0       -0.741762    0.152754   -0.721518
      4          7           0        0.234046   -0.013248    0.370258
      5          6           0       -0.140058    0.571385    1.653030
      6          6           0       -0.169389    2.097911    1.584033
      7         16           0       -1.393870    2.690708    0.355696
      8          6           0        1.450406   -0.576831    0.086600
      9          8           0        1.706478   -1.024475   -1.033652
     10          6           0        2.484890   -0.635583    1.209645
     11          6           0        3.821715   -1.196981    0.728566
     12          7           0        4.434145   -0.308198   -0.251807
     13          6           0        5.763246   -0.753547   -0.650411
     14          6           0       -2.015490   -0.626002   -0.417714
     15          6           0       -1.877451   -1.995155   -0.145142
     16          6           0       -2.990823   -2.789559    0.113247
     17          6           0       -4.269409   -2.226553    0.101313
     18          6           0       -4.417573   -0.868841   -0.172929
     19          6           0       -3.298199   -0.072627   -0.429368
     20          1           0        0.638772    1.589302   -2.631884
     21          1           0        1.245422    2.118231   -1.061250
     22          1           0        0.261893    3.224347   -2.033895
     23          1           0       -1.717016    1.747159   -1.789063
     24          1           0       -0.265395   -0.328898   -1.579644
     25          1           0        0.559685    0.244951    2.422535
     26          1           0       -1.132287    0.194760    1.924359
     27          1           0        0.826435    2.488396    1.349040
     28          1           0       -0.483641    2.518151    2.544092
     29          1           0        2.648784    0.370958    1.611790
     30          1           0        2.095060   -1.253678    2.029196
     31          1           0        4.494850   -1.268384    1.592497
     32          1           0        3.673492   -2.223444    0.347959
     33          1           0        3.823690   -0.313065   -1.067140
     34          1           0        5.801434   -1.795018   -1.021993
     35          1           0        6.146997   -0.096745   -1.437927
     36          1           0        6.446283   -0.683114    0.205175
     37          1           0       -0.883896   -2.435371   -0.146734
     38          1           0       -2.862435   -3.848851    0.318199
     39          1           0       -5.140871   -2.843076    0.302875
     40          1           0       -5.406430   -0.418891   -0.182382
     41          1           0       -3.436333    0.984901   -0.618512
 ---------------------------------------------------------------------

 SCF Done:  E(UB3LYP) =  -1168.08462908     A.U. after   33 cycles
 SCF Done:  E(UB3LYP) =  -1168.08462908     a.u. after    1 cycles

 The electronic state is 2-A.
 Alpha  occ. eigenvalues --  -88.75114 -19.00256 -14.25776 -14.20414 -10.18736
 Alpha  occ. eigenvalues --  -10.13180 -10.12770 -10.12267 -10.11351 -10.10207
 Alpha  occ. eigenvalues --  -10.10153 -10.09879 -10.08901 -10.08844 -10.08821
 Alpha  occ. eigenvalues --  -10.08787 -10.08763 -10.08599 -10.08269  -7.83762
 Alpha  occ. eigenvalues --   -5.80146  -5.79808  -5.79115  -0.95557  -0.86155
 Alpha  occ. eigenvalues --   -0.81462  -0.77342  -0.73620  -0.70798  -0.68072
 Alpha  occ. eigenvalues --   -0.66777  -0.66112  -0.61160  -0.60633  -0.57625
 Alpha  occ. eigenvalues --   -0.55507  -0.53334  -0.52088  -0.50920  -0.49004
 Alpha  occ. eigenvalues --   -0.45025  -0.42924  -0.41544  -0.40320  -0.39397
 Alpha  occ. eigenvalues --   -0.38877  -0.37842  -0.37411  -0.36967  -0.35657
 Alpha  occ. eigenvalues --   -0.35158  -0.34309  -0.33711  -0.33264  -0.32757
 Alpha  occ. eigenvalues --   -0.32340  -0.31712  -0.30303  -0.29522  -0.29291
 Alpha  occ. eigenvalues --   -0.29051  -0.27587  -0.27359  -0.26716  -0.26458
 Alpha  occ. eigenvalues --   -0.25694  -0.25461  -0.24844  -0.22289  -0.18006
 Alpha  occ. eigenvalues --   -0.17328  -0.17089  -0.15580  -0.14061  -0.13718
 Alpha  occ. eigenvalues --    0.04034
 Alpha virt. eigenvalues --    0.05621   0.06305   0.06376   0.06757   0.07020
 Alpha virt. eigenvalues --    0.07371   0.07629   0.08396   0.08948   0.09247
 Alpha virt. eigenvalues --    0.09329   0.09518   0.10075   0.10233   0.10847

  Beta  occ. eigenvalues --  -88.75113 -19.00246 -14.25778 -14.20405 -10.18734
  Beta  occ. eigenvalues --  -10.13176 -10.12767 -10.12244 -10.11320 -10.10198
  Beta  occ. eigenvalues --  -10.10140 -10.09876 -10.08889 -10.08833 -10.08817
  Beta  occ. eigenvalues --  -10.08755 -10.08748 -10.08589 -10.08259  -7.83760
  Beta  occ. eigenvalues --   -5.80144  -5.79805  -5.79114  -0.95542  -0.86144
  Beta  occ. eigenvalues --   -0.81448  -0.77323  -0.73602  -0.70766  -0.68036
  Beta  occ. eigenvalues --   -0.66750  -0.66088  -0.61135  -0.60609  -0.57592
  Beta  occ. eigenvalues --   -0.55459  -0.53297  -0.52057  -0.50889  -0.48974
  Beta  occ. eigenvalues --   -0.44992  -0.42883  -0.41503  -0.40298  -0.39380
  Beta  occ. eigenvalues --   -0.38848  -0.37810  -0.37388  -0.36943  -0.35632
  Beta  occ. eigenvalues --   -0.35131  -0.34275  -0.33683  -0.33243  -0.32737
  Beta  occ. eigenvalues --   -0.32310  -0.31688  -0.30277  -0.29502  -0.29268
  Beta  occ. eigenvalues --   -0.29025  -0.27558  -0.27333  -0.26678  -0.26429
  Beta  occ. eigenvalues --   -0.25668  -0.25437  -0.24817  -0.22270  -0.17977
  Beta  occ. eigenvalues --   -0.17312  -0.17067  -0.15553  -0.14034  -0.13706
  Beta virt. eigenvalues --    0.05917   0.06198   0.06604   0.06803   0.07036
  Beta virt. eigenvalues --    0.07333   0.07794   0.07946   0.08719   0.09105
  Beta virt. eigenvalues --    0.09289   0.09595   0.09924   0.10134   0.10444

 Mulliken charges and spin densities:
               1          2
     1  C    0.155271  -0.569593
     2  C   -0.522959   0.309776
     3  C   -0.139056   0.019271
     4  N    0.426021  -0.059293
     5  C   -0.175385   0.230797
     6  C    0.164449  -1.148518
     7  S    0.212960  -0.141723
     8  C   -0.347170  -0.194072
     9  O   -0.257494   0.004039
    10  C   -0.107265   0.305472
    11  C    0.882694  -1.813933
    12  N   -0.160409   0.091615
    13  C   -0.084780  -0.257598
    14  C    0.633893  -0.274077
    15  C   -0.525165   0.536772
    16  C    0.098846  -0.465435
    17  C    0.927836  -1.249344
    18  C   -0.645253   0.286561
    19  C   -0.256305   0.138864
    20  H    0.074936   0.060349
    21  H    0.267590  -0.065818
    22  H    0.026738   0.139852
    23  H    0.138582   0.104002
    24  H    0.193180   0.099271
    25  H   -0.788099   1.033401
    26  H    0.071767   0.106867
    27  H    0.014991   0.181613
    28  H   -0.413431   0.660884
    29  H   -0.055090   0.260299
    30  H   -0.302704   0.482976
    31  H   -0.187760   0.366679
    32  H    0.043088   0.085837
    33  H    0.226212   0.002517
    34  H    0.062664   0.049651
    35  H    0.051615   0.065534
    36  H    0.003888   0.126647
    37  H    0.186674  -0.013088
    38  H   -0.401108   0.580786
    39  H   -0.308686   0.465455
    40  H   -0.294694   0.469359
    41  H    0.108919  -0.012655
 Sum of Mulliken charges =  -1.00000   1.00000

 Dipole moment (field-independent basis, Debye):
    X=              0.6966    Y=              2.1572    Z=             -5.6170  Tot=              6.0571
 Quadrupole moment (field-independent basis, Debye-Ang):
   XX=           -206.9517   YY=           -174.7442   ZZ=           -172.6939
   XY=             -9.5388   XZ=             -5.1300   YZ=             -3.9839

 Summary of Natural Population Analysis:

                                       Natural Population
                Natural  -----------------------------------------------
    Atom  No    Charge         Core      Valence    Rydberg      Total
 -----------------------------------------------------------------------
      C    1   -0.28757      0.99963     2.28211    0.00583     3.28757
      C    2   -0.16546      0.99955     2.15470    0.01122     3.16546
      C    3   -0.02188      0.99950     2.00749    0.01489     3.02188
      N    4   -0.26215      0.99963     2.74703    0.01549     3.76215
      C    5   -0.09384      0.99958     2.08109    0.01317     3.09384
      C    6   -0.25297      0.99958     2.24259    0.01079     3.25297
      S    7    0.08786      4.99962     2.89625    0.01627     7.91214
      C    8    0.35579      0.99962     1.62193    0.02266     2.64421
      O    9   -0.33938      0.99988     3.33427    0.00523     4.33938
      C   10   -0.23838      0.99958     2.22920    0.00960     3.23838
      C   11   -0.08406      0.99963     2.07174    0.01269     3.08406
      N   12   -0.34379      0.99974     2.83352    0.01052     3.84379
      C   13   -0.17658      0.99967     2.17028    0.00662     3.17658
      C   14   -0.02139      0.99948     2.01060    0.01130     3.02139
      C   15   -0.09399      0.99951     2.08534    0.00914     3.09399
      C   16   -0.09814      0.99956     2.08831    0.01027     3.09814
      C   17   -0.10200      0.99956     2.09268    0.00976     3.10200
      C   18   -0.09840      0.99956     2.08846    0.01038     3.09840
      C   19   -0.10118      0.99950     2.09259    0.00908     3.10118
      H   20    0.10204      0.00000     0.39692    0.00104     0.39796
      H   21    0.10304      0.00000     0.39588    0.00108     0.39696
      H   22    0.10264      0.00000     0.39634    0.00103     0.39736
      H   23    0.10819      0.00000     0.39076    0.00105     0.39181
      H   24    0.12847      0.00000     0.36943    0.00210     0.37153
      H   25    0.11262      0.00000     0.38444    0.00294     0.38738
      H   26    0.10558      0.00000     0.39265    0.00178     0.39442
      H   27    0.10071      0.00000     0.39735    0.00194     0.39929
      H   28    0.11406      0.00000     0.38428    0.00166     0.38594
      H   29    0.11257      0.00000     0.38498    0.00245     0.38743
      H   30    0.11482      0.00000     0.38338    0.00180     0.38518
      H   31    0.09353      0.00000     0.40507    0.00140     0.40647
      H   32    0.08436      0.00000     0.41433    0.00131     0.41564
      H   33    0.18234      0.00000     0.31430    0.00337     0.31766
      H   34    0.07640      0.00000     0.42199    0.00162     0.42360
      H   35    0.09186      0.00000     0.40733    0.00080     0.40814
      H   36    0.08902      0.00000     0.40968    0.00130     0.41098
      H   37    0.10624      0.00000     0.39223    0.00153     0.39376
      H   38    0.10245      0.00000     0.39656    0.00100     0.39755
      H   39    0.10182      0.00000     0.39696    0.00121     0.39818
      H   40    0.10060      0.00000     0.39845    0.00095     0.39940
      H   41    0.10416      0.00000     0.39397    0.00187     0.39584
 =======================================================================
   * Total *   -0.00000     22.99239    51.75747    0.25014    75.00000

 Normal termination of Gaussian 16 at Mon Jan  4 14:03:43 2021.
