 Gaussian 16, Revision A.03,

 -----------------------------------------------------------
 # opt freq B3LYP/6-31G(d) empiricaldispersion=gd3bj scf=xqc
 -----------------------------------------------------------

 -------------------------------
 CID_130436639_JID_1629_neutraal
 -------------------------------
 Symbolic Z-matrix:
 Charge =  0 Multiplicity = 1

 SCF Done:  E(RB3LYP) =  -510.376502554     A.U. after   16 cycles
 SCF Done:  E(RB3LYP) =  -510.383919369     A.U. after   14 cycles
 SCF Done:  E(RB3LYP) =  -510.384980124     A.U. after   14 cycles
 SCF Done:  E(RB3LYP) =  -510.385443035     A.U. after   12 cycles
 SCF Done:  E(RB3LYP) =  -510.385570193     A.U. after   11 cycles
 SCF Done:  E(RB3LYP) =  -510.385906911     A.U. after   13 cycles
 SCF Done:  E(RB3LYP) =  -510.386216942     A.U. after   13 cycles
 SCF Done:  E(RB3LYP) =  -510.386670409     A.U. after   12 cycles
 SCF Done:  E(RB3LYP) =  -510.387154781     A.U. after   13 cycles
 SCF Done:  E(RB3LYP) =  -510.387176718     A.U. after   11 cycles
 SCF Done:  E(RB3LYP) =  -510.387194378     A.U. after   11 cycles
 SCF Done:  E(RB3LYP) =  -510.387196652     A.U. after    9 cycles
 SCF Done:  E(RB3LYP) =  -510.387196932     A.U. after    8 cycles
 Optimization completed.
    -- Stationary point found.
 Normal termination of Gaussian 16 at Tue Dec  8 20:39:46 2020.

 --------------------------------------------------------------------
 #N Geom=AllCheck Guess=TCheck SCRF=Check GenChk RB3LYP/6-31G(d) Freq
 --------------------------------------------------------------------

 Structure from the checkpoint file:  "JID_1629.chk"
 -------------------------------
 CID_130436639_JID_1629_neutraal
 -------------------------------
 Charge =  0 Multiplicity = 1

 SCF Done:  E(RB3LYP) =  -510.387196932     A.U. after    1 cycles

  Exact polarizability: 122.418   0.642 106.775   0.000   0.001  45.744
 Approx polarizability: 218.934  -9.894 191.904   0.006   0.007  70.423

                      1                      2                      3
                      A                      A                      A
 Frequencies --    105.8006               116.8556               147.4997
 Red. masses --      1.2274                 1.9650                 1.2104
 Frc consts  --      0.0081                 0.0158                 0.0155
 IR Inten    --      1.2445                 0.0908                 0.2007

                      4                      5                      6
                      A                      A                      A
 Frequencies --    181.5708               245.5733               255.6988
 Red. masses --      3.6960                 6.5896                 2.8869
 Frc consts  --      0.0718                 0.2341                 0.1112
 IR Inten    --      0.1422                 9.2231                 1.8189

                      7                      8                      9
                      A                      A                      A
 Frequencies --    300.7043               367.5546               466.9390
 Red. masses --      3.1885                 4.7861                 6.0251
 Frc consts  --      0.1699                 0.3810                 0.7740
 IR Inten    --      0.3492                 0.5007                 3.6736

                     10                     11                     12
                      A                      A                      A
 Frequencies --    496.6177               564.2208               593.2826
 Red. masses --      5.6216                 3.2306                 4.6965
 Frc consts  --      0.8169                 0.6059                 0.9740
 IR Inten    --      0.3716                 0.1355                 4.1624

                     13                     14                     15
                      A                      A                      A
 Frequencies --    624.8334               636.1235               636.6367
 Red. masses --      4.9057                 5.2787                11.4619
 Frc consts  --      1.1284                 1.2585                 2.7371
 IR Inten    --      5.6161                 0.3681                 2.0137

                     16                     17                     18
                      A                      A                      A
 Frequencies --    796.7537               832.7726               864.6756
 Red. masses --      5.3777                 4.9869                 1.4034
 Frc consts  --      2.0114                 2.0377                 0.6182
 IR Inten    --      0.1294                 3.3638                13.2344

                     19                     20                     21
                      A                      A                      A
 Frequencies --    887.4354               937.2472               945.0097
 Red. masses --     12.8470                 7.1029                 3.9847
 Frc consts  --      5.9611                 3.6761                 2.0966
 IR Inten    --     23.9876                20.3603                 5.9902

                     22                     23                     24
                      A                      A                      A
 Frequencies --   1007.3451              1049.0518              1061.9341
 Red. masses --      2.2388                 9.3520                 1.6250
 Frc consts  --      1.3385                 6.0639                 1.0797
 IR Inten    --      6.1385                40.4593                 1.3814

                     25                     26                     27
                      A                      A                      A
 Frequencies --   1063.2360              1081.2046              1151.8463
 Red. masses --      1.5501                 1.5799                 2.5772
 Frc consts  --      1.0324                 1.0882                 2.0146
 IR Inten    --      5.3554                 2.0217                 6.5942

                     28                     29                     30
                      A                      A                      A
 Frequencies --   1216.2762              1327.3100              1380.1575
 Red. masses --      2.8866                 2.6292                 3.9936
 Frc consts  --      2.5159                 2.7291                 4.4821
 IR Inten    --      9.6702                10.0006                12.0697

                     31                     32                     33
                      A                      A                      A
 Frequencies --   1432.6068              1442.2903              1455.7376
 Red. masses --      1.5110                 1.3691                 5.0965
 Frc consts  --      1.8271                 1.6780                 6.3634
 IR Inten    --     10.5577                 5.0296                 1.6335

                     34                     35                     36
                      A                      A                      A
 Frequencies --   1481.6934              1501.0387              1503.2742
 Red. masses --      1.7114                 1.0452                 1.0440
 Frc consts  --      2.2137                 1.3875                 1.3901
 IR Inten    --      4.6805                 9.7142                 5.4247

                     37                     38                     39
                      A                      A                      A
 Frequencies --   1509.0124              1522.9642              1578.7041
 Red. masses --      1.1793                 2.0952                 6.7814
 Frc consts  --      1.5822                 2.8632                 9.9579
 IR Inten    --     16.8914                17.5808                18.6595

                     40                     41                     42
                      A                      A                      A
 Frequencies --   1595.6330              1674.0922              3056.3346
 Red. masses --      6.6629                 7.8803                 1.0372
 Frc consts  --      9.9950                13.0122                 5.7082
 IR Inten    --     32.2340                98.8864                14.7146

                     43                     44                     45
                      A                      A                      A
 Frequencies --   3056.6310              3109.6465              3113.7194
 Red. masses --      1.0373                 1.0998                 1.1005
 Frc consts  --      5.7099                 6.2661                 6.2864
 IR Inten    --      3.9644                 7.0338                10.6939

                     46                     47                     48
                      A                      A                      A
 Frequencies --   3145.5208              3170.7696              3235.7096
 Red. masses --      1.1030                 1.1015                 1.0927
 Frc consts  --      6.4300                 6.5250                 6.7405
 IR Inten    --     15.0615                 6.3880                 3.3385

 - Thermochemistry -
 -------------------
 Temperature   298.150 Kelvin.  Pressure   1.00000 Atm.
 Atom     1 has atomic number  6 and mass  12.00000

 Molecular mass:   149.05891 amu.
 Principal axes and moments of inertia in atomic units:
                           1         2         3
     Eigenvalues --   971.086371699.505652648.29409
           X            0.99820   0.06001  -0.00001
           Y           -0.06001   0.99820  -0.00001
           Z            0.00001   0.00001   1.00000
 This molecule is an asymmetric top.
 Rotational symmetry number  1.
 Warning -- assumption of classical behavior for rotation
           may cause significant error
 Rotational temperatures (Kelvin)      0.08919     0.05096     0.03271
 Rotational constants (GHZ):           1.85848     1.06192     0.68147
 Zero-point vibrational energy     358446.3 (Joules/Mol)
                                   85.67073 (Kcal/Mol)
 Warning -- explicit consideration of  12 degrees of freedom as
           vibrations may cause significant error
 Vibrational temperatures:    152.22   168.13   212.22   261.24   353.33
          (Kelvin)            367.89   432.65   528.83   671.82   714.52
                              811.79   853.60   899.00   915.24   915.98
                             1146.35  1198.17  1244.08  1276.82  1348.49
                             1359.66  1449.34  1509.35  1527.89  1529.76
                             1555.61  1657.25  1749.95  1909.70  1985.74
                             2061.20  2075.13  2094.48  2131.83  2159.66
                             2162.88  2171.13  2191.21  2271.40  2295.76
                             2408.65  4397.38  4397.81  4474.09  4479.95
                             4525.70  4562.03  4655.46

 Zero-point correction=                           0.136525 (Hartree/Particle)
 Thermal correction to Energy=                    0.145621
 Thermal correction to Enthalpy=                  0.146565
 Thermal correction to Gibbs Free Energy=         0.102192
 Sum of electronic and zero-point Energies=           -510.250672
 Sum of electronic and thermal Energies=              -510.241576
 Sum of electronic and thermal Enthalpies=            -510.240632
 Sum of electronic and thermal Free Energies=         -510.285005

                     E (Thermal)             CV                S
                      KCal/Mol        Cal/Mol-Kelvin    Cal/Mol-Kelvin
 Total                   91.378             34.283             93.391
 Electronic               0.000              0.000              0.000
 Translational            0.889              2.981             40.908
 Rotational               0.889              2.981             29.859
 Vibrational             89.601             28.322             22.624
 Vibration     1          0.605              1.945              3.345
 Vibration     2          0.608              1.935              3.152
 Vibration     3          0.617              1.905              2.704
 Vibration     4          0.630              1.865              2.312
 Vibration     5          0.660              1.770              1.762
 Vibration     6          0.666              1.753              1.691
 Vibration     7          0.693              1.672              1.413
 Vibration     8          0.740              1.539              1.090
 Vibration     9          0.824              1.323              0.746
 Vibration    10          0.852              1.258              0.667
 Vibration    11          0.920              1.109              0.515
 Vibration    12          0.951              1.046              0.461

 Optimization completed.
    -- Stationary point found.
 Normal termination of Gaussian 16 at Tue Dec  8 20:44:24 2020.

 ----------------------------------------------------------------------
 # B3LYP/6-311++G(d,p) empiricaldispersion=gd3bj scf=xqc pop=npa geom=c
 heck
 ----------------------------------------------------------------------

 ---------------------------------------
 CID_130436639_JID_1629_Energie_neutraal
 ---------------------------------------
 Structure from the checkpoint file:  "JID_1629.chk"
 Charge =  0 Multiplicity = 1

 SCF Done:  E(RB3LYP) =  -510.516726024     A.U. after   18 cycles
 Normal termination of Gaussian 16 at Tue Dec  8 20:46:13 2020.

 ----------------------------------------------------------------------
 # B3LYP/6-311++G(d,p) empiricaldispersion=gd3bj scf=xqc pop=npa geom=c
 heck
 ----------------------------------------------------------------------

 -------------------------------------
 CID_130436639_JID_1629_Energie_kation
 -------------------------------------
 Structure from the checkpoint file:  "JID_1629.chk"
 Charge =  1 Multiplicity = 2

 SCF Done:  E(UB3LYP) =  -510.180958266     A.U. after   23 cycles
 Normal termination of Gaussian 16 at Tue Dec  8 20:49:44 2020.
 Gaussian 16:  ES64L-G16RevA.03 25-Dec-2016

 ----------------------------------------------------------------------
 # B3LYP/6-311++G(d,p) empiricaldispersion=gd3bj scf=xqc pop=npa geom=c
 heck
 ----------------------------------------------------------------------

 ------------------------------------
 CID_130436639_JID_1629_Energie_anion
 ------------------------------------
 Structure from the checkpoint file:  "JID_1629.chk"
 Charge = -1 Multiplicity = 2

                         Standard orientation:
 ---------------------------------------------------------------------
 Center     Atomic      Atomic             Coordinates (Angstroms)
 Number     Number       Type             X           Y           Z
 ---------------------------------------------------------------------
      1          6           0       -3.213884   -0.785389    0.000254
      2          6           0       -1.742672   -0.482418   -0.000187
      3          6           0       -0.795514   -1.473731   -0.000128
      4          6           0        0.561657   -1.050161   -0.000081
      5          7           0        1.699790   -1.724117   -0.000329
      6          8           0        2.673009   -0.747494    0.000207
      7          7           0        2.165156    0.517872    0.000375
      8          6           0        0.856242    0.348687   -0.000027
      9          6           0       -0.215755    1.309321   -0.000121
     10          7           0       -1.449309    0.878655    0.000014
     11          6           0        0.067964    2.780814   -0.000125
     12          1           0       -3.405878   -1.861607    0.000527
     13          1           0       -3.691113   -0.339347   -0.879709
     14          1           0       -3.690828   -0.339068    0.880237
     15          1           0       -1.060797   -2.524124   -0.000148
     16          1           0        0.660121    3.059697    0.879517
     17          1           0        0.658745    3.059910   -0.880638
     18          1           0       -0.872011    3.334894    0.000628
 ---------------------------------------------------------------------

 SCF Done:  E(UB3LYP) =  -510.557987236     A.U. after   21 cycles

 The electronic state is 2-A.
 Alpha  occ. eigenvalues --  -19.04489 -14.18403 -14.18234 -14.14148 -10.05600
 Alpha  occ. eigenvalues --  -10.05213 -10.04787 -10.03959 -10.03952 -10.03114
 Alpha  occ. eigenvalues --  -10.01909  -1.00249  -0.78522  -0.73120  -0.69280
 Alpha  occ. eigenvalues --   -0.65027  -0.58594  -0.56953  -0.49713  -0.46269
 Alpha  occ. eigenvalues --   -0.42980  -0.37076  -0.35610  -0.32791  -0.30539
 Alpha  occ. eigenvalues --   -0.29738  -0.29174  -0.28518  -0.27103  -0.25863
 Alpha  occ. eigenvalues --   -0.24058  -0.21568  -0.21279  -0.16629  -0.16146
 Alpha  occ. eigenvalues --   -0.14179  -0.13805  -0.10587  -0.09007   0.02725
 Alpha virt. eigenvalues --    0.08912   0.10025   0.11498   0.12351   0.13258
 Alpha virt. eigenvalues --    0.13776   0.13779   0.15216   0.16100   0.16520
 Alpha virt. eigenvalues --    0.17054   0.18395   0.19429   0.19496   0.20547

  Beta  occ. eigenvalues --  -19.03857 -14.17770 -14.17764 -14.14016 -10.05522
  Beta  occ. eigenvalues --  -10.04888 -10.04832 -10.04063 -10.03964 -10.03142
  Beta  occ. eigenvalues --  -10.01743  -0.99216  -0.78061  -0.72154  -0.68784
  Beta  occ. eigenvalues --   -0.64685  -0.58482  -0.56545  -0.49084  -0.46043
  Beta  occ. eigenvalues --   -0.42645  -0.36774  -0.35252  -0.30927  -0.30273
  Beta  occ. eigenvalues --   -0.29101  -0.28999  -0.27998  -0.26896  -0.25743
  Beta  occ. eigenvalues --   -0.23872  -0.20959  -0.20382  -0.15508  -0.14717
  Beta  occ. eigenvalues --   -0.13503  -0.11919  -0.10380  -0.06767
  Beta virt. eigenvalues --    0.08901   0.09950   0.10006   0.11488   0.12434
  Beta virt. eigenvalues --    0.13244   0.13755   0.14053   0.16477   0.16503
  Beta virt. eigenvalues --    0.17054   0.17223   0.18388   0.19517   0.20128

 Mulliken charges and spin densities:
               1          2
     1  C   -0.503357   0.006579
     2  C   -0.166277   0.012912
     3  C    0.736885   0.131113
     4  C   -1.130429  -0.058204
     5  N   -0.394714   0.218692
     6  O    0.278700   0.140520
     7  N   -0.462699   0.310860
     8  C    0.438117  -0.069382
     9  C   -0.173202   0.238602
    10  N   -0.004259   0.058984
    11  C   -0.541025  -0.015550
    12  H    0.123470  -0.000321
    13  H    0.131117   0.001255
    14  H    0.131133   0.001256
    15  H    0.135294  -0.010242
    16  H    0.137655   0.016328
    17  H    0.137613   0.016368
    18  H    0.125976   0.000227
 Sum of Mulliken charges =  -1.00000   1.00000

 Dipole moment (field-independent basis, Debye):
    X=             -3.8474    Y=              0.7168    Z=              0.0001  Tot=              3.9136
 Quadrupole moment (field-independent basis, Debye-Ang):
   XX=            -94.2458   YY=            -80.1339   ZZ=            -69.2658
   XY=              6.9702   XZ=             -0.0015   YZ=             -0.0018

 Summary of Natural Population Analysis:

                                       Natural Population
                Natural  -----------------------------------------------
    Atom  No    Charge         Core      Valence    Rydberg      Total
 -----------------------------------------------------------------------
      C    1   -0.29161      0.99964     2.28704    0.00493     3.29161
      C    2    0.09954      0.99954     1.88953    0.01139     2.90046
      C    3   -0.11156      0.99945     2.10378    0.00832     3.11156
      C    4    0.02532      0.99953     1.96103    0.01412     2.97468
      N    5   -0.02489      0.99968     2.50948    0.01573     3.52489
      O    6   -0.03326      0.99990     3.02152    0.01184     4.03326
      N    7    0.02329      0.99968     2.46196    0.01507     3.47671
      C    8   -0.00808      0.99949     1.99322    0.01537     3.00808
      C    9    0.18936      0.99955     1.79676    0.01433     2.81064
      N   10   -0.25531      0.99965     2.74113    0.01453     3.75531
      C   11   -0.30193      0.99965     2.29782    0.00446     3.30193
      H   12    0.09111      0.00000     0.40809    0.00080     0.40889
      H   13    0.09855      0.00000     0.40018    0.00127     0.40145
      H   14    0.09856      0.00000     0.40018    0.00127     0.40144
      H   15    0.09448      0.00000     0.40376    0.00175     0.40552
      H   16    0.10317      0.00000     0.39577    0.00105     0.39683
      H   17    0.10317      0.00000     0.39578    0.00105     0.39683
      H   18    0.10009      0.00000     0.39873    0.00119     0.39991
 =======================================================================
   * Total *    0.00000     10.99575    27.86578    0.13847    39.00000

 Normal termination of Gaussian 16 at Tue Dec  8 20:54:01 2020.
