 Gaussian 16, Revision A.03,

 -----------------------------------------------------------
 # opt freq B3LYP/6-31G(d) empiricaldispersion=gd3bj scf=xqc
 -----------------------------------------------------------

 ------------------------------
 CID_83153313_JID_3021_neutraal
 ------------------------------
 Symbolic Z-matrix:
 Charge =  0 Multiplicity = 1

 SCF Done:  E(RB3LYP) =  -555.561760180     A.U. after   14 cycles
 SCF Done:  E(RB3LYP) =  -555.565542677     A.U. after   12 cycles
 SCF Done:  E(RB3LYP) =  -555.566716467     A.U. after   12 cycles
 SCF Done:  E(RB3LYP) =  -555.566972337     A.U. after   12 cycles
 SCF Done:  E(RB3LYP) =  -555.567147750     A.U. after   10 cycles
 SCF Done:  E(RB3LYP) =  -555.567162752     A.U. after   10 cycles
 SCF Done:  E(RB3LYP) =  -555.567177260     A.U. after    9 cycles
 SCF Done:  E(RB3LYP) =  -555.567177768     A.U. after    9 cycles
 SCF Done:  E(RB3LYP) =  -555.567179463     A.U. after    8 cycles
 SCF Done:  E(RB3LYP) =  -555.567179588     A.U. after    7 cycles
 SCF Done:  E(RB3LYP) =  -555.567179636     A.U. after    6 cycles
 Optimization completed.
    -- Stationary point found.
 Normal termination of Gaussian 16 at Wed Dec  9 22:22:09 2020.

 --------------------------------------------------------------------
 #N Geom=AllCheck Guess=TCheck SCRF=Check GenChk RB3LYP/6-31G(d) Freq
 --------------------------------------------------------------------

 Structure from the checkpoint file:  "JID_3021.chk"
 ------------------------------
 CID_83153313_JID_3021_neutraal
 ------------------------------
 Charge =  0 Multiplicity = 1

 SCF Done:  E(RB3LYP) =  -555.567179636     A.U. after    1 cycles

  Exact polarizability: 131.384   2.810 110.052  -0.110  -6.310 103.408
 Approx polarizability: 184.689   2.438 159.065   5.266 -22.864 162.447

                      1                      2                      3
                      A                      A                      A
 Frequencies --     59.2196                61.7999                83.5046
 Red. masses --      3.1028                 3.7469                 3.5816
 Frc consts  --      0.0064                 0.0084                 0.0147
 IR Inten    --      0.2948                 2.0503                 1.3045

                      4                      5                      6
                      A                      A                      A
 Frequencies --     99.5911               118.2556               152.6321
 Red. masses --      2.8388                 3.8913                 2.0109
 Frc consts  --      0.0166                 0.0321                 0.0276
 IR Inten    --      0.8589                 0.8834                 0.8667

                      7                      8                      9
                      A                      A                      A
 Frequencies --    189.9907               228.3668               235.2809
 Red. masses --      2.2404                 2.4858                 1.1760
 Frc consts  --      0.0476                 0.0764                 0.0384
 IR Inten    --      3.8429                 0.8039                 0.2482

                     10                     11                     12
                      A                      A                      A
 Frequencies --    248.5230               257.1794               296.1275
 Red. masses --      1.4117                 3.3506                 2.5098
 Frc consts  --      0.0514                 0.1306                 0.1297
 IR Inten    --      0.2128                 1.1505                 1.7621

                     13                     14                     15
                      A                      A                      A
 Frequencies --    356.6492               420.1348               438.0065
 Red. masses --      2.5998                 2.9712                 2.4432
 Frc consts  --      0.1948                 0.3090                 0.2762
 IR Inten    --      0.0896                 1.6666                 0.6114

                     16                     17                     18
                      A                      A                      A
 Frequencies --    495.5325               532.4593               636.1226
 Red. masses --      3.2408                 3.1216                 3.1007
 Frc consts  --      0.4689                 0.5214                 0.7393
 IR Inten    --      4.3228                 0.6024                 2.9188

                     19                     20                     21
                      A                      A                      A
 Frequencies --    678.8992               714.2238               759.8759
 Red. masses --      4.5985                 2.7453                 4.1632
 Frc consts  --      1.2488                 0.8251                 1.4163
 IR Inten    --      7.1374                 0.7515                 7.1871

                     22                     23                     24
                      A                      A                      A
 Frequencies --    781.7844               808.1675               821.7091
 Red. masses --      1.5300                 1.3849                 1.4137
 Frc consts  --      0.5509                 0.5329                 0.5624
 IR Inten    --      3.1263                 8.3691                10.5863

                     25                     26                     27
                      A                      A                      A
 Frequencies --    830.2083               843.3060               879.2087
 Red. masses --      1.4239                 1.2316                 2.4388
 Frc consts  --      0.5782                 0.5160                 1.1107
 IR Inten    --      4.4177                 8.6861                 2.7384

                     28                     29                     30
                      A                      A                      A
 Frequencies --    916.4643               924.5234               951.9399
 Red. masses --      1.4465                 2.4887                 3.2244
 Frc consts  --      0.7158                 1.2533                 1.7215
 IR Inten    --      0.8318                 4.8786                 3.4338

                     31                     32                     33
                      A                      A                      A
 Frequencies --    981.8013              1020.5997              1051.5191
 Red. masses --      3.9070                 2.0773                 1.8885
 Frc consts  --      2.2189                 1.2748                 1.2303
 IR Inten    --      8.6075                 5.8095                 0.6630

                     34                     35                     36
                      A                      A                      A
 Frequencies --   1058.3167              1069.5362              1092.7268
 Red. masses --      4.7103                 1.4366                 1.4457
 Frc consts  --      3.1083                 0.9682                 1.0171
 IR Inten    --      2.6900                 6.3476                 3.5162

                     37                     38                     39
                      A                      A                      A
 Frequencies --   1101.9910              1112.7225              1119.4201
 Red. masses --      1.5125                 1.8410                 2.2126
 Frc consts  --      1.0822                 1.3430                 1.6336
 IR Inten    --      5.6441                 8.3176                 8.5421

                     40                     41                     42
                      A                      A                      A
 Frequencies --   1128.9656              1148.2579              1167.6698
 Red. masses --      1.9236                 1.1391                 1.4977
 Frc consts  --      1.4445                 0.8849                 1.2031
 IR Inten    --      1.4962                 2.4782                 2.0499

                     43                     44                     45
                      A                      A                      A
 Frequencies --   1210.7715              1217.2141              1226.4125
 Red. masses --      2.3588                 1.3779                 1.7619
 Frc consts  --      2.0373                 1.2028                 1.5614
 IR Inten    --     10.2855                 0.0325                17.3237

                     46                     47                     48
                      A                      A                      A
 Frequencies --   1252.4442              1262.0758              1316.1189
 Red. masses --      1.8579                 1.7807                 1.2273
 Frc consts  --      1.7171                 1.6712                 1.2525
 IR Inten    --      6.1212                 3.9460                 0.7747

                     49                     50                     51
                      A                      A                      A
 Frequencies --   1337.4942              1358.7767              1392.8237
 Red. masses --      1.4031                 1.9689                 2.0663
 Frc consts  --      1.4788                 2.1418                 2.3618
 IR Inten    --      2.8904                10.7654                 8.6221

                     52                     53                     54
                      A                      A                      A
 Frequencies --   1401.3695              1406.8366              1419.9713
 Red. masses --      1.4807                 1.7054                 1.5998
 Frc consts  --      1.7132                 1.9886                 1.9005
 IR Inten    --     21.0631                 2.6703                11.3536

                     55                     56                     57
                      A                      A                      A
 Frequencies --   1436.3537              1448.4313              1463.4510
 Red. masses --      1.2399                 1.2664                 2.5993
 Frc consts  --      1.5072                 1.5654                 3.2800
 IR Inten    --      3.5465                10.0597                 5.5047

                     58                     59                     60
                      A                      A                      A
 Frequencies --   1491.6105              1514.2020              1517.0259
 Red. masses --      1.0905                 1.2388                 1.1027
 Frc consts  --      1.4295                 1.6735                 1.4952
 IR Inten    --      3.6870                15.0191                 0.1687

                     61                     62                     63
                      A                      A                      A
 Frequencies --   1520.8536              1527.1630              1528.7133
 Red. masses --      1.0734                 1.1359                 1.1251
 Frc consts  --      1.4628                 1.5609                 1.5491
 IR Inten    --      2.0943                 1.1282                 0.0337

                     64                     65                     66
                      A                      A                      A
 Frequencies --   1536.1608              1538.6621              1547.7708
 Red. masses --      1.1381                 1.1909                 2.8216
 Frc consts  --      1.5824                 1.6611                 3.9825
 IR Inten    --      5.5347                13.5986                53.8371

                     67                     68                     69
                      A                      A                      A
 Frequencies --   1556.0645              3034.9008              3050.6071
 Red. masses --      3.8834                 1.0822                 1.0390
 Frc consts  --      5.5401                 5.8730                 5.6969
 IR Inten    --     12.5886                27.5504                16.5994

                     70                     71                     72
                      A                      A                      A
 Frequencies --   3054.2263              3058.3943              3073.6851
 Red. masses --      1.0638                 1.0365                 1.0612
 Frc consts  --      5.8469                 5.7123                 5.9072
 IR Inten    --     21.6502                30.2812                28.9715

                     73                     74                     75
                      A                      A                      A
 Frequencies --   3096.5835              3115.3553              3122.8913
 Red. masses --      1.0972                 1.1037                 1.1031
 Frc consts  --      6.1989                 6.3111                 6.3384
 IR Inten    --      5.0864                12.7100                15.9534

                     76                     77                     78
                      A                      A                      A
 Frequencies --   3123.3014              3131.1130              3142.7477
 Red. masses --      1.1026                 1.1025                 1.0830
 Frc consts  --      6.3372                 6.3681                 6.3022
 IR Inten    --     61.6904                34.3396                20.8653

                     79                     80                     81
                      A                      A                      A
 Frequencies --   3149.5645              3153.2621              3154.0695
 Red. masses --      1.0526                 1.0647                 1.0987
 Frc consts  --      6.1518                 6.2374                 6.4396
 IR Inten    --     15.4235                19.0127                14.5973

                     82                     83                     84
                      A                      A                      A
 Frequencies --   3226.9648              3241.0548              3274.6261
 Red. masses --      1.1180                 1.1167                 1.0979
 Frc consts  --      6.8592                 6.9114                 6.9363
 IR Inten    --      7.9290                12.7082                 1.1120

 - Thermochemistry -
 -------------------
 Temperature   298.150 Kelvin.  Pressure   1.00000 Atm.
 Atom     1 has atomic number  6 and mass  12.00000

 Molecular mass:   179.14225 amu.
 Principal axes and moments of inertia in atomic units:
                           1         2         3
     Eigenvalues --  1797.739212579.731833153.37160
           X            0.99942  -0.03241  -0.01037
           Y            0.03293   0.99793   0.05529
           Z            0.00856  -0.05560   0.99842
 This molecule is an asymmetric top.
 Rotational symmetry number  1.
 Warning -- assumption of classical behavior for rotation
           may cause significant error
 Rotational temperatures (Kelvin)      0.04818     0.03357     0.02747
 Rotational constants (GHZ):           1.00389     0.69958     0.57232
 Zero-point vibrational energy     696856.6 (Joules/Mol)
                                  166.55273 (Kcal/Mol)
 Warning -- explicit consideration of  17 degrees of freedom as
           vibrations may cause significant error
 Vibrational temperatures:     85.20    88.92   120.14   143.29   170.14
          (Kelvin)            219.60   273.35   328.57   338.52   357.57
                              370.02   426.06   513.14   604.48   630.19
                              712.96   766.09   915.24   976.78  1027.61
                             1093.29  1124.81  1162.77  1182.26  1194.48
                             1213.33  1264.99  1318.59  1330.18  1369.63
                             1412.59  1468.42  1512.90  1522.68  1538.82
                             1572.19  1585.52  1600.96  1610.60  1624.33
                             1652.09  1680.02  1742.03  1751.30  1764.53
                             1801.99  1815.85  1893.60  1924.36  1954.98
                             2003.96  2016.26  2024.12  2043.02  2066.59
                             2083.97  2105.58  2146.09  2178.60  2182.66
                             2188.17  2197.25  2199.48  2210.19  2213.79
                             2226.90  2238.83  4366.55  4389.14  4394.35
                             4400.35  4422.35  4455.29  4482.30  4493.14
                             4493.73  4504.97  4521.71  4531.52  4536.84
                             4538.00  4642.88  4663.15  4711.46

 Zero-point correction=                           0.265419 (Hartree/Particle)
 Thermal correction to Energy=                    0.278603
 Thermal correction to Enthalpy=                  0.279547
 Thermal correction to Gibbs Free Energy=         0.225673
 Sum of electronic and zero-point Energies=           -555.301761
 Sum of electronic and thermal Energies=              -555.288576
 Sum of electronic and thermal Enthalpies=            -555.287632
 Sum of electronic and thermal Free Energies=         -555.341507

                     E (Thermal)             CV                S
                      KCal/Mol        Cal/Mol-Kelvin    Cal/Mol-Kelvin
 Total                  174.826             49.677            113.389
 Electronic               0.000              0.000              0.000
 Translational            0.889              2.981             41.456
 Rotational               0.889              2.981             31.059
 Vibrational            173.049             43.716             40.874
 Vibration     1          0.597              1.974              4.483
 Vibration     2          0.597              1.973              4.399
 Vibration     3          0.600              1.961              3.807
 Vibration     4          0.604              1.949              3.462
 Vibration     5          0.608              1.934              3.129
 Vibration     6          0.619              1.900              2.639
 Vibration     7          0.633              1.854              2.228
 Vibration     8          0.651              1.798              1.892
 Vibration     9          0.655              1.787              1.838
 Vibration    10          0.662              1.765              1.741
 Vibration    11          0.667              1.751              1.681
 Vibration    12          0.690              1.681              1.439
 Vibration    13          0.732              1.562              1.137
 Vibration    14          0.783              1.426              0.892
 Vibration    15          0.798              1.387              0.833
 Vibration    16          0.851              1.260              0.669
 Vibration    17          0.887              1.178              0.582

 Optimization completed.
    -- Stationary point found.
 Normal termination of Gaussian 16 at Wed Dec  9 22:30:34 2020.

 ----------------------------------------------------------------------
 # B3LYP/6-311++G(d,p) empiricaldispersion=gd3bj scf=xqc pop=npa geom=c
 heck
 ----------------------------------------------------------------------

 --------------------------------------
 CID_83153313_JID_3021_Energie_neutraal
 --------------------------------------
 Structure from the checkpoint file:  "JID_3021.chk"
 Charge =  0 Multiplicity = 1

 SCF Done:  E(RB3LYP) =  -555.715050917     A.U. after   14 cycles
 Normal termination of Gaussian 16 at Wed Dec  9 22:33:36 2020.

 ----------------------------------------------------------------------
 # B3LYP/6-311++G(d,p) empiricaldispersion=gd3bj scf=xqc pop=npa geom=c
 heck
 ----------------------------------------------------------------------

 ------------------------------------
 CID_83153313_JID_3021_Energie_kation
 ------------------------------------
 Structure from the checkpoint file:  "JID_3021.chk"
 Charge =  1 Multiplicity = 2

 SCF Done:  E(UB3LYP) =  -555.384634513     A.U. after   33 cycles
 SCF Done:  E(UB3LYP) =  -555.384634513     a.u. after    1 cycles
 Normal termination of Gaussian 16 at Wed Dec  9 22:43:06 2020.
 Gaussian 16:  ES64L-G16RevA.03 25-Dec-2016

 ----------------------------------------------------------------------
 # B3LYP/6-311++G(d,p) empiricaldispersion=gd3bj scf=xqc pop=npa geom=c
 heck
 ----------------------------------------------------------------------

 -----------------------------------
 CID_83153313_JID_3021_Energie_anion
 -----------------------------------
 Structure from the checkpoint file:  "JID_3021.chk"
 Charge = -1 Multiplicity = 2

                         Standard orientation:
 ---------------------------------------------------------------------
 Center     Atomic      Atomic             Coordinates (Angstroms)
 Number     Number       Type             X           Y           Z
 ---------------------------------------------------------------------
      1          6           0        2.803753   -1.469550   -0.565348
      2          6           0        2.083786   -1.372644    0.780208
      3          6           0        1.858118    0.071587    1.241264
      4          7           0        1.023333    0.844641    0.325932
      5          6           0        1.452336    1.748641   -0.611870
      6          7           0        0.444700    2.237331   -1.290589
      7          7           0       -0.700378    1.641650   -0.791624
      8          6           0       -0.345036    0.810493    0.167309
      9          6           0       -1.279617   -0.057942    0.958618
     10          6           0       -2.459792    0.769834    1.495551
     11          6           0       -1.791677   -1.259063    0.156695
     12          6           0       -2.374944   -1.086669   -1.221380
     13          6           0       -1.071003   -1.824933   -1.043384
     14          1           0        2.230173   -0.981008   -1.359846
     15          1           0        2.950265   -2.514973   -0.854700
     16          1           0        3.790309   -0.991755   -0.522866
     17          1           0        1.116981   -1.885219    0.725057
     18          1           0        2.668514   -1.879656    1.558424
     19          1           0        1.393750    0.092862    2.231931
     20          1           0        2.813933    0.599415    1.321953
     21          1           0        2.493651    2.008567   -0.741416
     22          1           0       -0.718938   -0.453984    1.815719
     23          1           0       -3.004802    1.223787    0.664443
     24          1           0       -3.147363    0.129071    2.058455
     25          1           0       -2.112765    1.572026    2.155153
     26          1           0       -2.292073   -1.988574    0.791720
     27          1           0       -3.265445   -1.654491   -1.475298
     28          1           0       -2.317382   -0.094898   -1.660182
     29          1           0       -0.174029   -1.321053   -1.390953
     30          1           0       -1.053907   -2.903995   -1.169605
 ---------------------------------------------------------------------

 SCF Done:  E(UB3LYP) =  -555.706510007     A.U. after   28 cycles

 The electronic state is 2-A.
 Alpha  occ. eigenvalues --  -14.28044 -14.22226 -14.21851 -10.13424 -10.12969
 Alpha  occ. eigenvalues --  -10.11969 -10.09827 -10.08636 -10.07567 -10.07506
 Alpha  occ. eigenvalues --  -10.07131 -10.06694 -10.06554  -0.96115  -0.82717
 Alpha  occ. eigenvalues --   -0.77327  -0.72326  -0.69208  -0.66475  -0.61100
 Alpha  occ. eigenvalues --   -0.56311  -0.52545  -0.52027  -0.50421  -0.49942
 Alpha  occ. eigenvalues --   -0.44933  -0.42070  -0.40763  -0.38834  -0.37535
 Alpha  occ. eigenvalues --   -0.36601  -0.35495  -0.33700  -0.32871  -0.31620
 Alpha  occ. eigenvalues --   -0.30826  -0.29057  -0.27284  -0.26947  -0.26653
 Alpha  occ. eigenvalues --   -0.25871  -0.25452  -0.24911  -0.21154  -0.20043
 Alpha  occ. eigenvalues --   -0.19123  -0.18802  -0.16146  -0.15907   0.04117
 Alpha virt. eigenvalues --    0.06387   0.07121   0.07837   0.08752   0.09154
 Alpha virt. eigenvalues --    0.09348   0.10411   0.10885   0.11109   0.11727
 Alpha virt. eigenvalues --    0.12019   0.12395   0.12684   0.12865   0.13516

  Beta  occ. eigenvalues --  -14.28046 -14.22222 -14.21850 -10.13417 -10.12953
  Beta  occ. eigenvalues --  -10.11921 -10.09812 -10.08625 -10.07558 -10.07476
  Beta  occ. eigenvalues --  -10.07127 -10.06679 -10.06528  -0.96105  -0.82700
  Beta  occ. eigenvalues --   -0.77304  -0.72306  -0.69156  -0.66450  -0.61033
  Beta  occ. eigenvalues --   -0.56278  -0.52516  -0.51964  -0.50395  -0.49903
  Beta  occ. eigenvalues --   -0.44883  -0.42003  -0.40726  -0.38801  -0.37493
  Beta  occ. eigenvalues --   -0.36560  -0.35461  -0.33668  -0.32831  -0.31572
  Beta  occ. eigenvalues --   -0.30789  -0.29029  -0.27254  -0.26927  -0.26604
  Beta  occ. eigenvalues --   -0.25827  -0.25407  -0.24869  -0.21144  -0.20027
  Beta  occ. eigenvalues --   -0.19104  -0.18776  -0.16134  -0.15878
  Beta virt. eigenvalues --    0.06625   0.07359   0.07764   0.08574   0.09176
  Beta virt. eigenvalues --    0.09564   0.09939   0.10909   0.11364   0.11456
  Beta virt. eigenvalues --    0.11972   0.12249   0.12721   0.13049   0.13130

 Mulliken charges and spin densities:
               1          2
     1  C    0.609177  -1.165277
     2  C   -0.340731   0.266846
     3  C    1.328695  -1.768342
     4  N   -0.022550   0.144893
     5  C    0.087551  -0.011822
     6  N   -0.103227  -0.050856
     7  N   -0.037998   0.076170
     8  C   -0.892337  -0.335735
     9  C    0.969077   0.093586
    10  C    0.128279  -0.845606
    11  C   -0.569399   0.293186
    12  C   -0.323789  -0.293248
    13  C    0.737529  -0.861968
    14  H   -0.003371   0.161054
    15  H   -0.201398   0.346685
    16  H   -0.002233   0.154676
    17  H   -0.104187   0.268931
    18  H   -1.013047   1.206396
    19  H   -0.399946   0.584029
    20  H   -0.656908   0.847359
    21  H   -0.218920   0.402882
    22  H   -0.089943   0.277284
    23  H    0.210976  -0.050364
    24  H   -0.175075   0.333034
    25  H   -0.045983   0.192880
    26  H   -0.199362   0.429046
    27  H    0.082671   0.059119
    28  H    0.140870   0.050764
    29  H    0.385805  -0.267415
    30  H   -0.280228   0.461809
 Sum of Mulliken charges =  -1.00000   1.00000

 Dipole moment (field-independent basis, Debye):
    X=             -4.0730    Y=              1.1805    Z=             -3.6984  Tot=              5.6268
 Quadrupole moment (field-independent basis, Debye-Ang):
   XX=           -136.8420   YY=           -129.2707   ZZ=           -127.2028
   XY=              5.2248   XZ=            -10.0859   YZ=             10.1721

 Summary of Natural Population Analysis:

                                       Natural Population
                Natural  -----------------------------------------------
    Atom  No    Charge         Core      Valence    Rydberg      Total
 -----------------------------------------------------------------------
      C    1   -0.28727      0.99966     2.28188    0.00572     3.28727
      C    2   -0.19747      0.99963     2.18893    0.00891     3.19747
      C    3   -0.08349      0.99960     2.07111    0.01278     3.08349
      N    4   -0.21577      0.99960     2.70329    0.01288     3.71577
      C    5    0.09682      0.99962     1.88708    0.01647     2.90318
      N    6   -0.16401      0.99973     2.65170    0.01259     3.66401
      N    7   -0.17465      0.99967     2.66377    0.01120     3.67465
      C    8    0.19740      0.99958     1.78396    0.01905     2.80260
      C    9   -0.13691      0.99955     2.12503    0.01233     3.13691
      C   10   -0.27576      0.99965     2.27022    0.00590     3.27576
      C   11   -0.10798      0.99958     2.09620    0.01219     3.10798
      C   12   -0.20438      0.99961     2.19628    0.00849     3.20438
      C   13   -0.20103      0.99961     2.19269    0.00873     3.20103
      H   14    0.09578      0.00000     0.40286    0.00136     0.40422
      H   15    0.10222      0.00000     0.39687    0.00091     0.39778
      H   16    0.09846      0.00000     0.40037    0.00117     0.40154
      H   17    0.10057      0.00000     0.39740    0.00203     0.39943
      H   18    0.10560      0.00000     0.39019    0.00421     0.39440
      H   19    0.10834      0.00000     0.38838    0.00328     0.39166
      H   20    0.10472      0.00000     0.39213    0.00316     0.39528
      H   21    0.09938      0.00000     0.39920    0.00143     0.40062
      H   22    0.10946      0.00000     0.38783    0.00272     0.39054
      H   23    0.10509      0.00000     0.39385    0.00106     0.39491
      H   24    0.09804      0.00000     0.40112    0.00084     0.40196
      H   25    0.10063      0.00000     0.39860    0.00076     0.39937
      H   26    0.10533      0.00000     0.39341    0.00126     0.39467
      H   27    0.09871      0.00000     0.40060    0.00069     0.40129
      H   28    0.11496      0.00000     0.38387    0.00117     0.38504
      H   29    0.10446      0.00000     0.39433    0.00121     0.39554
      H   30    0.10273      0.00000     0.39635    0.00091     0.39727
 =======================================================================
   * Total *   -0.00000     12.99509    35.82949    0.17542    49.00000

 Normal termination of Gaussian 16 at Wed Dec  9 22:51:11 2020.
