 Gaussian 16, Revision A.03,

 -----------------------------------------------------------
 # opt freq B3LYP/6-31G(d) empiricaldispersion=gd3bj scf=xqc
 -----------------------------------------------------------

 ------------------------------
 CID_46941539_JID_2385_neutraal
 ------------------------------
 Symbolic Z-matrix:
 Charge =  0 Multiplicity = 1

 SCF Done:  E(RB3LYP) =  -568.454511088     A.U. after   15 cycles
 SCF Done:  E(RB3LYP) =  -568.458289978     A.U. after   13 cycles
 SCF Done:  E(RB3LYP) =  -568.458627708     A.U. after   12 cycles
 SCF Done:  E(RB3LYP) =  -568.458624448     A.U. after   12 cycles
 SCF Done:  E(RB3LYP) =  -568.458680840     A.U. after   12 cycles
 SCF Done:  E(RB3LYP) =  -568.458750306     A.U. after   11 cycles
 SCF Done:  E(RB3LYP) =  -568.458757163     A.U. after   10 cycles
 SCF Done:  E(RB3LYP) =  -568.458759420     A.U. after    9 cycles
 SCF Done:  E(RB3LYP) =  -568.458759669     A.U. after    8 cycles
 Optimization completed.
    -- Stationary point found.
 Normal termination of Gaussian 16 at Wed Dec  9 17:15:51 2020.

 --------------------------------------------------------------------
 #N Geom=AllCheck Guess=TCheck SCRF=Check GenChk RB3LYP/6-31G(d) Freq
 --------------------------------------------------------------------

 Structure from the checkpoint file:  "JID_2385.chk"
 ------------------------------
 CID_46941539_JID_2385_neutraal
 ------------------------------
 Charge =  0 Multiplicity = 1

 SCF Done:  E(RB3LYP) =  -568.458759669     A.U. after    1 cycles

  Exact polarizability: 173.143   6.668 103.971  -0.073  -0.016  35.666
 Approx polarizability: 306.341  28.393 181.237   1.944   0.601  56.115

                      1                      2                      3
                      A                      A                      A
 Frequencies --     90.0178               113.6107               233.3837
 Red. masses --      8.6986                 6.5077                 6.1075
 Frc consts  --      0.0415                 0.0495                 0.1960
 IR Inten    --      0.3502                 0.5826                 1.6962

                      4                      5                      6
                      A                      A                      A
 Frequencies --    237.0452               260.8014               305.2815
 Red. masses --      5.2549                 5.9080                13.1162
 Frc consts  --      0.1740                 0.2368                 0.7202
 IR Inten    --      1.9912                 2.6582                 2.2180

                      7                      8                      9
                      A                      A                      A
 Frequencies --    377.9621               389.2091               418.2009
 Red. masses --      1.7559                 1.5874                 1.3951
 Frc consts  --      0.1478                 0.1417                 0.1438
 IR Inten    --     17.2736                 4.7565                45.0205

                     10                     11                     12
                      A                      A                      A
 Frequencies --    433.4119               448.4033               467.7359
 Red. masses --      2.0302                 3.6695                 2.0357
 Frc consts  --      0.2247                 0.4347                 0.2624
 IR Inten    --    183.5327                87.2417               196.6991

                     13                     14                     15
                      A                      A                      A
 Frequencies --    512.9767               550.0328               624.1328
 Red. masses --      3.0518                 6.4579                 5.7675
 Frc consts  --      0.4732                 1.1511                 1.3237
 IR Inten    --    110.9498                 4.7921                 2.3919

                     16                     17                     18
                      A                      A                      A
 Frequencies --    649.7695               673.5087               721.0853
 Red. masses --      4.0343                 6.6829                 3.3374
 Frc consts  --      1.0035                 1.7861                 1.0224
 IR Inten    --      2.5506                 8.9867                 0.1020

                     19                     20                     21
                      A                      A                      A
 Frequencies --    743.1653               794.1797               801.0047
 Red. masses --      6.6389                 1.9835                 5.6645
 Frc consts  --      2.1603                 0.7371                 2.1413
 IR Inten    --      1.5566                 9.3451                 3.3030

                     22                     23                     24
                      A                      A                      A
 Frequencies --    824.7993               829.0546               949.1553
 Red. masses --      3.2335                 1.7714                 6.7397
 Frc consts  --      1.2960                 0.7174                 3.5774
 IR Inten    --      4.1904                48.6310                16.3711

                     25                     26                     27
                      A                      A                      A
 Frequencies --    960.9698               975.2254              1091.9353
 Red. masses --      1.3020                 2.4951                 1.5208
 Frc consts  --      0.7084                 1.3981                 1.0683
 IR Inten    --      0.1689                 2.5924                18.1767

                     28                     29                     30
                      A                      A                      A
 Frequencies --   1148.1846              1171.9494              1229.4629
 Red. masses --      1.5176                 3.3675                 2.0577
 Frc consts  --      1.1787                 2.7251                 1.8326
 IR Inten    --     66.0298                81.0679                18.5208

                     31                     32                     33
                      A                      A                      A
 Frequencies --   1238.0026              1325.5961              1361.5981
 Red. masses --      2.1685                 2.0781                 2.3304
 Frc consts  --      1.9582                 2.1515                 2.5455
 IR Inten    --      5.7209                13.5544               174.1546

                     34                     35                     36
                      A                      A                      A
 Frequencies --   1378.1646              1417.7240              1521.4432
 Red. masses --      3.4586                 3.3257                 3.7165
 Frc consts  --      3.8704                 3.9384                 5.0687
 IR Inten    --      8.3625                50.3866                77.4369

                     37                     38                     39
                      A                      A                      A
 Frequencies --   1562.3180              1640.3521              1686.5459
 Red. masses --      3.3581                 6.7658                 2.6631
 Frc consts  --      4.8292                10.7261                 4.4631
 IR Inten    --     28.3802                49.4648               326.0098

                     40                     41                     42
                      A                      A                      A
 Frequencies --   1695.2241              1819.3039              1863.1517
 Red. masses --      1.6396                12.9495                11.4688
 Frc consts  --      2.7762                25.2531                23.4566
 IR Inten    --    627.2231               353.7850               262.1612

                     43                     44                     45
                      A                      A                      A
 Frequencies --   3190.9853              3191.7455              3214.9776
 Red. masses --      1.0900                 1.0895                 1.0940
 Frc consts  --      6.5395                 6.5391                 6.6621
 IR Inten    --     11.0077                11.6656                 7.3546

                     46                     47                     48
                      A                      A                      A
 Frequencies --   3583.1082              3636.1149              3688.2418
 Red. masses --      1.0469                 1.0791                 1.1011
 Frc consts  --      7.9192                 8.4058                 8.8249
 IR Inten    --     62.5951                38.4745                19.8849

 - Thermochemistry -
 -------------------
 Temperature   298.150 Kelvin.  Pressure   1.00000 Atm.
 Atom     1 has atomic number  6 and mass  12.00000

 Molecular mass:   162.04293 amu.
 Principal axes and moments of inertia in atomic units:
                           1         2         3
     Eigenvalues --   777.973202797.719523574.72091
           X            1.00000  -0.00087  -0.00235
           Y            0.00087   1.00000  -0.00141
           Z            0.00235   0.00140   1.00000
 This molecule is an asymmetric top.
 Rotational symmetry number  1.
 Warning -- assumption of classical behavior for rotation
           may cause significant error
 Rotational temperatures (Kelvin)      0.11133     0.03096     0.02423
 Rotational constants (GHZ):           2.31980     0.64508     0.50486
 Zero-point vibrational energy     347157.8 (Joules/Mol)
                                   82.97271 (Kcal/Mol)
 Warning -- explicit consideration of  14 degrees of freedom as
           vibrations may cause significant error
 Vibrational temperatures:    129.52   163.46   335.79   341.06   375.24
          (Kelvin)            439.23   543.80   559.99   601.70   623.58
                              645.15   672.97   738.06   791.37   897.99
                              934.87   969.03  1037.48  1069.25  1142.65
                             1152.47  1186.70  1192.82  1365.62  1382.62
                             1403.13  1571.05  1651.98  1686.17  1768.92
                             1781.21  1907.24  1959.04  1982.87  2039.79
                             2189.02  2247.83  2360.10  2426.56  2439.05
                             2617.57  2680.66  4591.12  4592.21  4625.64
                             5155.29  5231.56  5306.56

 Zero-point correction=                           0.132225 (Hartree/Particle)
 Thermal correction to Energy=                    0.141742
 Thermal correction to Enthalpy=                  0.142686
 Thermal correction to Gibbs Free Energy=         0.097631
 Sum of electronic and zero-point Energies=           -568.326534
 Sum of electronic and thermal Energies=              -568.317018
 Sum of electronic and thermal Enthalpies=            -568.316073
 Sum of electronic and thermal Free Energies=         -568.361129

                     E (Thermal)             CV                S
                      KCal/Mol        Cal/Mol-Kelvin    Cal/Mol-Kelvin
 Total                   88.945             37.724             94.827
 Electronic               0.000              0.000              0.000
 Translational            0.889              2.981             41.157
 Rotational               0.889              2.981             30.432
 Vibrational             87.167             31.763             23.238
 Vibration     1          0.602              1.956              3.660
 Vibration     2          0.607              1.938              3.206
 Vibration     3          0.654              1.790              1.853
 Vibration     4          0.656              1.784              1.825
 Vibration     5          0.669              1.744              1.656
 Vibration     6          0.696              1.664              1.388
 Vibration     7          0.748              1.517              1.047
 Vibration     8          0.757              1.493              1.003
 Vibration     9          0.781              1.431              0.898
 Vibration    10          0.794              1.397              0.848
 Vibration    11          0.807              1.364              0.801
 Vibration    12          0.825              1.322              0.744
 Vibration    13          0.868              1.221              0.626
 Vibration    14          0.905              1.140              0.544

 Optimization completed.
    -- Stationary point found.
 Normal termination of Gaussian 16 at Wed Dec  9 17:19:50 2020.

 ----------------------------------------------------------------------
 # B3LYP/6-311++G(d,p) empiricaldispersion=gd3bj scf=xqc pop=npa geom=c
 heck
 ----------------------------------------------------------------------

 --------------------------------------
 CID_46941539_JID_2385_Energie_neutraal
 --------------------------------------
 Structure from the checkpoint file:  "JID_2385.chk"
 Charge =  0 Multiplicity = 1

 SCF Done:  E(RB3LYP) =  -568.625921477     A.U. after   15 cycles
 Normal termination of Gaussian 16 at Wed Dec  9 17:21:51 2020.

 ----------------------------------------------------------------------
 # B3LYP/6-311++G(d,p) empiricaldispersion=gd3bj scf=xqc pop=npa geom=c
 heck
 ----------------------------------------------------------------------

 ------------------------------------
 CID_46941539_JID_2385_Energie_kation
 ------------------------------------
 Structure from the checkpoint file:  "JID_2385.chk"
 Charge =  1 Multiplicity = 2

 SCF Done:  E(UB3LYP) =  -568.323843129     A.U. after   28 cycles
 Normal termination of Gaussian 16 at Wed Dec  9 17:26:06 2020.
 Gaussian 16:  ES64L-G16RevA.03 25-Dec-2016

 ----------------------------------------------------------------------
 # B3LYP/6-311++G(d,p) empiricaldispersion=gd3bj scf=xqc pop=npa geom=c
 heck
 ----------------------------------------------------------------------

 -----------------------------------
 CID_46941539_JID_2385_Energie_anion
 -----------------------------------
 Structure from the checkpoint file:  "JID_2385.chk"
 Charge = -1 Multiplicity = 2

                         Standard orientation:
 ---------------------------------------------------------------------
 Center     Atomic      Atomic             Coordinates (Angstroms)
 Number     Number       Type             X           Y           Z
 ---------------------------------------------------------------------
      1          6           0       -2.104370    1.200872   -0.003978
      2          6           0       -0.783218    1.622523   -0.002992
      3          6           0        0.242215    0.677108   -0.002333
      4          6           0       -0.076645   -0.699474   -0.004072
      5          6           0       -1.383238   -1.146431   -0.004247
      6          6           0       -2.415537   -0.179616   -0.005354
      7          7           0       -3.730808   -0.586738   -0.053661
      8          7           0        1.097159   -1.460159   -0.000576
      9          6           0        2.235499   -0.661183    0.001516
     10          8           0        3.383966   -1.038870    0.002182
     11          6           0        1.693218    0.813597    0.002718
     12          8           0        2.403394    1.799196    0.007329
     13          1           0       -2.914561    1.924392   -0.008559
     14          1           0       -0.535750    2.679803   -0.000052
     15          1           0       -1.623841   -2.205878   -0.010176
     16          1           0       -3.939269   -1.534091    0.228789
     17          1           0       -4.434707    0.086602    0.214473
     18          1           0        1.137267   -2.469531   -0.008456
 ---------------------------------------------------------------------

 SCF Done:  E(UB3LYP) =  -568.659433160     A.U. after   26 cycles

 The electronic state is 2-A.
 Alpha  occ. eigenvalues --  -18.93242 -18.91044 -14.20857 -14.20104 -10.09615
 Alpha  occ. eigenvalues --  -10.08026 -10.07355 -10.05140 -10.03891 -10.03251
 Alpha  occ. eigenvalues --  -10.03192 -10.00916  -0.88737  -0.84600  -0.81212
 Alpha  occ. eigenvalues --   -0.80325  -0.69447  -0.61681  -0.59991  -0.53503
 Alpha  occ. eigenvalues --   -0.48803  -0.45066  -0.41727  -0.40646  -0.38692
 Alpha  occ. eigenvalues --   -0.34350  -0.33162  -0.30338  -0.29889  -0.29737
 Alpha  occ. eigenvalues --   -0.27245  -0.25814  -0.25534  -0.24413  -0.21557
 Alpha  occ. eigenvalues --   -0.20918  -0.20056  -0.15616  -0.12779  -0.10118
 Alpha  occ. eigenvalues --   -0.07148  -0.06049   0.03122
 Alpha virt. eigenvalues --    0.06769   0.08941   0.09992   0.11571   0.12071
 Alpha virt. eigenvalues --    0.13228   0.14765   0.14990   0.15619   0.17322
 Alpha virt. eigenvalues --    0.17461   0.18139   0.18704   0.19226   0.19540

  Beta  occ. eigenvalues --  -18.92910 -18.90327 -14.20788 -14.20127 -10.09457
  Beta  occ. eigenvalues --  -10.07725 -10.07182 -10.04872 -10.03992 -10.03320
  Beta  occ. eigenvalues --  -10.03025 -10.00945  -0.88179  -0.83377  -0.80950
  Beta  occ. eigenvalues --   -0.80071  -0.69277  -0.61432  -0.59744  -0.52796
  Beta  occ. eigenvalues --   -0.48633  -0.44814  -0.41581  -0.40358  -0.38353
  Beta  occ. eigenvalues --   -0.34066  -0.32933  -0.30234  -0.29734  -0.28691
  Beta  occ. eigenvalues --   -0.26837  -0.25318  -0.24691  -0.23950  -0.21334
  Beta  occ. eigenvalues --   -0.19197  -0.18031  -0.14416  -0.12335  -0.09619
  Beta  occ. eigenvalues --   -0.06204  -0.05456
  Beta virt. eigenvalues --    0.06749   0.08900   0.09854   0.10049   0.11586
  Beta virt. eigenvalues --    0.12791   0.13211   0.14954   0.15513   0.15743
  Beta virt. eigenvalues --    0.17364   0.17963   0.18339   0.18847   0.19273

 Mulliken charges and spin densities:
               1          2
     1  C    0.497736  -0.093350
     2  C   -0.809054   0.198228
     3  C    2.379254   0.004846
     4  C   -1.079192   0.076660
     5  C   -0.644155  -0.081385
     6  C   -0.788237   0.191543
     7  N   -0.322595   0.027556
     8  N   -0.174848  -0.018897
     9  C    0.213651   0.145225
    10  O   -0.449199   0.119647
    11  C   -0.376235   0.158721
    12  O   -0.452837   0.261860
    13  H    0.102611   0.004236
    14  H    0.129436  -0.012460
    15  H    0.100516   0.004505
    16  H    0.207683   0.007419
    17  H    0.213149   0.007854
    18  H    0.252317  -0.002208
 Sum of Mulliken charges =  -1.00000   1.00000

 Dipole moment (field-independent basis, Debye):
    X=             -9.8339    Y=             -3.7310    Z=              0.7112  Tot=             10.5419
 Quadrupole moment (field-independent basis, Debye-Ang):
   XX=           -110.3551   YY=            -77.5394   ZZ=            -76.5146
   XY=             -3.2316   XZ=             -3.5652   YZ=             -0.6618

 Summary of Natural Population Analysis:

                                       Natural Population
                Natural  -----------------------------------------------
    Atom  No    Charge         Core      Valence    Rydberg      Total
 -----------------------------------------------------------------------
      C    1   -0.18002      0.99955     2.17151    0.00896     3.18002
      C    2   -0.02659      0.99955     2.01819    0.00886     3.02659
      C    3   -0.10799      0.99944     2.09940    0.00914     3.10799
      C    4    0.14463      0.99948     1.84578    0.01012     2.85537
      C    5   -0.18829      0.99949     2.18061    0.00819     3.18829
      C    6    0.14497      0.99954     1.84544    0.01005     2.85503
      N    7   -0.39173      0.99971     2.88331    0.00872     3.89173
      N    8   -0.32202      0.99965     2.81260    0.00978     3.82202
      C    9    0.33402      0.99969     1.63998    0.02631     2.66598
      O   10   -0.27735      0.99987     3.27028    0.00720     4.27735
      C   11    0.25400      0.99957     1.72310    0.02332     2.74600
      O   12   -0.20612      0.99987     3.19925    0.00700     4.20612
      H   13    0.08817      0.00000     0.41020    0.00163     0.41183
      H   14    0.09697      0.00000     0.40097    0.00206     0.40303
      H   15    0.08994      0.00000     0.40821    0.00184     0.41006
      H   16    0.18047      0.00000     0.31820    0.00134     0.31953
      H   17    0.18115      0.00000     0.31752    0.00133     0.31885
      H   18    0.18581      0.00000     0.31102    0.00318     0.31419
 =======================================================================
   * Total *   -0.00000     11.99540    29.85557    0.14903    42.00000

 Normal termination of Gaussian 16 at Wed Dec  9 17:30:14 2020.
