 Gaussian 16, Revision A.03,

 -----------------------------------------------------------
 # opt freq B3LYP/6-31G(d) empiricaldispersion=gd3bj scf=xqc
 -----------------------------------------------------------

 ------------------------------
 CID_89261199_JID_3858_neutraal
 ------------------------------
 Symbolic Z-matrix:
 Charge =  0 Multiplicity = 1

 SCF Done:  E(RB3LYP) =  -569.220749951     A.U. after   15 cycles
 SCF Done:  E(RB3LYP) =  -569.225708167     A.U. after   12 cycles
 SCF Done:  E(RB3LYP) =  -569.226810879     A.U. after   12 cycles
 SCF Done:  E(RB3LYP) =  -569.227074320     A.U. after   11 cycles
 SCF Done:  E(RB3LYP) =  -569.227523823     A.U. after   12 cycles
 SCF Done:  E(RB3LYP) =  -569.227719668     A.U. after   11 cycles
 SCF Done:  E(RB3LYP) =  -569.227807586     A.U. after   11 cycles
 SCF Done:  E(RB3LYP) =  -569.227829883     A.U. after   11 cycles
 SCF Done:  E(RB3LYP) =  -569.227861955     A.U. after   10 cycles
 SCF Done:  E(RB3LYP) =  -569.227846585     A.U. after   10 cycles
 SCF Done:  E(RB3LYP) =  -569.227869145     A.U. after   10 cycles
 SCF Done:  E(RB3LYP) =  -569.227870762     A.U. after    8 cycles
 SCF Done:  E(RB3LYP) =  -569.227871838     A.U. after    8 cycles
 SCF Done:  E(RB3LYP) =  -569.227871974     A.U. after    8 cycles
 SCF Done:  E(RB3LYP) =  -569.227871979     A.U. after    6 cycles
 Optimization completed.
    -- Stationary point found.

 1\1\GINC-NODE305\FOpt\RB3LYP\6-31G(d)\C9H12N4\VSC10255\13-Dec-2020\0\\
 # opt freq B3LYP/6-31G(d) empiricaldispersion=gd3bj scf=xqc\\CID_89261
 199_JID_3858_neutraal\\0,1\C,1.1869900958,-0.1249184071,-0.3371936785\
 C,0.4338869212,-1.3927648376,-0.7372095013\C,0.8581865919,-2.632314832
 2,0.0257474573\N,1.7512104805,-2.4760319448,0.999937924\C,2.0958983052
 ,-3.5954576856,1.6597895369\C,1.5290151825,-4.8451239549,1.3217243778\
 N,2.0828100719,-5.7524009761,2.1718553192\N,2.9681523987,-5.1720994629
 ,3.0324330548\C,2.9864038844,-3.8807501625,2.738109383\N,0.6315263474,

 Normal termination of Gaussian 16 at Sun Dec 13 15:58:22 2020.

 --------------------------------------------------------------------
 #N Geom=AllCheck Guess=TCheck SCRF=Check GenChk RB3LYP/6-31G(d) Freq
 --------------------------------------------------------------------

 Structure from the checkpoint file:  "JID_3858.chk"
 ------------------------------
 CID_89261199_JID_3858_neutraal
 ------------------------------
 Charge =  0 Multiplicity = 1

 SCF Done:  E(RB3LYP) =  -569.227871979     A.U. after    1 cycles

  Exact polarizability: 167.288  -4.059 120.963  -5.331   4.457  66.341
 Approx polarizability: 266.603  -3.347 197.346 -13.752  12.288 102.441

                      1                      2                      3
                      A                      A                      A
 Frequencies --     65.2781                77.0705                94.6577
 Red. masses --      2.5546                 2.8620                 3.3635
 Frc consts  --      0.0064                 0.0100                 0.0178
 IR Inten    --      0.0103                 0.0484                 0.0191

                      4                      5                      6
                      A                      A                      A
 Frequencies --    136.2835               187.0642               217.3230
 Red. masses --      2.5481                 3.1698                 1.1839
 Frc consts  --      0.0279                 0.0654                 0.0329
 IR Inten    --      1.1399                 0.8851                 0.0956

                      7                      8                      9
                      A                      A                      A
 Frequencies --    229.1694               245.4687               328.4966
 Red. masses --      3.2379                 1.2505                 2.1616
 Frc consts  --      0.1002                 0.0444                 0.1374
 IR Inten    --      1.1535                 0.0305                 0.2770

                     10                     11                     12
                      A                      A                      A
 Frequencies --    352.1888               375.1463               388.5326
 Red. masses --      4.5944                 4.1754                 3.0743
 Frc consts  --      0.3358                 0.3462                 0.2734
 IR Inten    --      2.8389                 3.1299                 5.2740

                     13                     14                     15
                      A                      A                      A
 Frequencies --    457.0535               471.3280               512.2330
 Red. masses --      1.7296                 7.4157                 4.6577
 Frc consts  --      0.2129                 0.9706                 0.7200
 IR Inten    --     76.7492                 4.5021                 0.2007

                     16                     17                     18
                      A                      A                      A
 Frequencies --    537.3724               576.3403               674.9385
 Red. masses --      3.6140                 3.9712                 3.3299
 Frc consts  --      0.6149                 0.7772                 0.8937
 IR Inten    --      0.4988                 0.8687                22.7438

                     19                     20                     21
                      A                      A                      A
 Frequencies --    711.7434               729.3922               781.9589
 Red. masses --      4.0905                 4.4360                 3.5890
 Frc consts  --      1.2209                 1.3905                 1.2930
 IR Inten    --      1.6313                 1.3317                 9.1872

                     22                     23                     24
                      A                      A                      A
 Frequencies --    792.0079               810.5583               834.9472
 Red. masses --      2.0059                 1.4926                 1.9836
 Frc consts  --      0.7413                 0.5778                 0.8147
 IR Inten    --      7.7747                 4.8662                 0.0727

                     25                     26                     27
                      A                      A                      A
 Frequencies --    857.0728               866.6041               952.3302
 Red. masses --      4.3893                 1.5378                 3.1826
 Frc consts  --      1.8997                 0.6804                 1.7006
 IR Inten    --     20.0913                15.8522                64.4148

                     28                     29                     30
                      A                      A                      A
 Frequencies --    976.2608              1014.8196              1078.7192
 Red. masses --      2.2730                 2.2610                 1.9396
 Frc consts  --      1.2764                 1.3719                 1.3298
 IR Inten    --     11.1894                 4.4434                24.3696

                     31                     32                     33
                      A                      A                      A
 Frequencies --   1087.8776              1097.8471              1106.2730
 Red. masses --      2.3324                 2.0274                 2.3507
 Frc consts  --      1.6264                 1.4397                 1.6950
 IR Inten    --      1.7864                 1.7657                 8.2645

                     34                     35                     36
                      A                      A                      A
 Frequencies --   1115.0977              1153.9029              1229.5363
 Red. masses --      1.5968                 2.7634                 2.1358
 Frc consts  --      1.1699                 2.1679                 1.9024
 IR Inten    --      1.2178                13.6420                18.5883

                     37                     38                     39
                      A                      A                      A
 Frequencies --   1271.8172              1303.4755              1309.4101
 Red. masses --      1.8705                 2.9164                 1.1731
 Frc consts  --      1.7826                 2.9195                 1.1851
 IR Inten    --     29.2876                26.6803                 2.2116

                     40                     41                     42
                      A                      A                      A
 Frequencies --   1328.2162              1345.8107              1362.4566
 Red. masses --      1.8228                 3.1840                 2.0442
 Frc consts  --      1.8946                 3.3977                 2.2357
 IR Inten    --     26.7427                15.8794                11.3620

                     43                     44                     45
                      A                      A                      A
 Frequencies --   1377.8531              1406.2380              1434.1911
 Red. masses --      1.8665                 2.1120                 1.2533
 Frc consts  --      2.0878                 2.4608                 1.5188
 IR Inten    --      4.0794                 8.9692                 2.5925

                     46                     47                     48
                      A                      A                      A
 Frequencies --   1439.3939              1444.6775              1490.1892
 Red. masses --      2.6504                 1.7486                 3.3011
 Frc consts  --      3.2353                 2.1502                 4.3191
 IR Inten    --     16.2451                 9.2237                 4.1951

                     49                     50                     51
                      A                      A                      A
 Frequencies --   1500.3918              1519.4412              1521.6024
 Red. masses --      1.2257                 1.0697                 1.0398
 Frc consts  --      1.6257                 1.4550                 1.4184
 IR Inten    --      6.2445                 1.8393                 5.3717

                     52                     53                     54
                      A                      A                      A
 Frequencies --   1526.4731              1529.1497              1536.5431
 Red. masses --      1.0582                 1.0640                 1.1497
 Frc consts  --      1.4527                 1.4659                 1.5993
 IR Inten    --      3.3815                 7.2120                 6.4498

                     55                     56                     57
                      A                      A                      A
 Frequencies --   1553.9008              1606.7992              1636.3864
 Red. masses --      3.8381                 7.3573                 7.3203
 Frc consts  --      5.4603                11.1916                11.5492
 IR Inten    --      7.0757                 3.7657                14.8809

                     58                     59                     60
                      A                      A                      A
 Frequencies --   3025.8516              3053.5967              3057.6869
 Red. masses --      1.0647                 1.0481                 1.0808
 Frc consts  --      5.7437                 5.7582                 5.9539
 IR Inten    --     19.7533                 9.5649                37.6650

                     61                     62                     63
                      A                      A                      A
 Frequencies --   3065.1412              3075.2589              3110.8535
 Red. masses --      1.0370                 1.0598                 1.1032
 Frc consts  --      5.7401                 5.9052                 6.2901
 IR Inten    --     29.8303                19.3844                 2.2354

                     64                     65                     66
                      A                      A                      A
 Frequencies --   3125.9602              3132.6274              3135.8035
 Red. masses --      1.1027                 1.1021                 1.1042
 Frc consts  --      6.3487                 6.3721                 6.3972
 IR Inten    --     41.6933                26.2608                38.7965

                     67                     68                     69
                      A                      A                      A
 Frequencies --   3145.5247              3270.5873              3667.2726
 Red. masses --      1.1024                 1.0967                 1.0813
 Frc consts  --      6.4263                 6.9121                 8.5681
 IR Inten    --     23.2738                 5.7420                84.4201

 - Thermochemistry -
 -------------------
 Temperature   298.150 Kelvin.  Pressure   1.00000 Atm.
 Atom     1 has atomic number  6 and mass  12.00000

 Molecular mass:   176.10620 amu.
 Principal axes and moments of inertia in atomic units:
                           1         2         3
     Eigenvalues --  1455.703182831.257954092.60896
           X            0.99999  -0.00159   0.00404
           Y            0.00162   0.99998  -0.00579
           Z           -0.00403   0.00580   0.99998
 This molecule is an asymmetric top.
 Rotational symmetry number  1.
 Warning -- assumption of classical behavior for rotation
           may cause significant error
 Rotational temperatures (Kelvin)      0.05950     0.03059     0.02116
 Rotational constants (GHZ):           1.23977     0.63743     0.44098
 Zero-point vibrational energy     546893.6 (Joules/Mol)
                                  130.71072 (Kcal/Mol)
 Warning -- explicit consideration of  17 degrees of freedom as
           vibrations may cause significant error
 Vibrational temperatures:     93.92   110.89   136.19   196.08   269.14
          (Kelvin)            312.68   329.72   353.17   472.63   506.72
                              539.75   559.01   657.60   678.14   736.99
                              773.16   829.23   971.09  1024.04  1049.43
                             1125.06  1139.52  1166.21  1201.30  1233.14
                             1246.85  1370.19  1404.62  1460.10  1552.04
                             1565.21  1579.56  1591.68  1604.38  1660.21
                             1769.03  1829.86  1875.41  1883.95  1911.01
                             1936.32  1960.27  1982.42  2023.26  2063.48
                             2070.97  2078.57  2144.05  2158.73  2186.14
                             2189.25  2196.25  2200.11  2210.74  2235.72
                             2311.83  2354.40  4353.53  4393.44  4399.33
                             4410.05  4424.61  4475.82  4497.56  4507.15
                             4511.72  4525.71  4705.65  5276.39

 Zero-point correction=                           0.208301 (Hartree/Particle)
 Thermal correction to Energy=                    0.219929
 Thermal correction to Enthalpy=                  0.220873
 Thermal correction to Gibbs Free Energy=         0.170539
 Sum of electronic and zero-point Energies=           -569.019571
 Sum of electronic and thermal Energies=              -569.007943
 Sum of electronic and thermal Enthalpies=            -569.006999
 Sum of electronic and thermal Free Energies=         -569.057333

                     E (Thermal)             CV                S
                      KCal/Mol        Cal/Mol-Kelvin    Cal/Mol-Kelvin
 Total                  138.007             44.503            105.937
 Electronic               0.000              0.000              0.000
 Translational            0.889              2.981             41.405
 Rotational               0.889              2.981             31.201
 Vibrational            136.230             38.542             33.332
 Vibration     1          0.597              1.971              4.291
 Vibration     2          0.599              1.964              3.964
 Vibration     3          0.603              1.953              3.561
 Vibration     4          0.614              1.917              2.855
 Vibration     5          0.632              1.858              2.257
 Vibration     6          0.646              1.815              1.981
 Vibration     7          0.652              1.796              1.885
 Vibration     8          0.660              1.770              1.763
 Vibration     9          0.712              1.619              1.267
 Vibration    10          0.729              1.571              1.156
 Vibration    11          0.746              1.523              1.059
 Vibration    12          0.757              1.495              1.006
 Vibration    13          0.815              1.345              0.775
 Vibration    14          0.828              1.314              0.734
 Vibration    15          0.867              1.223              0.628
 Vibration    16          0.892              1.167              0.571
 Vibration    17          0.933              1.082              0.492

 Optimization completed.
    -- Stationary point found.

 1\1\GINC-NODE305\Freq\RB3LYP\6-31G(d)\C9H12N4\VSC10255\13-Dec-2020\0\\
 #N Geom=AllCheck Guess=TCheck SCRF=Check GenChk RB3LYP/6-31G(d) Freq\\
 CID_89261199_JID_3858_neutraal\\0,1\C,1.1869900958,-0.1249184071,-0.33
 71936785\C,0.4338869212,-1.3927648376,-0.7372095013\C,0.8581865919,-2.
 6323148322,0.0257474573\N,1.7512104805,-2.4760319448,0.999937924\C,2.0
 958983052,-3.5954576856,1.6597895369\C,1.5290151825,-4.8451239549,1.32
 17243778\N,2.0828100719,-5.7524009761,2.1718553192\N,2.9681523987,-5.1
 720994629,3.0324330548\C,2.9864038844,-3.8807501625,2.738109383\N,0.63

 Normal termination of Gaussian 16 at Sun Dec 13 16:04:24 2020.

 ----------------------------------------------------------------------
 # B3LYP/6-311++G(d,p) empiricaldispersion=gd3bj scf=xqc pop=npa geom=c
 heck
 ----------------------------------------------------------------------

 --------------------------------------
 CID_89261199_JID_3858_Energie_neutraal
 --------------------------------------
 Structure from the checkpoint file:  "JID_3858.chk"
 Charge =  0 Multiplicity = 1

 SCF Done:  E(RB3LYP) =  -569.377218170     A.U. after   15 cycles
 Normal termination of Gaussian 16 at Sun Dec 13 16:06:34 2020.

 ----------------------------------------------------------------------
 # B3LYP/6-311++G(d,p) empiricaldispersion=gd3bj scf=xqc pop=npa geom=c
 heck
 ----------------------------------------------------------------------

 ------------------------------------
 CID_89261199_JID_3858_Energie_kation
 ------------------------------------
 Structure from the checkpoint file:  "JID_3858.chk"
 Charge =  1 Multiplicity = 2

 SCF Done:  E(UB3LYP) =  -569.056205071     A.U. after   31 cycles
 Normal termination of Gaussian 16 at Sun Dec 13 16:12:12 2020.
 Gaussian 16:  ES64L-G16RevA.03 25-Dec-2016

 -----------------------------------
 CID_89261199_JID_3858_Energie_anion
 -----------------------------------
 Structure from the checkpoint file:  "JID_3858.chk"
 Charge = -1 Multiplicity = 2

                         Standard orientation:
 ---------------------------------------------------------------------
 Center     Atomic      Atomic             Coordinates (Angstroms)
 Number     Number       Type             X           Y           Z
 ---------------------------------------------------------------------
      1          6           0        2.160105    2.784712    0.105848
      2          6           0        2.218181    1.288231   -0.197109
      3          6           0        0.870422    0.595032   -0.156625
      4          7           0       -0.203532    1.355315    0.042256
      5          6           0       -1.381034    0.706932    0.062673
      6          6           0       -1.446041   -0.692905   -0.120464
      7          7           0       -2.764833   -1.021578   -0.047498
      8          7           0       -3.552250    0.070740    0.171570
      9          6           0       -2.737822    1.113157    0.239517
     10          7           0       -0.387660   -1.481207   -0.322508
     11          6           0        0.778317   -0.830229   -0.340407
     12          6           0        2.006648   -1.690300   -0.510629
     13          6           0        2.550550   -2.179812    0.843415
     14          1           0        1.522627    3.307660   -0.611924
     15          1           0        3.165742    3.216086    0.061891
     16          1           0        1.744417    2.968817    1.100759
     17          1           0        2.667564    1.130487   -1.188433
     18          1           0        2.898254    0.793338    0.508964
     19          1           0       -3.189611   -1.932459   -0.132300
     20          1           0       -3.135965    2.104004    0.409266
     21          1           0        1.724815   -2.554822   -1.119376
     22          1           0        2.788351   -1.146718   -1.050597
     23          1           0        1.785349   -2.758257    1.370804
     24          1           0        3.428843   -2.818169    0.700545
     25          1           0        2.841572   -1.341772    1.486356
 ---------------------------------------------------------------------

 SCF Done:  E(UB3LYP) =  -569.387897523     A.U. after   26 cycles

 The electronic state is 2-A.
 Alpha  occ. eigenvalues --  -14.22819 -14.17576 -14.13634 -14.13290 -10.07483
 Alpha  occ. eigenvalues --  -10.04880 -10.04354 -10.04098 -10.04002 -10.03800
 Alpha  occ. eigenvalues --  -10.03669 -10.03668 -10.03305  -0.89469  -0.80322
 Alpha  occ. eigenvalues --   -0.74622  -0.66972  -0.66251  -0.63270  -0.59748
 Alpha  occ. eigenvalues --   -0.53841  -0.51387  -0.46807  -0.45256  -0.44999
 Alpha  occ. eigenvalues --   -0.39415  -0.35964  -0.33453  -0.32859  -0.31348
 Alpha  occ. eigenvalues --   -0.30511  -0.30384  -0.29336  -0.28134  -0.25988
 Alpha  occ. eigenvalues --   -0.24366  -0.23651  -0.23272  -0.22310  -0.21228
 Alpha  occ. eigenvalues --   -0.21012  -0.18120  -0.14882  -0.14535  -0.10095
 Alpha  occ. eigenvalues --   -0.08953  -0.08430   0.04800
 Alpha virt. eigenvalues --    0.07953   0.08913   0.10325   0.10366   0.11284
 Alpha virt. eigenvalues --    0.11666   0.12368   0.12581   0.13281   0.14411
 Alpha virt. eigenvalues --    0.15077   0.15665   0.16051   0.16769   0.17055

  Beta  occ. eigenvalues --  -14.22803 -14.17151 -14.13081 -14.12676 -10.07554
  Beta  occ. eigenvalues --  -10.04926 -10.04351 -10.03960 -10.03842 -10.03800
  Beta  occ. eigenvalues --  -10.03689 -10.03649 -10.03254  -0.89135  -0.79570
  Beta  occ. eigenvalues --   -0.73705  -0.66616  -0.66106  -0.63115  -0.59454
  Beta  occ. eigenvalues --   -0.53433  -0.51252  -0.46662  -0.45064  -0.44664
  Beta  occ. eigenvalues --   -0.39131  -0.35716  -0.33246  -0.32674  -0.31202
  Beta  occ. eigenvalues --   -0.30285  -0.29819  -0.29143  -0.28029  -0.25616
  Beta  occ. eigenvalues --   -0.24284  -0.23557  -0.23145  -0.22045  -0.20963
  Beta  occ. eigenvalues --   -0.19853  -0.16016  -0.14363  -0.13774  -0.08562
  Beta  occ. eigenvalues --   -0.07812  -0.07631
  Beta virt. eigenvalues --    0.07911   0.08910   0.10262   0.10324   0.11221
  Beta virt. eigenvalues --    0.11574   0.11929   0.12377   0.12515   0.13215
  Beta virt. eigenvalues --    0.14396   0.15185   0.15669   0.16462   0.16783

 Mulliken charges and spin densities:
               1          2
     1  C   -0.620734  -0.082534
     2  C   -0.291223   0.023162
     3  C    0.130150  -0.100083
     4  N   -0.028995   0.285137
     5  C    0.078490   0.022140
     6  C   -0.026914  -0.028103
     7  N   -0.117852  -0.007437
     8  N   -0.281155   0.192847
     9  C   -0.265805  -0.004909
    10  N   -0.160342   0.262705
    11  C    0.171209  -0.056119
    12  C   -0.684063   0.472814
    13  C   -0.055611  -0.513884
    14  H    0.156487   0.002888
    15  H    0.085042   0.007630
    16  H    0.161422  -0.003330
    17  H    0.091250   0.027047
    18  H    0.114346   0.009344
    19  H    0.266666  -0.001282
    20  H    0.124373  -0.003255
    21  H    0.032351   0.134618
    22  H    0.082982   0.038974
    23  H    0.160154  -0.019761
    24  H   -0.181283   0.294105
    25  H    0.059054   0.047289
 Sum of Mulliken charges =  -1.00000   1.00000

 Dipole moment (field-independent basis, Debye):
    X=              2.4569    Y=              0.3338    Z=             -0.1132  Tot=              2.4820
 Quadrupole moment (field-independent basis, Debye-Ang):
   XX=           -116.2947   YY=            -99.6685   ZZ=            -87.2116
   XY=              9.1865   XZ=              0.4963   YZ=             -0.3627

 Summary of Natural Population Analysis:

                                       Natural Population
                Natural  -----------------------------------------------
    Atom  No    Charge         Core      Valence    Rydberg      Total
 -----------------------------------------------------------------------
      C    1   -0.28257      0.99968     2.27805    0.00484     3.28257
      C    2   -0.20023      0.99962     2.19340    0.00721     3.20023
      C    3    0.06769      0.99953     1.91970    0.01308     2.93231
      N    4   -0.14848      0.99965     2.63508    0.01375     3.64848
      C    5    0.03471      0.99947     1.95323    0.01258     2.96529
      C    6    0.15192      0.99948     1.83451    0.01409     2.84808
      N    7   -0.19143      0.99966     2.67831    0.01346     3.69143
      N    8   -0.09640      0.99973     2.58352    0.01315     3.59640
      C    9   -0.02695      0.99962     2.00891    0.01842     3.02695
      N   10   -0.17814      0.99964     2.66634    0.01217     3.67814
      C   11    0.13296      0.99953     1.85202    0.01549     2.86704
      C   12   -0.20872      0.99962     2.19761    0.01149     3.20872
      C   13   -0.27963      0.99966     2.27450    0.00547     3.27963
      H   14    0.10222      0.00000     0.39683    0.00095     0.39778
      H   15    0.08508      0.00000     0.41402    0.00090     0.41492
      H   16    0.10055      0.00000     0.39852    0.00093     0.39945
      H   17    0.09253      0.00000     0.40558    0.00189     0.40747
      H   18    0.09359      0.00000     0.40457    0.00183     0.40641
      H   19    0.18775      0.00000     0.30945    0.00280     0.31225
      H   20    0.08786      0.00000     0.41042    0.00172     0.41214
      H   21    0.10113      0.00000     0.39659    0.00228     0.39887
      H   22    0.09331      0.00000     0.40531    0.00139     0.40669
      H   23    0.09869      0.00000     0.39999    0.00132     0.40131
      H   24    0.08985      0.00000     0.40868    0.00147     0.41015
      H   25    0.09270      0.00000     0.40623    0.00107     0.40730
 =======================================================================
   * Total *    0.00000     12.99487    33.83137    0.17376    47.00000

 Normal termination of Gaussian 16 at Sun Dec 13 16:17:03 2020.
