 Gaussian 16, Revision A.03,

 -----------------------------------------------------------
 # opt freq B3LYP/6-31G(d) empiricaldispersion=gd3bj scf=xqc
 -----------------------------------------------------------

 -------------------------------
 CID_152576947_JID_5542_neutraal
 -------------------------------
 Symbolic Z-matrix:
 Charge =  0 Multiplicity = 1

 SCF Done:  E(RB3LYP) =  -708.306363067     A.U. after   14 cycles
 SCF Done:  E(RB3LYP) =  -708.303734204     A.U. after   16 cycles
 SCF Done:  E(RB3LYP) =  -708.309880801     A.U. after   14 cycles
 SCF Done:  E(RB3LYP) =  -708.311556719     A.U. after   13 cycles
 SCF Done:  E(RB3LYP) =  -708.312210545     A.U. after   13 cycles
 SCF Done:  E(RB3LYP) =  -708.312145297     A.U. after   11 cycles
 SCF Done:  E(RB3LYP) =  -708.312279114     A.U. after   12 cycles
 SCF Done:  E(RB3LYP) =  -708.312293325     A.U. after   12 cycles
 SCF Done:  E(RB3LYP) =  -708.312352633     A.U. after   12 cycles
 SCF Done:  E(RB3LYP) =  -708.312359695     A.U. after   10 cycles
 SCF Done:  E(RB3LYP) =  -708.312372122     A.U. after    8 cycles
 SCF Done:  E(RB3LYP) =  -708.312372282     A.U. after    8 cycles
 SCF Done:  E(RB3LYP) =  -708.312372415     A.U. after    8 cycles
 SCF Done:  E(RB3LYP) =  -708.312372461     A.U. after    8 cycles
 SCF Done:  E(RB3LYP) =  -708.312372483     A.U. after    8 cycles
 Optimization completed.
    -- Stationary point found.
 Normal termination of Gaussian 16 at Thu Dec 10 16:37:34 2020.

 --------------------------------------------------------------------
 #N Geom=AllCheck Guess=TCheck SCRF=Check GenChk RB3LYP/6-31G(d) Freq
 --------------------------------------------------------------------

 Structure from the checkpoint file:  "JID_5542.chk"
 -------------------------------
 CID_152576947_JID_5542_neutraal
 -------------------------------
 Charge =  0 Multiplicity = 1

 SCF Done:  E(RB3LYP) =  -708.312372483     A.U. after    1 cycles

  Exact polarizability: 149.078  -0.597 123.416 -17.861   1.534 125.749
 Approx polarizability: 215.694 -12.483 162.739 -45.164  10.108 213.229

                      1                      2                      3
                      A                      A                      A
 Frequencies --     24.9901                35.0491                39.0341
 Red. masses --      3.7383                 4.6833                 4.8913
 Frc consts  --      0.0014                 0.0034                 0.0044
 IR Inten    --      0.4585                 2.3286                 0.1052

                      4                      5                      6
                      A                      A                      A
 Frequencies --     58.7588                78.3456                85.7515
 Red. masses --      4.1852                 2.9322                 2.7381
 Frc consts  --      0.0085                 0.0106                 0.0119
 IR Inten    --      0.7031                 0.1860                 0.0110

                      7                      8                      9
                      A                      A                      A
 Frequencies --     96.7729               111.8517               135.1244
 Red. masses --      5.8703                 3.8398                 4.2875
 Frc consts  --      0.0324                 0.0283                 0.0461
 IR Inten    --      1.2547                 1.1328                 0.0973

                     10                     11                     12
                      A                      A                      A
 Frequencies --    156.4849               189.3630               209.0305
 Red. masses --      1.7799                 3.3327                 1.3161
 Frc consts  --      0.0257                 0.0704                 0.0339
 IR Inten    --      0.0167                 0.6342                 0.0623

                     13                     14                     15
                      A                      A                      A
 Frequencies --    231.6131               246.0831               268.4033
 Red. masses --      3.9781                 1.4058                 3.1337
 Frc consts  --      0.1257                 0.0502                 0.1330
 IR Inten    --      6.4251                 1.0426                 2.8198

                     16                     17                     18
                      A                      A                      A
 Frequencies --    297.6347               308.7018               330.8077
 Red. masses --      2.8461                 2.1947                 2.5594
 Frc consts  --      0.1485                 0.1232                 0.1650
 IR Inten    --      5.8872                 1.1395                 3.0410

                     19                     20                     21
                      A                      A                      A
 Frequencies --    360.5067               361.4217               413.4942
 Red. masses --      2.2100                 2.3198                 2.1050
 Frc consts  --      0.1692                 0.1785                 0.2120
 IR Inten    --      0.4048                 0.7364                 3.1970

                     22                     23                     24
                      A                      A                      A
 Frequencies --    453.3058               509.8250               531.4767
 Red. masses --      2.5976                 2.1137                 2.3404
 Frc consts  --      0.3145                 0.3237                 0.3895
 IR Inten    --      4.9215                 0.9144                 1.6586

                     25                     26                     27
                      A                      A                      A
 Frequencies --    568.1814               611.0203               656.5060
 Red. masses --     13.6736                 2.7474                 6.8526
 Frc consts  --      2.6008                 0.6043                 1.7401
 IR Inten    --     10.8472                 0.5961                10.1732

                     28                     29                     30
                      A                      A                      A
 Frequencies --    726.4631               786.3858               790.3316
 Red. masses --      1.4426                 1.2284                 2.8251
 Frc consts  --      0.4486                 0.4476                 1.0397
 IR Inten    --     10.9411                 2.4107                 2.4505

                     31                     32                     33
                      A                      A                      A
 Frequencies --    808.6443               820.9063               850.5066
 Red. masses --      1.5492                 2.5087                 3.6594
 Frc consts  --      0.5968                 0.9961                 1.5596
 IR Inten    --      0.9662                 1.0666                 3.9454

                     34                     35                     36
                      A                      A                      A
 Frequencies --    886.9209               917.3192               945.9002
 Red. masses --      1.7764                 1.7631                 3.2364
 Frc consts  --      0.8233                 0.8741                 1.7061
 IR Inten    --      1.0928                 2.3386                35.4031

                     37                     38                     39
                      A                      A                      A
 Frequencies --    959.3942               982.9524              1008.2869
 Red. masses --      2.0107                 1.9259                 1.8650
 Frc consts  --      1.0904                 1.0964                 1.1171
 IR Inten    --      1.2090                 3.9077                 4.7582

                     40                     41                     42
                      A                      A                      A
 Frequencies --   1019.0085              1028.5735              1055.7171
 Red. masses --      1.6710                 2.1474                 1.8876
 Frc consts  --      1.0223                 1.3386                 1.2395
 IR Inten    --      2.8962                 3.3487                 7.5616

                     43                     44                     45
                      A                      A                      A
 Frequencies --   1070.8741              1080.5511              1081.9700
 Red. masses --      3.3455                 3.2995                 1.4131
 Frc consts  --      2.2604                 2.2698                 0.9746
 IR Inten    --     53.3360                28.2420                 1.9462

                     46                     47                     48
                      A                      A                      A
 Frequencies --   1107.0562              1119.7894              1143.9581
 Red. masses --      2.4091                 2.6647                 2.1255
 Frc consts  --      1.7396                 1.9687                 1.6388
 IR Inten    --      0.2866                 7.3644                 0.6654

                     49                     50                     51
                      A                      A                      A
 Frequencies --   1186.2133              1189.5934              1241.0011
 Red. masses --      2.1189                 2.0163                 1.3240
 Frc consts  --      1.7567                 1.6811                 1.2014
 IR Inten    --      0.4502                 0.8024                 3.1551

                     52                     53                     54
                      A                      A                      A
 Frequencies --   1270.0508              1279.0172              1300.3034
 Red. masses --      1.2160                 1.3283                 1.2840
 Frc consts  --      1.1557                 1.2803                 1.2791
 IR Inten    --      4.3248                 0.5999                 5.0268

                     55                     56                     57
                      A                      A                      A
 Frequencies --   1315.5800              1327.6982              1331.2639
 Red. masses --      1.1790                 1.2728                 1.2651
 Frc consts  --      1.2023                 1.3219                 1.3210
 IR Inten    --      3.0077                 3.6000                 4.2746

                     58                     59                     60
                      A                      A                      A
 Frequencies --   1351.5309              1368.4324              1377.6366
 Red. masses --      1.2482                 1.8240                 1.3022
 Frc consts  --      1.3433                 2.0124                 1.4561
 IR Inten    --      4.9891                67.5292                11.8458

                     61                     62                     63
                      A                      A                      A
 Frequencies --   1390.4768              1402.3990              1403.1838
 Red. masses --      1.4307                 1.3477                 1.5464
 Frc consts  --      1.6298                 1.5617                 1.7939
 IR Inten    --     22.9706                 0.8296                 6.7911

                     64                     65                     66
                      A                      A                      A
 Frequencies --   1404.5302              1418.2861              1430.5629
 Red. masses --      1.4188                 1.3488                 1.3292
 Frc consts  --      1.6490                 1.5985                 1.6027
 IR Inten    --     17.9949                34.1473                 0.9072

                     67                     68                     69
                      A                      A                      A
 Frequencies --   1433.9350              1440.8609              1446.7080
 Red. masses --      1.4808                 1.2727                 1.2732
 Frc consts  --      1.7939                 1.5568                 1.5700
 IR Inten    --      4.0410                 3.8190                 7.5598

                     70                     71                     72
                      A                      A                      A
 Frequencies --   1479.6425              1490.9708              1503.9199
 Red. masses --      1.0922                 1.0920                 1.0902
 Frc consts  --      1.4088                 1.4303                 1.4528
 IR Inten    --      2.1186                 2.5911                 4.9017

                     73                     74                     75
                      A                      A                      A
 Frequencies --   1510.3772              1521.6975              1523.8257
 Red. masses --      1.0725                 1.0644                 1.0559
 Frc consts  --      1.4415                 1.4522                 1.4446
 IR Inten    --      1.0998                 1.4188                 5.8583

                     76                     77                     78
                      A                      A                      A
 Frequencies --   1528.8054              1533.9342              1537.0684
 Red. masses --      1.0554                 1.0474                 1.0744
 Frc consts  --      1.4533                 1.4521                 1.4956
 IR Inten    --      3.4332                 7.1125                 3.2720

                     79                     80                     81
                      A                      A                      A
 Frequencies --   1540.8901              1545.7213              2272.7777
 Red. masses --      1.0701                 1.0739                13.6234
 Frc consts  --      1.4969                 1.5117                41.4619
 IR Inten    --      8.6660                 0.2659               423.9423

                     82                     83                     84
                      A                      A                      A
 Frequencies --   3026.4302              3034.9187              3038.1923
 Red. masses --      1.0645                 1.0663                 1.0632
 Frc consts  --      5.7446                 5.7864                 5.7821
 IR Inten    --     21.6725                36.1955                11.8912

                     85                     86                     87
                      A                      A                      A
 Frequencies --   3044.1617              3045.9246              3047.0445
 Red. masses --      1.0628                 1.0530                 1.0472
 Frc consts  --      5.8029                 5.7559                 5.7284
 IR Inten    --     13.7734                23.2778                13.0506

                     88                     89                     90
                      A                      A                      A
 Frequencies --   3051.1153              3054.0334              3058.1059
 Red. masses --      1.0581                 1.0449                 1.0623
 Frc consts  --      5.8034                 5.7419                 5.8531
 IR Inten    --     33.7496                39.7617                22.6194

                     91                     92                     93
                      A                      A                      A
 Frequencies --   3061.2434              3062.5782              3072.1760
 Red. masses --      1.0868                 1.0920                 1.0985
 Frc consts  --      6.0006                 6.0346                 6.1087
 IR Inten    --     20.4288                42.1255                49.7964

                     94                     95                     96
                      A                      A                      A
 Frequencies --   3078.3774              3096.9242              3106.8656
 Red. masses --      1.0956                 1.1063                 1.1065
 Frc consts  --      6.1172                 6.2517                 6.2927
 IR Inten    --     16.0978                29.2702                18.0620

                     97                     98                     99
                      A                      A                      A
 Frequencies --   3111.0072              3115.5828              3117.7828
 Red. masses --      1.1002                 1.1014                 1.0935
 Frc consts  --      6.2734                 6.2989                 6.2627
 IR Inten    --     40.8668                47.0131                65.1716

                    100                    101                    102
                      A                      A                      A
 Frequencies --   3119.8767              3121.5380              3130.0366
 Red. masses --      1.1038                 1.1013                 1.0979
 Frc consts  --      6.3300                 6.3225                 6.3375
 IR Inten    --     32.3642                22.0631                46.0172

 - Thermochemistry -
 -------------------
 Temperature   298.150 Kelvin.  Pressure   1.00000 Atm.
 Atom     1 has atomic number  6 and mass  12.00000

 Molecular mass:   215.16338 amu.
 Principal axes and moments of inertia in atomic units:
                           1         2         3
     Eigenvalues --  2536.886934405.629385361.16513
           X            0.99977   0.00637  -0.02062
           Y           -0.00705   0.99944  -0.03286
           Z            0.02040   0.03299   0.99925
 This molecule is an asymmetric top.
 Rotational symmetry number  1.
 Warning -- assumption of classical behavior for rotation
           may cause significant error
 Rotational temperatures (Kelvin)      0.03414     0.01966     0.01616
 Rotational constants (GHZ):           0.71140     0.40964     0.33663
 Zero-point vibrational energy     834119.3 (Joules/Mol)
                                  199.35930 (Kcal/Mol)
 Warning -- explicit consideration of  26 degrees of freedom as
           vibrations may cause significant error
 Vibrational temperatures:     35.96    50.43    56.16    84.54   112.72
          (Kelvin)            123.38   139.23   160.93   194.41   225.15
                              272.45   300.75   333.24   354.06   386.17
                              428.23   444.15   475.96   518.69   520.01
                              594.93   652.21   733.52   764.68   817.49
                              879.12   944.57  1045.22  1131.43  1137.11
                             1163.46  1181.10  1223.69  1276.08  1319.82
                             1360.94  1380.35  1414.25  1450.70  1466.13
                             1479.89  1518.94  1540.75  1554.67  1556.71
                             1592.81  1611.13  1645.90  1706.70  1711.56
                             1785.52  1827.32  1840.22  1870.85  1892.83
                             1910.26  1915.39  1944.55  1968.87  1982.11
                             2000.59  2017.74  2018.87  2020.81  2040.60
                             2058.26  2063.11  2073.08  2081.49  2128.88
                             2145.17  2163.81  2173.10  2189.38  2192.45
                             2199.61  2206.99  2211.50  2217.00  2223.95
                             3270.02  4354.36  4366.57  4371.28  4379.87
                             4382.41  4384.02  4389.87  4394.07  4399.93
                             4404.45  4406.37  4420.18  4429.10  4455.78
                             4470.09  4476.05  4482.63  4485.79  4488.81
                             4491.20  4503.42

 Zero-point correction=                           0.317699 (Hartree/Particle)
 Thermal correction to Energy=                    0.335451
 Thermal correction to Enthalpy=                  0.336395
 Thermal correction to Gibbs Free Energy=         0.270297
 Sum of electronic and zero-point Energies=           -707.994673
 Sum of electronic and thermal Energies=              -707.976922
 Sum of electronic and thermal Enthalpies=            -707.975977
 Sum of electronic and thermal Free Energies=         -708.042076

                     E (Thermal)             CV                S
                      KCal/Mol        Cal/Mol-Kelvin    Cal/Mol-Kelvin
 Total                  210.499             63.553            139.116
 Electronic               0.000              0.000              0.000
 Translational            0.889              2.981             42.002
 Rotational               0.889              2.981             32.460
 Vibrational            208.721             57.591             64.653
 Vibration     1          0.593              1.985              6.192
 Vibration     2          0.594              1.982              5.521
 Vibration     3          0.594              1.981              5.308
 Vibration     4          0.596              1.974              4.498
 Vibration     5          0.600              1.964              3.932
 Vibration     6          0.601              1.959              3.755
 Vibration     7          0.603              1.951              3.518
 Vibration     8          0.607              1.940              3.237
 Vibration     9          0.613              1.918              2.872
 Vibration    10          0.620              1.895              2.592
 Vibration    11          0.633              1.855              2.234
 Vibration    12          0.642              1.827              2.052
 Vibration    13          0.653              1.793              1.866
 Vibration    14          0.661              1.769              1.758
 Vibration    15          0.673              1.731              1.606
 Vibration    16          0.691              1.678              1.430
 Vibration    17          0.698              1.657              1.369
 Vibration    18          0.713              1.614              1.256
 Vibration    19          0.735              1.554              1.120
 Vibration    20          0.736              1.552              1.116
 Vibration    21          0.777              1.441              0.914
 Vibration    22          0.812              1.354              0.786
 Vibration    23          0.865              1.228              0.634
 Vibration    24          0.886              1.180              0.584
 Vibration    25          0.924              1.100              0.508
 Vibration    26          0.970              1.009              0.431

 Optimization completed.
    -- Stationary point found.
 Normal termination of Gaussian 16 at Thu Dec 10 16:49:36 2020.

 ----------------------------------------------------------------------
 # B3LYP/6-311++G(d,p) empiricaldispersion=gd3bj scf=xqc pop=npa geom=c
 heck
 ----------------------------------------------------------------------

 ---------------------------------------
 CID_152576947_JID_5542_Energie_neutraal
 ---------------------------------------
 Structure from the checkpoint file:  "JID_5542.chk"
 Charge =  0 Multiplicity = 1

 SCF Done:  E(RB3LYP) =  -708.513409033     A.U. after   15 cycles
 Normal termination of Gaussian 16 at Thu Dec 10 16:55:34 2020.

 ----------------------------------------------------------------------
 # B3LYP/6-311++G(d,p) empiricaldispersion=gd3bj scf=xqc pop=npa geom=c
 heck
 ----------------------------------------------------------------------

 -------------------------------------
 CID_152576947_JID_5542_Energie_kation
 -------------------------------------
 Structure from the checkpoint file:  "JID_5542.chk"
 Charge =  1 Multiplicity = 2

 SCF Done:  E(UB3LYP) =  -708.197979323     A.U. after   26 cycles
 Normal termination of Gaussian 16 at Thu Dec 10 17:13:15 2020.
 Gaussian 16:  ES64L-G16RevA.03 25-Dec-2016

 ----------------------------------------------------------------------
 # B3LYP/6-311++G(d,p) empiricaldispersion=gd3bj scf=xqc pop=npa geom=c
 heck
 ----------------------------------------------------------------------

 ------------------------------------
 CID_152576947_JID_5542_Energie_anion
 ------------------------------------
 Structure from the checkpoint file:  "JID_5542.chk"
 Charge = -1 Multiplicity = 2

                         Standard orientation:
 ---------------------------------------------------------------------
 Center     Atomic      Atomic             Coordinates (Angstroms)
 Number     Number       Type             X           Y           Z
 ---------------------------------------------------------------------
      1          6           0       -0.329185    2.995270   -0.361551
      2          6           0       -1.762148    2.534824   -0.079349
      3          6           0       -2.253561    1.425511   -1.022308
      4          6           0       -1.421219    0.134481   -0.994342
      5          6           0       -1.315054   -0.543947    0.383808
      6          6           0       -2.687881   -0.874822    1.009571
      7          6           0       -3.580408   -1.807543    0.182161
      8          6           0       -0.440260   -1.804398    0.344801
      9          8           0        0.960008   -1.557672    0.238124
     10          8           0        1.250426   -1.379884   -1.195378
     11          6           0        2.639126   -1.132001   -1.265558
     12          6           0        3.067918    0.248412   -0.757617
     13          7           0        3.282632    0.315387    0.701158
     14          7           0        2.306827    0.599551    1.397419
     15          7           0        1.496415    0.864862    2.156436
     16          1           0        0.390937    2.190695   -0.182490
     17          1           0       -0.047357    3.833745    0.284470
     18          1           0       -0.217519    3.319763   -1.403912
     19          1           0       -1.834714    2.199493    0.963359
     20          1           0       -2.440523    3.393468   -0.168190
     21          1           0       -3.302069    1.198790   -0.789400
     22          1           0       -2.251311    1.812295   -2.051150
     23          1           0       -1.846333   -0.577290   -1.714719
     24          1           0       -0.410578    0.341327   -1.355732
     25          1           0       -0.808640    0.142074    1.074086
     26          1           0       -2.519318   -1.321449    1.999060
     27          1           0       -3.225878    0.062084    1.195444
     28          1           0       -3.101212   -2.775911   -0.002052
     29          1           0       -4.523194   -2.002908    0.704748
     30          1           0       -3.827909   -1.371377   -0.791517
     31          1           0       -0.512605   -2.336571    1.301610
     32          1           0       -0.733390   -2.496200   -0.454076
     33          1           0        3.194989   -1.921715   -0.744728
     34          1           0        2.846300   -1.196518   -2.340543
     35          1           0        4.039355    0.492872   -1.197496
     36          1           0        2.342413    1.000469   -1.091531
 ---------------------------------------------------------------------

 SCF Done:  E(UB3LYP) =  -708.502313499     A.U. after   33 cycles
 SCF Done:  E(UB3LYP) =  -708.502313499     a.u. after    1 cycles

 The electronic state is 2-A.
 Alpha  occ. eigenvalues --  -19.08036 -19.07779 -14.34852 -14.24891 -14.23739
 Alpha  occ. eigenvalues --  -10.12495 -10.12230 -10.10784 -10.07504 -10.07284
 Alpha  occ. eigenvalues --  -10.07008 -10.06769 -10.06654 -10.06019 -10.05938
 Alpha  occ. eigenvalues --   -1.02190  -1.01329  -0.85907  -0.84081  -0.72413
 Alpha  occ. eigenvalues --   -0.68694  -0.66355  -0.63514  -0.60620  -0.55836
 Alpha  occ. eigenvalues --   -0.54113  -0.53433  -0.48674  -0.44496  -0.43654
 Alpha  occ. eigenvalues --   -0.42531  -0.40776  -0.39149  -0.38290  -0.38110
 Alpha  occ. eigenvalues --   -0.37074  -0.35152  -0.34372  -0.33964  -0.33254
 Alpha  occ. eigenvalues --   -0.32356  -0.31623  -0.30429  -0.29924  -0.28992
 Alpha  occ. eigenvalues --   -0.28523  -0.28180  -0.27502  -0.25658  -0.25066
 Alpha  occ. eigenvalues --   -0.24559  -0.24194  -0.23167  -0.21751  -0.21625
 Alpha  occ. eigenvalues --   -0.21124  -0.18584  -0.14939  -0.13300   0.04406
 Alpha virt. eigenvalues --    0.05794   0.06902   0.07467   0.07983   0.08587
 Alpha virt. eigenvalues --    0.08936   0.09292   0.10101   0.10245   0.10404
 Alpha virt. eigenvalues --    0.10811   0.11452   0.11809   0.12185   0.12913

  Beta  occ. eigenvalues --  -19.08029 -19.07774 -14.34672 -14.24640 -14.23784
  Beta  occ. eigenvalues --  -10.12470 -10.12223 -10.10699 -10.07498 -10.07283
  Beta  occ. eigenvalues --  -10.07004 -10.06741 -10.06641 -10.06007 -10.05929
  Beta  occ. eigenvalues --   -1.02146  -1.01006  -0.85746  -0.84050  -0.72399
  Beta  occ. eigenvalues --   -0.68676  -0.66229  -0.63488  -0.60590  -0.55760
  Beta  occ. eigenvalues --   -0.54071  -0.53343  -0.48644  -0.44457  -0.43587
  Beta  occ. eigenvalues --   -0.42453  -0.40577  -0.38860  -0.38049  -0.37957
  Beta  occ. eigenvalues --   -0.37026  -0.35021  -0.34341  -0.33860  -0.32854
  Beta  occ. eigenvalues --   -0.32287  -0.31577  -0.30322  -0.29887  -0.28918
  Beta  occ. eigenvalues --   -0.28489  -0.28060  -0.27471  -0.25628  -0.25037
  Beta  occ. eigenvalues --   -0.24542  -0.24174  -0.23146  -0.21731  -0.21605
  Beta  occ. eigenvalues --   -0.21106  -0.18165  -0.14897  -0.13239
  Beta virt. eigenvalues --    0.06289   0.07190   0.07466   0.08157   0.08861
  Beta virt. eigenvalues --    0.09003   0.09285   0.09467   0.10166   0.10511
  Beta virt. eigenvalues --    0.10936   0.11015   0.11734   0.12036   0.12353

 Mulliken charges and spin densities:
               1          2
     1  C    0.077530  -0.673926
     2  C   -0.636035   0.564239
     3  C   -0.194852  -0.316476
     4  C    0.123949  -0.271556
     5  C    0.016456   0.351415
     6  C   -0.892001   0.433811
     7  C    0.553473  -1.189079
     8  C   -0.090782  -0.632789
     9  O   -0.027048   0.016613
    10  O   -0.047751   0.033087
    11  C    0.952496  -1.342764
    12  C   -0.081546  -0.246780
    13  N   -0.399558   0.039131
    14  N    0.618121  -0.067659
    15  N   -0.275008   0.191255
    16  H    0.319100  -0.250627
    17  H    0.074338   0.057540
    18  H   -0.159155   0.289742
    19  H    0.094188   0.027257
    20  H   -0.016148   0.167042
    21  H   -0.032335   0.170920
    22  H   -0.090546   0.251907
    23  H   -0.053757   0.238521
    24  H    0.381198  -0.194770
    25  H    0.217884   0.079558
    26  H    0.089969   0.045683
    27  H    0.108768   0.044112
    28  H   -0.070680   0.212582
    29  H   -0.294524   0.434933
    30  H   -0.105313   0.248778
    31  H    0.075082   0.101037
    32  H    0.156753   0.049945
    33  H    0.076421   0.106028
    34  H   -0.297167   0.485795
    35  H   -0.964797   1.156343
    36  H   -0.206721   0.389153
 Sum of Mulliken charges =  -1.00000   1.00000

 Dipole moment (field-independent basis, Debye):
    X=             -3.3234    Y=             -0.3582    Z=              2.3494  Tot=              4.0857
 Quadrupole moment (field-independent basis, Debye-Ang):
   XX=           -175.8857   YY=           -129.4864   ZZ=           -133.3657
   XY=             -8.2902   XZ=              4.6436   YZ=              1.7607

 Summary of Natural Population Analysis:

                                       Natural Population
                Natural  -----------------------------------------------
    Atom  No    Charge         Core      Valence    Rydberg      Total
 -----------------------------------------------------------------------
      C    1   -0.28704      0.99966     2.28199    0.00538     3.28704
      C    2   -0.19198      0.99964     2.18481    0.00753     3.19198
      C    3   -0.18906      0.99963     2.18110    0.00833     3.18906
      C    4   -0.19641      0.99961     2.18688    0.00992     3.19641
      C    5   -0.13361      0.99958     2.12394    0.01009     3.13361
      C    6   -0.18961      0.99962     2.18094    0.00904     3.18961
      C    7   -0.28989      0.99966     2.28494    0.00529     3.28989
      C    8   -0.00875      0.99956     1.99502    0.01417     3.00875
      O    9   -0.16783      0.99990     3.15908    0.00885     4.16783
      O   10   -0.16253      0.99990     3.15508    0.00756     4.16253
      C   11   -0.02060      0.99959     2.00642    0.01460     3.02060
      C   12   -0.10737      0.99958     2.09566    0.01213     3.10737
      N   13   -0.19916      0.99970     2.68495    0.01451     3.69916
      N   14    0.13658      0.99970     2.34829    0.01543     3.36342
      N   15   -0.03142      0.99981     2.51889    0.01272     3.53142
      H   16    0.09922      0.00000     0.39934    0.00144     0.40078
      H   17    0.09743      0.00000     0.40188    0.00069     0.40257
      H   18    0.09458      0.00000     0.40448    0.00093     0.40542
      H   19    0.09353      0.00000     0.40520    0.00127     0.40647
      H   20    0.09241      0.00000     0.40672    0.00086     0.40759
      H   21    0.09411      0.00000     0.40476    0.00113     0.40589
      H   22    0.09564      0.00000     0.40340    0.00097     0.40436
      H   23    0.09728      0.00000     0.40153    0.00120     0.40272
      H   24    0.10806      0.00000     0.38980    0.00213     0.39194
      H   25    0.10899      0.00000     0.38880    0.00221     0.39101
      H   26    0.09422      0.00000     0.40480    0.00099     0.40578
      H   27    0.09759      0.00000     0.40134    0.00106     0.40241
      H   28    0.09546      0.00000     0.40357    0.00097     0.40454
      H   29    0.09883      0.00000     0.40026    0.00091     0.40117
      H   30    0.09894      0.00000     0.40003    0.00103     0.40106
      H   31    0.09380      0.00000     0.40512    0.00108     0.40620
      H   32    0.08943      0.00000     0.40897    0.00160     0.41057
      H   33    0.08999      0.00000     0.40819    0.00182     0.41001
      H   34    0.09977      0.00000     0.39853    0.00170     0.40023
      H   35    0.10402      0.00000     0.39207    0.00391     0.39598
      H   36    0.09538      0.00000     0.40235    0.00226     0.40462
 =======================================================================
   * Total *    0.00000     14.99513    43.81914    0.18574    59.00000

 Normal termination of Gaussian 16 at Thu Dec 10 17:37:33 2020.
