 Gaussian 16, Revision A.03,

 -----------------------------------------------------------
 # opt freq B3LYP/6-31G(d) empiricaldispersion=gd3bj scf=xqc
 -----------------------------------------------------------

 -------------------------------
 CID_130513704_JID_3319_neutraal
 -------------------------------
 Symbolic Z-matrix:
 Charge =  0 Multiplicity = 1

 SCF Done:  E(RB3LYP) =  -559.380598260     A.U. after   14 cycles
 SCF Done:  E(RB3LYP) =  -559.387566993     A.U. after   11 cycles
 SCF Done:  E(RB3LYP) =  -559.387847690     A.U. after   12 cycles
 SCF Done:  E(RB3LYP) =  -559.387987563     A.U. after   11 cycles
 SCF Done:  E(RB3LYP) =  -559.388114091     A.U. after   10 cycles
 SCF Done:  E(RB3LYP) =  -559.388125217     A.U. after   10 cycles
 SCF Done:  E(RB3LYP) =  -559.388139285     A.U. after    9 cycles
 SCF Done:  E(RB3LYP) =  -559.388144095     A.U. after    8 cycles
 SCF Done:  E(RB3LYP) =  -559.388146907     A.U. after    8 cycles
 SCF Done:  E(RB3LYP) =  -559.388148434     A.U. after    8 cycles
 SCF Done:  E(RB3LYP) =  -559.388154397     A.U. after    9 cycles
 SCF Done:  E(RB3LYP) =  -559.388157503     A.U. after    9 cycles
 SCF Done:  E(RB3LYP) =  -559.388161780     A.U. after    9 cycles
 SCF Done:  E(RB3LYP) =  -559.388164657     A.U. after    9 cycles
 SCF Done:  E(RB3LYP) =  -559.388165158     A.U. after    9 cycles
 SCF Done:  E(RB3LYP) =  -559.388165214     A.U. after    7 cycles
 Optimization completed.
    -- Stationary point found.
 Normal termination of Gaussian 16 at Wed Dec  9 22:57:55 2020.

 --------------------------------------------------------------------
 #N Geom=AllCheck Guess=TCheck SCRF=Check GenChk RB3LYP/6-31G(d) Freq
 --------------------------------------------------------------------

 Structure from the checkpoint file:  "JID_3319.chk"
 -------------------------------
 CID_130513704_JID_3319_neutraal
 -------------------------------
 Charge =  0 Multiplicity = 1

 SCF Done:  E(RB3LYP) =  -559.388165214     A.U. after    1 cycles

  Exact polarizability: 133.555   5.481 112.015  -0.474  -0.490  97.860
 Approx polarizability: 168.857  16.976 164.878   1.662   1.364 152.011

                      1                      2                      3
                      A                      A                      A
 Frequencies --     23.5873                72.4319                94.1917
 Red. masses --      3.0462                 2.0290                 3.0168
 Frc consts  --      0.0010                 0.0063                 0.0158
 IR Inten    --      1.6911                 1.7859                 1.3991

                      4                      5                      6
                      A                      A                      A
 Frequencies --    117.0749               119.9520               181.3188
 Red. masses --      3.3390                 4.2664                 3.4872
 Frc consts  --      0.0270                 0.0362                 0.0675
 IR Inten    --      2.0410                 3.8297                 1.2212

                      7                      8                      9
                      A                      A                      A
 Frequencies --    193.0314               212.8856               263.8055
 Red. masses --      2.7387                 2.8440                 3.1521
 Frc consts  --      0.0601                 0.0759                 0.1292
 IR Inten    --      1.6748                 1.0635                 0.2810

                     10                     11                     12
                      A                      A                      A
 Frequencies --    279.1966               329.8911               359.7659
 Red. masses --      3.0110                 1.1327                 3.5224
 Frc consts  --      0.1383                 0.0726                 0.2686
 IR Inten    --      2.8673               103.3402                 1.0118

                     13                     14                     15
                      A                      A                      A
 Frequencies --    372.9422               403.8931               443.0760
 Red. masses --      2.4140                 2.2336                 2.4296
 Frc consts  --      0.1978                 0.2147                 0.2810
 IR Inten    --     28.0382                 6.2325                 6.4240

                     16                     17                     18
                      A                      A                      A
 Frequencies --    519.4389               581.0767               643.6100
 Red. masses --      5.6513                 5.2452                 2.3485
 Frc consts  --      0.8984                 1.0435                 0.5732
 IR Inten    --      2.1888                 0.1071                 4.6102

                     19                     20                     21
                      A                      A                      A
 Frequencies --    657.3574               686.0499               712.7440
 Red. masses --      2.9630                 3.6365                 1.8972
 Frc consts  --      0.7544                 1.0084                 0.5678
 IR Inten    --      0.8801                 7.0614                 0.5048

                     22                     23                     24
                      A                      A                      A
 Frequencies --    759.5074               793.3075               811.9403
 Red. masses --      1.7709                 1.4264                 1.8095
 Frc consts  --      0.6019                 0.5289                 0.7029
 IR Inten    --      1.1878                 0.3813                 2.4103

                     25                     26                     27
                      A                      A                      A
 Frequencies --    838.7110               869.1273               874.9236
 Red. masses --      2.0247                 1.9877                 1.8408
 Frc consts  --      0.8391                 0.8847                 0.8302
 IR Inten    --      4.8213                 4.8464                 1.2644

                     28                     29                     30
                      A                      A                      A
 Frequencies --    903.0970               911.5285               939.9789
 Red. masses --      2.7659                 2.2409                 2.1812
 Frc consts  --      1.3291                 1.0970                 1.1355
 IR Inten    --      1.3822                 1.5804                16.7219

                     31                     32                     33
                      A                      A                      A
 Frequencies --    955.3280               973.6830               980.6279
 Red. masses --      2.4092                 2.2459                 2.8206
 Frc consts  --      1.2955                 1.2545                 1.5981
 IR Inten    --      0.9816                 3.2127                 4.0017

                     34                     35                     36
                      A                      A                      A
 Frequencies --    996.9717              1042.3336              1057.8276
 Red. masses --      2.3308                 1.7491                 2.5820
 Frc consts  --      1.3649                 1.1197                 1.7023
 IR Inten    --      7.9813                 0.2670                 0.1257

                     37                     38                     39
                      A                      A                      A
 Frequencies --   1072.7233              1087.0715              1097.1428
 Red. masses --      1.6942                 1.1208                 2.1166
 Frc consts  --      1.1486                 0.7803                 1.5011
 IR Inten    --     27.3006                 1.2829                11.1211

                     40                     41                     42
                      A                      A                      A
 Frequencies --   1121.8832              1176.8545              1204.7141
 Red. masses --      2.0785                 3.8481                 2.2897
 Frc consts  --      1.5414                 3.1401                 1.9580
 IR Inten    --     19.4073                 2.8805                 3.7009

                     43                     44                     45
                      A                      A                      A
 Frequencies --   1215.3359              1222.5193              1244.3982
 Red. masses --      1.3137                 1.3774                 1.4348
 Frc consts  --      1.1432                 1.2129                 1.3090
 IR Inten    --      3.2756                10.4096                 7.7643

                     46                     47                     48
                      A                      A                      A
 Frequencies --   1251.7755              1270.6656              1272.6479
 Red. masses --      1.4910                 1.3480                 1.2825
 Frc consts  --      1.3765                 1.2823                 1.2238
 IR Inten    --      4.6043                 5.8473                 3.2909

                     49                     50                     51
                      A                      A                      A
 Frequencies --   1283.6364              1295.3361              1303.2937
 Red. masses --      1.2018                 1.4414                 1.4302
 Frc consts  --      1.1667                 1.4250                 1.4313
 IR Inten    --      2.6316                 3.0900                13.9751

                     52                     53                     54
                      A                      A                      A
 Frequencies --   1316.4641              1331.7450              1343.5034
 Red. masses --      1.4590                 1.3441                 1.3513
 Frc consts  --      1.4898                 1.4045                 1.4371
 IR Inten    --     21.1129                 3.1545                11.3001

                     55                     56                     57
                      A                      A                      A
 Frequencies --   1362.5405              1372.1454              1405.0993
 Red. masses --      1.3886                 1.4005                 1.7390
 Frc consts  --      1.5189                 1.5536                 2.0229
 IR Inten    --      3.6985                 2.3734                11.7204

                     58                     59                     60
                      A                      A                      A
 Frequencies --   1429.0981              1500.8760              1504.6146
 Red. masses --      1.5870                 1.0873                 1.0836
 Frc consts  --      1.9097                 1.4431                 1.4453
 IR Inten    --     10.5983                 1.4340                 2.1625

                     61                     62                     63
                      A                      A                      A
 Frequencies --   1513.4961              1519.8754              1520.2710
 Red. masses --      1.0820                 1.0897                 1.0857
 Frc consts  --      1.4603                 1.4831                 1.4784
 IR Inten    --      1.4713                 2.2839                 2.3672

                     64                     65                     66
                      A                      A                      A
 Frequencies --   1522.8596              1544.4410              1546.3955
 Red. masses --      1.0883                 1.1184                 1.1069
 Frc consts  --      1.4870                 1.5718                 1.5596
 IR Inten    --      0.1203                 1.8987                 0.7579

                     67                     68                     69
                      A                      A                      A
 Frequencies --   2350.6150              3026.3375              3045.6455
 Red. masses --     12.6864                 1.0640                 1.0606
 Frc consts  --     41.3001                 5.7417                 5.7964
 IR Inten    --     18.4331                15.3795                33.5197

                     70                     71                     72
                      A                      A                      A
 Frequencies --   3065.7040              3070.2982              3074.8744
 Red. masses --      1.0696                 1.0930                 1.0627
 Frc consts  --      5.9226                 6.0706                 5.9202
 IR Inten    --     29.4821                11.9146                26.5694

                     73                     74                     75
                      A                      A                      A
 Frequencies --   3082.8861              3085.2654              3089.1141
 Red. masses --      1.0808                 1.0586                 1.0831
 Frc consts  --      6.0520                 5.9368                 6.0895
 IR Inten    --     41.4608                33.2182                38.6655

                     76                     77                     78
                      A                      A                      A
 Frequencies --   3102.3958              3105.8980              3107.9344
 Red. masses --      1.0634                 1.0662                 1.1032
 Frc consts  --      6.0302                 6.0599                 6.2782
 IR Inten    --     43.6538                 8.6791                 6.9151

                     79                     80                     81
                      A                      A                      A
 Frequencies --   3123.6189              3131.9839              3135.1985
 Red. masses --      1.1040                 1.1096                 1.1048
 Frc consts  --      6.3464                 6.4132                 6.3983
 IR Inten    --      9.1265                16.4953                58.8179

                     82                     83                     84
                      A                      A                      A
 Frequencies --   3173.9475              3182.5144              3725.2327
 Red. masses --      1.1028                 1.1024                 1.0658
 Frc consts  --      6.5453                 6.5785                 8.7147
 IR Inten    --     13.3343                 9.2340                 9.1843

 - Thermochemistry -
 -------------------
 Temperature   298.150 Kelvin.  Pressure   1.00000 Atm.
 Atom     1 has atomic number  6 and mass  12.00000

 Molecular mass:   179.13101 amu.
 Principal axes and moments of inertia in atomic units:
                           1         2         3
     Eigenvalues --  1145.779053695.015444115.59503
           X            0.99967  -0.02459  -0.00674
           Y            0.02444   0.99947  -0.02168
           Z            0.00727   0.02151   0.99974
 This molecule is an asymmetric top.
 Rotational symmetry number  1.
 Warning -- assumption of classical behavior for rotation
           may cause significant error
 Rotational temperatures (Kelvin)      0.07559     0.02344     0.02105
 Rotational constants (GHZ):           1.57512     0.48843     0.43851
 Zero-point vibrational energy     696879.2 (Joules/Mol)
                                  166.55812 (Kcal/Mol)
 Warning -- explicit consideration of  17 degrees of freedom as
           vibrations may cause significant error
 Vibrational temperatures:     33.94   104.21   135.52   168.44   172.58
          (Kelvin)            260.88   277.73   306.29   379.56   401.70
                              474.64   517.62   536.58   581.11   637.49
                              747.36   836.04   926.01   945.79   987.07
                             1025.48  1092.76  1141.39  1168.20  1206.72
                             1250.48  1258.82  1299.36  1311.49  1352.42
                             1374.50  1400.91  1410.90  1434.42  1499.69
                             1521.98  1543.41  1564.05  1578.54  1614.14
                             1693.23  1733.31  1748.60  1758.93  1790.41
                             1801.03  1828.20  1831.06  1846.87  1863.70
                             1875.15  1894.10  1916.08  1933.00  1960.39
                             1974.21  2021.62  2056.15  2159.43  2164.80
                             2177.58  2186.76  2187.33  2191.06  2222.11
                             2224.92  3382.01  4354.22  4382.00  4410.86
                             4417.47  4424.06  4435.59  4439.01  4444.55
                             4463.66  4468.69  4471.62  4494.19  4506.23
                             4510.85  4566.60  4578.93  5359.78

 Zero-point correction=                           0.265427 (Hartree/Particle)
 Thermal correction to Energy=                    0.278385
 Thermal correction to Enthalpy=                  0.279329
 Thermal correction to Gibbs Free Energy=         0.225525
 Sum of electronic and zero-point Energies=           -559.122738
 Sum of electronic and thermal Energies=              -559.109781
 Sum of electronic and thermal Enthalpies=            -559.108836
 Sum of electronic and thermal Free Energies=         -559.162640

                     E (Thermal)             CV                S
                      KCal/Mol        Cal/Mol-Kelvin    Cal/Mol-Kelvin
 Total                  174.689             49.904            113.239
 Electronic               0.000              0.000              0.000
 Translational            0.889              2.981             41.456
 Rotational               0.889              2.981             31.233
 Vibrational            172.911             43.942             40.551
 Vibration     1          0.593              1.985              6.307
 Vibration     2          0.599              1.967              4.086
 Vibration     3          0.603              1.953              3.571
 Vibration     4          0.608              1.935              3.148
 Vibration     5          0.609              1.933              3.101
 Vibration     6          0.630              1.865              2.315
 Vibration     7          0.635              1.850              2.199
 Vibration     8          0.644              1.821              2.019
 Vibration     9          0.670              1.739              1.636
 Vibration    10          0.680              1.712              1.539
 Vibration    11          0.713              1.616              1.261
 Vibration    12          0.734              1.555              1.123
 Vibration    13          0.744              1.528              1.068
 Vibration    14          0.769              1.462              0.948
 Vibration    15          0.803              1.376              0.817
 Vibration    16          0.874              1.207              0.611
 Vibration    17          0.938              1.072              0.483

 Optimization completed.
    -- Stationary point found.
 Normal termination of Gaussian 16 at Wed Dec  9 23:06:28 2020.

 ----------------------------------------------------------------------
 # B3LYP/6-311++G(d,p) empiricaldispersion=gd3bj scf=xqc pop=npa geom=c
 heck
 ----------------------------------------------------------------------

 ---------------------------------------
 CID_130513704_JID_3319_Energie_neutraal
 ---------------------------------------
 Structure from the checkpoint file:  "JID_3319.chk"
 Charge =  0 Multiplicity = 1

 SCF Done:  E(RB3LYP) =  -559.548930587     A.U. after   14 cycles
 Normal termination of Gaussian 16 at Wed Dec  9 23:10:13 2020.

 ----------------------------------------------------------------------
 # B3LYP/6-311++G(d,p) empiricaldispersion=gd3bj scf=xqc pop=npa geom=c
 heck
 ----------------------------------------------------------------------

 -------------------------------------
 CID_130513704_JID_3319_Energie_kation
 -------------------------------------
 Structure from the checkpoint file:  "JID_3319.chk"
 Charge =  1 Multiplicity = 2

 SCF Done:  E(UB3LYP) =  -559.193921764     A.U. after   27 cycles
 Normal termination of Gaussian 16 at Wed Dec  9 23:20:36 2020.
 Gaussian 16:  ES64L-G16RevA.03 25-Dec-2016

 ----------------------------------------------------------------------
 # B3LYP/6-311++G(d,p) empiricaldispersion=gd3bj scf=xqc pop=npa geom=c
 heck
 ----------------------------------------------------------------------

 ------------------------------------
 CID_130513704_JID_3319_Energie_anion
 ------------------------------------
 Structure from the checkpoint file:  "JID_3319.chk"
 Charge = -1 Multiplicity = 2

                         Standard orientation:
 ---------------------------------------------------------------------
 Center     Atomic      Atomic             Coordinates (Angstroms)
 Number     Number       Type             X           Y           Z
 ---------------------------------------------------------------------
      1          6           0        3.065917    1.009238   -0.458836
      2          6           0        3.524217   -0.414133   -0.033924
      3          6           0        2.276307   -1.297671   -0.194783
      4          6           0        1.103538   -0.348160    0.127744
      5          6           0        1.524120    0.935815   -0.604754
      6          6           0       -0.244812   -0.979093   -0.255955
      7          6           0       -1.547184   -0.162375   -0.096412
      8          6           0       -1.777699    0.790414    1.132466
      9          6           0       -2.472821    1.798952    0.185896
     10          6           0       -1.821826    1.077460   -1.020170
     11          6           0       -2.670629   -1.099350   -0.211869
     12          7           0       -3.556006   -1.846335   -0.301228
     13          8           0        1.143389   -0.014324    1.527600
     14          1           0        3.350345    1.747107    0.295895
     15          1           0        3.529335    1.319802   -1.400538
     16          1           0        3.836731   -0.407873    1.013824
     17          1           0        4.367807   -0.780684   -0.626328
     18          1           0        2.278570   -2.182379    0.454205
     19          1           0        2.180655   -1.653880   -1.228422
     20          1           0        1.240999    0.851338   -1.659690
     21          1           0        1.021434    1.814151   -0.191981
     22          1           0       -0.189404   -1.310322   -1.300897
     23          1           0       -0.346157   -1.898178    0.338609
     24          1           0       -2.359993    0.379707    1.961369
     25          1           0       -0.820013    1.147905    1.508136
     26          1           0       -2.229372    2.855900    0.321917
     27          1           0       -3.560450    1.683574    0.188533
     28          1           0       -0.887104    1.547263   -1.325932
     29          1           0       -2.436611    0.895174   -1.905230
     30          1           0        1.013407   -0.836251    2.027910
 ---------------------------------------------------------------------

 SCF Done:  E(UB3LYP) =  -559.539062540     A.U. after   32 cycles

 The electronic state is 2-A.
 Alpha  occ. eigenvalues --  -19.01576 -14.21317 -10.12742 -10.12719 -10.11108
 Alpha  occ. eigenvalues --  -10.08559 -10.08129 -10.08088 -10.07986 -10.06141
 Alpha  occ. eigenvalues --  -10.05941 -10.05919 -10.05794  -0.92145  -0.81477
 Alpha  occ. eigenvalues --   -0.77006  -0.72632  -0.66490  -0.61155  -0.60387
 Alpha  occ. eigenvalues --   -0.57771  -0.54272  -0.49480  -0.47439  -0.46055
 Alpha  occ. eigenvalues --   -0.40848  -0.40133  -0.38195  -0.36758  -0.36045
 Alpha  occ. eigenvalues --   -0.34489  -0.33792  -0.32087  -0.31291  -0.28780
 Alpha  occ. eigenvalues --   -0.27598  -0.26685  -0.26365  -0.25354  -0.24888
 Alpha  occ. eigenvalues --   -0.24605  -0.24079  -0.23609  -0.23160  -0.22470
 Alpha  occ. eigenvalues --   -0.21287  -0.21084  -0.20522  -0.17021   0.04326
 Alpha virt. eigenvalues --    0.06887   0.07192   0.07984   0.08817   0.09208
 Alpha virt. eigenvalues --    0.09545   0.10332   0.10560   0.11398   0.11906
 Alpha virt. eigenvalues --    0.12107   0.12260   0.12656   0.13016   0.13575

  Beta  occ. eigenvalues --  -19.01527 -14.21312 -10.12742 -10.12718 -10.11108
  Beta  occ. eigenvalues --  -10.08542 -10.08119 -10.08063 -10.07969 -10.06109
  Beta  occ. eigenvalues --  -10.05906 -10.05900 -10.05777  -0.92042  -0.81466
  Beta  occ. eigenvalues --   -0.76990  -0.72584  -0.66452  -0.61090  -0.60351
  Beta  occ. eigenvalues --   -0.57732  -0.54218  -0.49443  -0.47355  -0.45977
  Beta  occ. eigenvalues --   -0.40807  -0.40081  -0.38142  -0.36706  -0.36004
  Beta  occ. eigenvalues --   -0.34454  -0.33748  -0.32053  -0.31270  -0.28745
  Beta  occ. eigenvalues --   -0.27583  -0.26657  -0.26333  -0.25320  -0.24843
  Beta  occ. eigenvalues --   -0.24575  -0.24058  -0.23561  -0.23120  -0.22436
  Beta  occ. eigenvalues --   -0.21252  -0.21064  -0.20473  -0.16971
  Beta virt. eigenvalues --    0.06714   0.07548   0.08170   0.08437   0.09290
  Beta virt. eigenvalues --    0.09638   0.09806   0.10877   0.10933   0.11679
  Beta virt. eigenvalues --    0.12116   0.12318   0.12406   0.12920   0.13228

 Mulliken charges and spin densities:
               1          2
     1  C    0.915038  -1.468173
     2  C   -0.482164   0.192252
     3  C    1.438236  -1.928072
     4  C   -2.767937   3.571144
     5  C    0.470046  -0.838764
     6  C    2.173024  -3.871143
     7  C    0.788883   1.842953
     8  C   -1.175486   0.582422
     9  C    0.586958  -0.967592
    10  C   -0.806381   0.359337
    11  C    0.484150  -1.720841
    12  N   -0.314465   0.075559
    13  O   -0.133935   0.012253
    14  H   -0.074660   0.221647
    15  H   -0.240455   0.385163
    16  H    0.078457   0.071953
    17  H   -0.212365   0.370588
    18  H   -0.383470   0.550276
    19  H   -0.130674   0.267162
    20  H   -0.580896   0.764467
    21  H    0.440674  -0.299391
    22  H   -0.094652   0.313096
    23  H   -0.014227   0.249177
    24  H   -0.140623   0.320490
    25  H   -0.064418   0.287447
    26  H   -0.227021   0.385155
    27  H    0.240381  -0.099902
    28  H   -0.356281   0.509553
    29  H   -0.116090   0.301320
    30  H   -0.299648   0.560466
 Sum of Mulliken charges =  -1.00000   1.00000

 Dipole moment (field-independent basis, Debye):
    X=             -1.6568    Y=              2.7986    Z=              0.7595  Tot=              3.3397
 Quadrupole moment (field-independent basis, Debye-Ang):
   XX=           -142.1918   YY=           -121.1709   ZZ=           -121.9147
   XY=             -6.7093   XZ=              1.9000   YZ=              3.7841

 Summary of Natural Population Analysis:

                                       Natural Population
                Natural  -----------------------------------------------
    Atom  No    Charge         Core      Valence    Rydberg      Total
 -----------------------------------------------------------------------
      C    1   -0.18959      0.99965     2.18236    0.00759     3.18959
      C    2   -0.19059      0.99964     2.18369    0.00726     3.19059
      C    3   -0.19793      0.99958     2.18912    0.00923     3.19793
      C    4    0.13433      0.99950     1.84915    0.01702     2.86567
      C    5   -0.20019      0.99957     2.19102    0.00960     3.20019
      C    6   -0.19397      0.99954     2.18253    0.01191     3.19397
      C    7   -0.08637      0.99950     2.07330    0.01358     3.08637
      C    8   -0.17852      0.99961     2.17016    0.00875     3.17852
      C    9   -0.19225      0.99964     2.18556    0.00704     3.19225
      C   10   -0.17629      0.99961     2.16806    0.00862     3.17629
      C   11    0.17078      0.99962     1.80894    0.02066     2.82922
      N   12   -0.19304      0.99979     2.68149    0.01176     3.69304
      O   13   -0.38321      0.99989     3.37580    0.00752     4.38321
      H   14    0.09814      0.00000     0.40082    0.00105     0.40186
      H   15    0.09799      0.00000     0.40071    0.00130     0.40201
      H   16    0.09929      0.00000     0.39920    0.00152     0.40071
      H   17    0.09830      0.00000     0.40048    0.00121     0.40170
      H   18    0.10307      0.00000     0.39500    0.00193     0.39693
      H   19    0.10123      0.00000     0.39685    0.00192     0.39877
      H   20    0.10282      0.00000     0.39487    0.00232     0.39718
      H   21    0.10385      0.00000     0.39452    0.00162     0.39615
      H   22    0.10974      0.00000     0.38819    0.00207     0.39026
      H   23    0.10647      0.00000     0.39118    0.00235     0.39353
      H   24    0.10009      0.00000     0.39870    0.00121     0.39991
      H   25    0.11914      0.00000     0.37915    0.00171     0.38086
      H   26    0.09759      0.00000     0.40141    0.00101     0.40241
      H   27    0.09658      0.00000     0.40217    0.00125     0.40342
      H   28    0.10798      0.00000     0.39032    0.00170     0.39202
      H   29    0.10070      0.00000     0.39797    0.00133     0.39930
      H   30    0.23387      0.00000     0.25899    0.00714     0.26613
 =======================================================================
   * Total *   -0.00000     12.99514    35.83171    0.17315    49.00000

 Normal termination of Gaussian 16 at Wed Dec  9 23:32:39 2020.
