 Gaussian 16, Revision A.03,

 -----------------------------------------------------------
 # opt freq B3LYP/6-31G(d) empiricaldispersion=gd3bj scf=xqc
 -----------------------------------------------------------

 ------------------------------
 CID_55159024_JID_9614_neutraal
 ------------------------------
 Symbolic Z-matrix:
 Charge =  0 Multiplicity = 1

 SCF Done:  E(RB3LYP) =  -858.511476565     A.U. after   15 cycles
 SCF Done:  E(RB3LYP) =  -858.519898674     A.U. after   14 cycles
 SCF Done:  E(RB3LYP) =  -858.520384305     A.U. after   13 cycles
 SCF Done:  E(RB3LYP) =  -858.521031505     A.U. after   12 cycles
 SCF Done:  E(RB3LYP) =  -858.521140321     A.U. after   11 cycles
 SCF Done:  E(RB3LYP) =  -858.521242894     A.U. after   12 cycles
 SCF Done:  E(RB3LYP) =  -858.521278993     A.U. after   11 cycles
 SCF Done:  E(RB3LYP) =  -858.521301440     A.U. after   11 cycles
 SCF Done:  E(RB3LYP) =  -858.521316996     A.U. after   10 cycles
 SCF Done:  E(RB3LYP) =  -858.521322211     A.U. after   10 cycles
 SCF Done:  E(RB3LYP) =  -858.521340202     A.U. after    8 cycles
 SCF Done:  E(RB3LYP) =  -858.521340665     A.U. after    8 cycles
 SCF Done:  E(RB3LYP) =  -858.521341127     A.U. after    9 cycles
 SCF Done:  E(RB3LYP) =  -858.521341459     A.U. after    8 cycles
 SCF Done:  E(RB3LYP) =  -858.521341550     A.U. after    8 cycles
 Optimization completed.
    -- Stationary point found.
 Normal termination of Gaussian 16 at Sun Dec 13 20:41:40 2020.

 --------------------------------------------------------------------
 #N Geom=AllCheck Guess=TCheck SCRF=Check GenChk RB3LYP/6-31G(d) Freq
 --------------------------------------------------------------------

 Structure from the checkpoint file:  "JID_9614.chk"
 ------------------------------
 CID_55159024_JID_9614_neutraal
 ------------------------------
 Charge =  0 Multiplicity = 1

 SCF Done:  E(RB3LYP) =  -858.521341550     A.U. after    1 cycles

  Exact polarizability: 234.122   1.601 166.213   6.365   2.626 115.715
 Approx polarizability: 298.132  -2.551 278.381  10.846   0.256 185.120

                      1                      2                      3
                      A                      A                      A
 Frequencies --     18.8687                32.0153                39.2936
 Red. masses --      4.4778                 4.0092                 8.3251
 Frc consts  --      0.0009                 0.0024                 0.0076
 IR Inten    --      1.5393                 0.9737                 0.5837

                      4                      5                      6
                      A                      A                      A
 Frequencies --     65.2083                96.9166               106.2727
 Red. masses --      4.7098                 3.5752                 4.0847
 Frc consts  --      0.0118                 0.0198                 0.0272
 IR Inten    --      0.0860                 0.1534                 0.1843

                      7                      8                      9
                      A                      A                      A
 Frequencies --    130.9084               143.5542               154.5166
 Red. masses --      2.0494                 8.6723                 6.3825
 Frc consts  --      0.0207                 0.1053                 0.0898
 IR Inten    --      3.2473                 5.7051                 0.4546

                     10                     11                     12
                      A                      A                      A
 Frequencies --    177.1446               252.4169               258.1425
 Red. masses --      3.4041                 3.8705                 1.6510
 Frc consts  --      0.0629                 0.1453                 0.0648
 IR Inten    --      7.4682                 7.9500                 0.1726

                     13                     14                     15
                      A                      A                      A
 Frequencies --    280.3567               326.3427               353.4118
 Red. masses --      4.9594                 4.8675                 2.7347
 Frc consts  --      0.2297                 0.3054                 0.2012
 IR Inten    --      4.0126                 5.6856                26.5638

                     16                     17                     18
                      A                      A                      A
 Frequencies --    392.0835               423.5210               452.4274
 Red. masses --      8.8766                 3.3367                 3.6579
 Frc consts  --      0.8040                 0.3526                 0.4411
 IR Inten    --     20.1796                 0.2629                 3.7046

                     19                     20                     21
                      A                      A                      A
 Frequencies --    478.2337               497.3523               539.2603
 Red. masses --      2.9061                 2.6013                 2.5074
 Frc consts  --      0.3916                 0.3791                 0.4296
 IR Inten    --     23.3065                97.8941                15.3970

                     22                     23                     24
                      A                      A                      A
 Frequencies --    560.7703               585.6743               588.7643
 Red. masses --      2.7002                 3.9423                 1.8444
 Frc consts  --      0.5003                 0.7967                 0.3767
 IR Inten    --      7.8941                 5.6200                 1.2259

                     25                     26                     27
                      A                      A                      A
 Frequencies --    607.6522               632.9693               650.3010
 Red. masses --      4.9443                 8.4964                 4.2842
 Frc consts  --      1.0756                 2.0056                 1.0675
 IR Inten    --     15.7776                 4.8495                16.8774

                     28                     29                     30
                      A                      A                      A
 Frequencies --    663.2889               683.3774               720.6082
 Red. masses --      3.8819                 1.4346                 4.0658
 Frc consts  --      1.0062                 0.3947                 1.2439
 IR Inten    --     21.8915               114.4216                 2.1501

                     31                     32                     33
                      A                      A                      A
 Frequencies --    754.3598               774.0287               802.9354
 Red. masses --      3.9803                 3.0535                 1.3971
 Frc consts  --      1.3345                 1.0779                 0.5307
 IR Inten    --     12.7206                 1.3780                 2.4914

                     34                     35                     36
                      A                      A                      A
 Frequencies --    811.8661               821.0203               859.8016
 Red. masses --      2.6412                 1.8203                 2.9126
 Frc consts  --      1.0257                 0.7229                 1.2686
 IR Inten    --      3.6076                47.4413                 4.3615

                     37                     38                     39
                      A                      A                      A
 Frequencies --    886.0752               894.4371               895.1503
 Red. masses --      1.8682                 2.1317                 2.1845
 Frc consts  --      0.8642                 1.0048                 1.0313
 IR Inten    --      2.7924                11.9489                 0.6320

                     40                     41                     42
                      A                      A                      A
 Frequencies --    915.8029               925.6792               931.3907
 Red. masses --      1.3041                 1.3415                 2.4568
 Frc consts  --      0.6444                 0.6773                 1.2557
 IR Inten    --      0.2347                 0.5178                 0.6680

                     43                     44                     45
                      A                      A                      A
 Frequencies --    945.8799               985.8645               994.1298
 Red. masses --      1.5346                 2.8952                 3.9823
 Frc consts  --      0.8090                 1.6579                 2.3188
 IR Inten    --      1.0623                10.4749                17.5229

                     46                     47                     48
                      A                      A                      A
 Frequencies --   1004.3196              1028.7003              1046.5005
 Red. masses --      1.4785                 2.7096                 2.9294
 Frc consts  --      0.8787                 1.6894                 1.8902
 IR Inten    --      2.0202                 0.7259                14.2114

                     49                     50                     51
                      A                      A                      A
 Frequencies --   1064.5900              1159.9895              1167.4242
 Red. masses --      1.8146                 2.0258                 1.6358
 Frc consts  --      1.2117                 1.6061                 1.3135
 IR Inten    --      0.0057                37.9803                 2.1535

                     52                     53                     54
                      A                      A                      A
 Frequencies --   1170.2898              1180.9842              1189.9034
 Red. masses --      1.7694                 2.2640                 1.3811
 Frc consts  --      1.4278                 1.8604                 1.1521
 IR Inten    --     41.0416                98.1951                 4.5153

                     55                     56                     57
                      A                      A                      A
 Frequencies --   1191.8801              1213.6915              1232.5788
 Red. masses --      1.3603                 1.4178                 2.2532
 Frc consts  --      1.1385                 1.2305                 2.0169
 IR Inten    --     32.2613                 3.0800                30.1074

                     58                     59                     60
                      A                      A                      A
 Frequencies --   1236.7160              1266.4393              1274.7881
 Red. masses --      1.2639                 1.2362                 1.5749
 Frc consts  --      1.1389                 1.1681                 1.5079
 IR Inten    --      6.2842                11.2957                21.4758

                     61                     62                     63
                      A                      A                      A
 Frequencies --   1284.2020              1299.3237              1302.0744
 Red. masses --      1.4357                 2.5724                 1.4493
 Frc consts  --      1.3950                 2.5587                 1.4477
 IR Inten    --     19.0201               117.5079                19.3739

                     64                     65                     66
                      A                      A                      A
 Frequencies --   1332.1242              1341.3938              1352.8953
 Red. masses --      2.8627                 1.5561                 1.8039
 Frc consts  --      2.9931                 1.6497                 1.9453
 IR Inten    --    139.8670                24.9367                23.5072

                     67                     68                     69
                      A                      A                      A
 Frequencies --   1360.1490              1367.0926              1373.0844
 Red. masses --      2.3012                 1.2787                 1.9568
 Frc consts  --      2.5083                 1.4080                 2.1737
 IR Inten    --     67.0291                 0.1356                52.8868

                     70                     71                     72
                      A                      A                      A
 Frequencies --   1396.7519              1402.1280              1410.8486
 Red. masses --      1.6840                 1.6375                 1.6655
 Frc consts  --      1.9356                 1.8967                 1.9533
 IR Inten    --     11.9210                 3.4799                 2.2408

                     73                     74                     75
                      A                      A                      A
 Frequencies --   1428.6498              1478.1206              1493.7134
 Red. masses --      3.6266                 2.3291                 1.0987
 Frc consts  --      4.3612                 2.9981                 1.4443
 IR Inten    --    223.6625                 4.8472                12.7211

                     76                     77                     78
                      A                      A                      A
 Frequencies --   1519.4686              1528.2468              1532.4107
 Red. masses --      1.0921                 1.1089                 1.5780
 Frc consts  --      1.4855                 1.5259                 2.1833
 IR Inten    --      2.3835                15.1458                 6.6679

                     79                     80                     81
                      A                      A                      A
 Frequencies --   1556.9192              1564.5074              1582.2332
 Red. masses --      1.0841                 1.2894                 2.0261
 Frc consts  --      1.5483                 1.8595                 2.9885
 IR Inten    --      4.7864               233.6101               257.5406

                     82                     83                     84
                      A                      A                      A
 Frequencies --   1629.5489              1693.8310              1844.6249
 Red. masses --      5.1153                 5.8897                 9.9257
 Frc consts  --      8.0030                 9.9559                19.8988
 IR Inten    --      8.9283                26.5637               699.9053

                     85                     86                     87
                      A                      A                      A
 Frequencies --   1884.7974              2968.1991              2988.2098
 Red. masses --     12.8412                 1.0730                 1.0707
 Frc consts  --     26.8773                 5.5698                 5.6329
 IR Inten    --     54.7817                81.0178                69.0685

                     88                     89                     90
                      A                      A                      A
 Frequencies --   3038.8324              3049.2710              3064.7552
 Red. masses --      1.0916                 1.0860                 1.0846
 Frc consts  --      5.9391                 5.9493                 6.0022
 IR Inten    --     27.9152                19.0874                18.9463

                     91                     92                     93
                      A                      A                      A
 Frequencies --   3066.1833              3070.4022              3101.0583
 Red. masses --      1.0711                 1.0639                 1.0619
 Frc consts  --      5.9330                 5.9095                 6.0164
 IR Inten    --     24.9544                63.0624                 4.2170

                     94                     95                     96
                      A                      A                      A
 Frequencies --   3117.5960              3125.8014              3145.8602
 Red. masses --      1.0983                 1.1053                 1.1037
 Frc consts  --      6.2895                 6.3629                 6.4353
 IR Inten    --     44.8468                44.3386                 5.7949

                     97                     98                     99
                      A                      A                      A
 Frequencies --   3175.9596              3213.3007              3217.0345
 Red. masses --      1.0887                 1.0866                 1.0913
 Frc consts  --      6.4699                 6.6102                 6.6541
 IR Inten    --     21.5847                20.7446                17.6561

                    100                    101                    102
                      A                      A                      A
 Frequencies --   3232.9347              3576.0882              3600.5694
 Red. masses --      1.0916                 1.0754                 1.0787
 Frc consts  --      6.7219                 8.1030                 8.2390
 IR Inten    --     14.5797                 9.8281                43.6234

 - Thermochemistry -
 -------------------
 Temperature   298.150 Kelvin.  Pressure   1.00000 Atm.
 Atom     1 has atomic number  6 and mass  12.00000

 Molecular mass:   259.13208 amu.
 Principal axes and moments of inertia in atomic units:
                           1         2         3
     Eigenvalues --  2106.55003********************
           X            0.99995   0.00915   0.00480
           Y           -0.00929   0.99950   0.03024
           Z           -0.00452  -0.03028   0.99953
 This molecule is an asymmetric top.
 Rotational symmetry number  1.
 Warning -- assumption of classical behavior for rotation
           may cause significant error
 Rotational temperatures (Kelvin)      0.04112     0.00790     0.00731
 Rotational constants (GHZ):           0.85673     0.16470     0.15236
 Zero-point vibrational energy     791031.1 (Joules/Mol)
                                  189.06096 (Kcal/Mol)
 Warning -- explicit consideration of  25 degrees of freedom as
           vibrations may cause significant error
 Vibrational temperatures:     27.15    46.06    56.53    93.82   139.44
          (Kelvin)            152.90   188.35   206.54   222.31   254.87
                              363.17   371.41   403.37   469.53   508.48
                              564.12   609.35   650.94   688.07   715.58
                              775.88   806.82   842.65   847.10   874.28
                              910.70   935.64   954.32   983.23  1036.79
                             1085.36  1113.65  1155.24  1168.09  1181.27
                             1237.06  1274.86  1286.90  1287.92  1317.64
                             1331.85  1340.06  1360.91  1418.44  1430.33
                             1444.99  1480.07  1505.68  1531.71  1668.97
                             1679.66  1683.79  1699.17  1712.01  1714.85
                             1746.23  1773.41  1779.36  1822.12  1834.14
                             1847.68  1869.44  1873.39  1916.63  1929.97
                             1946.51  1956.95  1966.94  1975.56  2009.61
                             2017.35  2029.90  2055.51  2126.69  2149.12
                             2186.18  2198.81  2204.80  2240.06  2250.98
                             2276.48  2344.56  2437.05  2654.00  2711.80
                             4270.58  4299.37  4372.20  4387.22  4409.50
                             4411.55  4417.62  4461.73  4485.53  4497.33
                             4526.19  4569.50  4623.22  4628.60  4651.47
                             5145.19  5180.42

 Zero-point correction=                           0.301288 (Hartree/Particle)
 Thermal correction to Energy=                    0.317937
 Thermal correction to Enthalpy=                  0.318881
 Thermal correction to Gibbs Free Energy=         0.254654
 Sum of electronic and zero-point Energies=           -858.220054
 Sum of electronic and thermal Energies=              -858.203405
 Sum of electronic and thermal Enthalpies=            -858.202460
 Sum of electronic and thermal Free Energies=         -858.266688

                     E (Thermal)             CV                S
                      KCal/Mol        Cal/Mol-Kelvin    Cal/Mol-Kelvin
 Total                  199.508             64.330            135.177
 Electronic               0.000              0.000              0.000
 Translational            0.889              2.981             42.556
 Rotational               0.889              2.981             33.969
 Vibrational            197.731             58.368             58.652
 Vibration     1          0.593              1.986              6.750
 Vibration     2          0.594              1.983              5.700
 Vibration     3          0.594              1.981              5.294
 Vibration     4          0.597              1.971              4.293
 Vibration     5          0.603              1.951              3.515
 Vibration     6          0.605              1.944              3.336
 Vibration     7          0.612              1.922              2.933
 Vibration     8          0.616              1.910              2.756
 Vibration     9          0.620              1.898              2.616
 Vibration    10          0.628              1.870              2.358
 Vibration    11          0.664              1.759              1.714
 Vibration    12          0.667              1.749              1.674
 Vibration    13          0.680              1.710              1.531
 Vibration    14          0.710              1.623              1.278
 Vibration    15          0.730              1.568              1.151
 Vibration    16          0.760              1.487              0.992
 Vibration    17          0.786              1.419              0.880
 Vibration    18          0.811              1.356              0.788
 Vibration    19          0.835              1.298              0.715
 Vibration    20          0.853              1.256              0.665
 Vibration    21          0.894              1.163              0.567
 Vibration    22          0.916              1.116              0.522
 Vibration    23          0.943              1.062              0.475
 Vibration    24          0.946              1.056              0.469
 Vibration    25          0.966              1.016              0.437

 Optimization completed.
    -- Stationary point found.
 Normal termination of Gaussian 16 at Sun Dec 13 20:56:42 2020.

 ----------------------------------------------------------------------
 # B3LYP/6-311++G(d,p) empiricaldispersion=gd3bj scf=xqc pop=npa geom=c
 heck
 ----------------------------------------------------------------------

 --------------------------------------
 CID_55159024_JID_9614_Energie_neutraal
 --------------------------------------
 Structure from the checkpoint file:  "JID_9614.chk"
 Charge =  0 Multiplicity = 1

 SCF Done:  E(RB3LYP) =  -858.762361810     A.U. after   15 cycles
 Normal termination of Gaussian 16 at Sun Dec 13 21:03:43 2020.

 ----------------------------------------------------------------------
 # B3LYP/6-311++G(d,p) empiricaldispersion=gd3bj scf=xqc pop=npa geom=c
 heck
 ----------------------------------------------------------------------

 ------------------------------------
 CID_55159024_JID_9614_Energie_kation
 ------------------------------------
 Structure from the checkpoint file:  "JID_9614.chk"
 Charge =  1 Multiplicity = 2

 SCF Done:  E(UB3LYP) =  -858.524073775     A.U. after   22 cycles
 Normal termination of Gaussian 16 at Sun Dec 13 21:17:54 2020.
 Gaussian 16:  ES64L-G16RevA.03 25-Dec-2016

 ----------------------------------------------------------------------
 # B3LYP/6-311++G(d,p) empiricaldispersion=gd3bj scf=xqc pop=npa geom=c
 heck
 ----------------------------------------------------------------------

 -----------------------------------
 CID_55159024_JID_9614_Energie_anion
 -----------------------------------
 Structure from the checkpoint file:  "JID_9614.chk"
 Charge = -1 Multiplicity = 2

                         Standard orientation:
 ---------------------------------------------------------------------
 Center     Atomic      Atomic             Coordinates (Angstroms)
 Number     Number       Type             X           Y           Z
 ---------------------------------------------------------------------
      1          6           0        5.157667    1.583279   -0.023993
      2          6           0        5.571273    0.189898    0.472592
      3          6           0        4.439628   -0.718149   -0.033097
      4          7           0        3.287645    0.172386   -0.110117
      5          6           0        3.632854    1.564542    0.134607
      6          6           0        1.984785   -0.280763   -0.177154
      7          6           0        0.892515    0.587819   -0.004861
      8          6           0       -0.421579    0.125838   -0.075718
      9          6           0       -0.705077   -1.219542   -0.335539
     10          6           0        0.383903   -2.086193   -0.515276
     11          6           0        1.694090   -1.639037   -0.431119
     12          7           0       -2.009492   -1.757553   -0.468718
     13          6           0       -3.190958   -0.963690   -0.242569
     14          6           0       -3.446374    0.160811   -1.267511
     15          6           0       -3.948253    1.347838   -0.454017
     16          8           0       -4.393192    2.398664   -0.857365
     17          7           0       -3.791080    1.015272    0.893904
     18          6           0       -3.285954   -0.259606    1.133815
     19          8           0       -3.013631   -0.725142    2.216097
     20          1           0        5.627791    2.398583    0.533223
     21          1           0        5.419017    1.700538   -1.082109
     22          1           0        5.594770    0.176426    1.568488
     23          1           0        6.554715   -0.124944    0.112029
     24          1           0        4.677942   -1.150051   -1.018482
     25          1           0        4.248695   -1.555606    0.651334
     26          1           0        3.330450    1.888170    1.145772
     27          1           0        3.130697    2.225902   -0.582902
     28          1           0        1.060594    1.637202    0.208800
     29          1           0       -1.214752    0.842508    0.098895
     30          1           0        0.193091   -3.134117   -0.735312
     31          1           0        2.500826   -2.346949   -0.585367
     32          1           0       -2.083255   -2.667912   -0.031741
     33          1           0       -4.036756   -1.661116   -0.261257
     34          1           0       -4.178166   -0.103577   -2.034235
     35          1           0       -2.524173    0.448232   -1.780952
     36          1           0       -4.007521    1.669535    1.637523
 ---------------------------------------------------------------------

 SCF Done:  E(UB3LYP) =  -858.756527889     A.U. after   33 cycles
 SCF Done:  E(UB3LYP) =  -858.756527889     a.u. after    1 cycles

 The electronic state is 2-A.
 Alpha  occ. eigenvalues --  -19.01603 -19.00802 -14.27004 -14.23192 -14.22684
 Alpha  occ. eigenvalues --  -10.19391 -10.17731 -10.12899 -10.11506 -10.11476
 Alpha  occ. eigenvalues --  -10.11411 -10.10939 -10.09652 -10.08756 -10.08706
 Alpha  occ. eigenvalues --  -10.07631 -10.07590 -10.07553 -10.07402  -0.97247
 Alpha  occ. eigenvalues --   -0.95297  -0.86552  -0.85781  -0.83758  -0.75410
 Alpha  occ. eigenvalues --   -0.70828  -0.68798  -0.66131  -0.64476  -0.62814
 Alpha  occ. eigenvalues --   -0.58635  -0.54159  -0.53191  -0.52151  -0.50919
 Alpha  occ. eigenvalues --   -0.49635  -0.47777  -0.44993  -0.43466  -0.41310
 Alpha  occ. eigenvalues --   -0.40503  -0.39513  -0.38241  -0.36357  -0.35579
 Alpha  occ. eigenvalues --   -0.35282  -0.34395  -0.34260  -0.33019  -0.32813
 Alpha  occ. eigenvalues --   -0.32627  -0.32442  -0.32198  -0.31179  -0.30333
 Alpha  occ. eigenvalues --   -0.28910  -0.27842  -0.26597  -0.26502  -0.25759
 Alpha  occ. eigenvalues --   -0.24972  -0.24639  -0.22518  -0.20133  -0.19534
 Alpha  occ. eigenvalues --   -0.16983  -0.16078  -0.15030  -0.08347   0.03709
 Alpha virt. eigenvalues --    0.04767   0.06444   0.06727   0.07400   0.07414
 Alpha virt. eigenvalues --    0.07787   0.07852   0.08656   0.09285   0.09672
 Alpha virt. eigenvalues --    0.09901   0.10447   0.10635   0.10892   0.11483

  Beta  occ. eigenvalues --  -19.01500 -19.00672 -14.27047 -14.23194 -14.22661
  Beta  occ. eigenvalues --  -10.19287 -10.17540 -10.12896 -10.11495 -10.11476
  Beta  occ. eigenvalues --  -10.11395 -10.10940 -10.09646 -10.08732 -10.08680
  Beta  occ. eigenvalues --  -10.07626 -10.07579 -10.07550 -10.07400  -0.97047
  Beta  occ. eigenvalues --   -0.95049  -0.86543  -0.85692  -0.83729  -0.75395
  Beta  occ. eigenvalues --   -0.70800  -0.68760  -0.66107  -0.64451  -0.62772
  Beta  occ. eigenvalues --   -0.58408  -0.54073  -0.53149  -0.52064  -0.50839
  Beta  occ. eigenvalues --   -0.49574  -0.47743  -0.44954  -0.43371  -0.41285
  Beta  occ. eigenvalues --   -0.40376  -0.39360  -0.38107  -0.36294  -0.35483
  Beta  occ. eigenvalues --   -0.35189  -0.34365  -0.34100  -0.32951  -0.32745
  Beta  occ. eigenvalues --   -0.32534  -0.32170  -0.32031  -0.31070  -0.30257
  Beta  occ. eigenvalues --   -0.28831  -0.27749  -0.26552  -0.26449  -0.25508
  Beta  occ. eigenvalues --   -0.24937  -0.24552  -0.22482  -0.19815  -0.19444
  Beta  occ. eigenvalues --   -0.16903  -0.16063  -0.14976  -0.08327
  Beta virt. eigenvalues --    0.05604   0.06505   0.07095   0.07510   0.07667
  Beta virt. eigenvalues --    0.07796   0.07902   0.08038   0.08767   0.09515
  Beta virt. eigenvalues --    0.09955   0.10154   0.10516   0.10958   0.11367

 Mulliken charges and spin densities:
               1          2
     1  C   -0.072755  -0.543816
     2  C    0.560647  -1.087782
     3  C    0.039773  -0.111316
     4  N    0.100990   0.127467
     5  C    0.233098  -0.250027
     6  C    0.162145  -0.589151
     7  C   -0.033904  -0.036681
     8  C    0.438367  -0.100278
     9  C   -0.835727   0.254221
    10  C   -0.703952   0.385186
    11  C    0.288638  -0.212838
    12  N    0.060393  -0.012507
    13  C   -0.346209   0.150267
    14  C    0.347594  -0.617242
    15  C   -0.085114   0.094853
    16  O   -0.349509   0.030177
    17  N   -0.111795  -0.038448
    18  C    0.260582  -0.252386
    19  O   -0.345708   0.057785
    20  H   -0.327910   0.495486
    21  H    0.052071   0.095093
    22  H    0.088518   0.047128
    23  H   -0.451205   0.627338
    24  H   -0.058298   0.216516
    25  H    0.005005   0.130208
    26  H    0.096719   0.053870
    27  H    0.039773   0.108575
    28  H    0.068432   0.117509
    29  H    0.237545  -0.099929
    30  H   -0.055441   0.203302
    31  H    0.063275   0.100558
    32  H    0.055536   0.207684
    33  H   -0.946850   1.225902
    34  H    0.122500   0.072792
    35  H    0.122540   0.110395
    36  H    0.280235   0.040090
 Sum of Mulliken charges =  -1.00000   1.00000

 Dipole moment (field-independent basis, Debye):
    X=              0.2241    Y=              1.2268    Z=              0.0035  Tot=              1.2471
 Quadrupole moment (field-independent basis, Debye-Ang):
   XX=           -234.9458   YY=           -152.0499   ZZ=           -143.1498
   XY=             -8.6268   XZ=             -0.8422   YZ=              5.5623

 Summary of Natural Population Analysis:

                                       Natural Population
                Natural  -----------------------------------------------
    Atom  No    Charge         Core      Valence    Rydberg      Total
 -----------------------------------------------------------------------
      C    1   -0.19330      0.99964     2.18505    0.00862     3.19330
      C    2   -0.19325      0.99964     2.18547    0.00815     3.19325
      C    3   -0.08061      0.99963     2.06975    0.01122     3.08061
      N    4   -0.25541      0.99965     2.74653    0.00924     3.75541
      C    5   -0.08125      0.99963     2.07020    0.01141     3.08125
      C    6    0.08537      0.99950     1.90544    0.00969     2.91463
      C    7   -0.12051      0.99955     2.11347    0.00750     3.12051
      C    8   -0.11925      0.99953     2.11239    0.00734     3.11925
      C    9    0.06603      0.99946     1.92324    0.01127     2.93397
      C   10   -0.10384      0.99954     2.09601    0.00830     3.10384
      C   11   -0.12011      0.99954     2.11309    0.00748     3.12011
      N   12   -0.31888      0.99968     2.80638    0.01282     3.81888
      C   13   -0.05037      0.99956     2.03592    0.01489     3.05037
      C   14   -0.24241      0.99959     2.23306    0.00977     3.24241
      C   15    0.36300      0.99970     1.61366    0.02364     2.63700
      O   16   -0.29413      0.99987     3.28842    0.00583     4.29413
      N   17   -0.33637      0.99964     2.82874    0.00799     3.83637
      C   18    0.36517      0.99968     1.60998    0.02518     2.63483
      O   19   -0.28610      0.99987     3.28008    0.00615     4.28610
      H   20    0.10243      0.00000     0.39642    0.00115     0.39757
      H   21    0.09768      0.00000     0.40103    0.00129     0.40232
      H   22    0.09623      0.00000     0.40246    0.00131     0.40377
      H   23    0.10397      0.00000     0.39441    0.00162     0.39603
      H   24    0.08941      0.00000     0.40923    0.00136     0.41059
      H   25    0.09477      0.00000     0.40385    0.00138     0.40523
      H   26    0.08676      0.00000     0.41194    0.00130     0.41324
      H   27    0.09610      0.00000     0.40252    0.00138     0.40390
      H   28    0.10150      0.00000     0.39753    0.00097     0.39850
      H   29    0.09925      0.00000     0.39893    0.00182     0.40075
      H   30    0.09879      0.00000     0.39997    0.00124     0.40121
      H   31    0.10196      0.00000     0.39702    0.00101     0.39804
      H   32    0.19017      0.00000     0.30710    0.00273     0.30983
      H   33    0.11952      0.00000     0.37355    0.00693     0.38048
      H   34    0.11505      0.00000     0.38389    0.00107     0.38495
      H   35    0.12144      0.00000     0.37737    0.00119     0.37856
      H   36    0.20122      0.00000     0.29656    0.00222     0.29878
 =======================================================================
   * Total *   -0.00000     18.99288    49.77065    0.23646    69.00000

 Normal termination of Gaussian 16 at Sun Dec 13 21:38:46 2020.
