 Gaussian 16, Revision A.03,

 -----------------------------------------------------------
 # opt freq B3LYP/6-31G(d) empiricaldispersion=gd3bj scf=xqc
 -----------------------------------------------------------

 -------------------------------
 CID_81939434_JID_10421_neutraal
 -------------------------------
 Symbolic Z-matrix:
 Charge =  0 Multiplicity = 1

 SCF Done:  E(RB3LYP) =  -874.100627377     A.U. after   15 cycles
 SCF Done:  E(RB3LYP) =  -874.108506153     A.U. after   12 cycles
 SCF Done:  E(RB3LYP) =  -874.111024356     A.U. after   12 cycles
 SCF Done:  E(RB3LYP) =  -874.112479644     A.U. after   12 cycles
 SCF Done:  E(RB3LYP) =  -874.113086273     A.U. after   12 cycles
 SCF Done:  E(RB3LYP) =  -874.113221247     A.U. after   11 cycles
 SCF Done:  E(RB3LYP) =  -874.113283240     A.U. after   10 cycles
 SCF Done:  E(RB3LYP) =  -874.113302410     A.U. after   10 cycles
 SCF Done:  E(RB3LYP) =  -874.113311837     A.U. after   10 cycles
 SCF Done:  E(RB3LYP) =  -874.113318915     A.U. after   10 cycles
 SCF Done:  E(RB3LYP) =  -874.113453975     A.U. after    9 cycles
 SCF Done:  E(RB3LYP) =  -874.113454555     A.U. after    8 cycles
 SCF Done:  E(RB3LYP) =  -874.113454671     A.U. after    8 cycles
 SCF Done:  E(RB3LYP) =  -874.113454709     A.U. after    7 cycles
 SCF Done:  E(RB3LYP) =  -874.113454799     A.U. after    7 cycles
 SCF Done:  E(RB3LYP) =  -874.113454902     A.U. after    7 cycles
 Optimization completed.
    -- Stationary point found.
 Normal termination of Gaussian 16 at Mon Dec 14 14:08:28 2020.

 --------------------------------------------------------------------
 #N Geom=AllCheck Guess=TCheck SCRF=Check GenChk RB3LYP/6-31G(d) Freq
 --------------------------------------------------------------------

 Structure from the checkpoint file:  "JID_10421.chk"
 -------------------------------
 CID_81939434_JID_10421_neutraal
 -------------------------------
 Charge =  0 Multiplicity = 1

 SCF Done:  E(RB3LYP) =  -874.113454902     A.U. after    1 cycles

  Exact polarizability: 241.583  -4.795 163.094   4.999 -12.813 139.186
 Approx polarizability: 336.717  -2.138 267.537  16.906 -31.537 216.315

                      1                      2                      3
                      A                      A                      A
 Frequencies --     21.7931                32.2596                40.3408
 Red. masses --      4.0211                 3.7434                 4.4144
 Frc consts  --      0.0011                 0.0023                 0.0042
 IR Inten    --      0.0308                 1.2426                 0.3399

                      4                      5                      6
                      A                      A                      A
 Frequencies --     63.6067                80.8887               103.6179
 Red. masses --      3.5496                 3.1313                 3.5976
 Frc consts  --      0.0085                 0.0121                 0.0228
 IR Inten    --      0.5031                 0.0452                 0.2670

                      7                      8                      9
                      A                      A                      A
 Frequencies --    118.9376               130.2316               151.2955
 Red. masses --      2.6615                 2.3574                 1.1748
 Frc consts  --      0.0222                 0.0236                 0.0158
 IR Inten    --      0.4303                 0.2388                13.3486

                     10                     11                     12
                      A                      A                      A
 Frequencies --    174.0273               195.7498               224.9440
 Red. masses --      3.7435                 2.6160                 7.4479
 Frc consts  --      0.0668                 0.0591                 0.2220
 IR Inten    --      2.2410                 1.6857                 1.7848

                     13                     14                     15
                      A                      A                      A
 Frequencies --    237.3652               258.9717               275.5828
 Red. masses --      2.5690                 1.7435                 3.1594
 Frc consts  --      0.0853                 0.0689                 0.1414
 IR Inten    --      5.3845                 1.0749                 0.3923

                     16                     17                     18
                      A                      A                      A
 Frequencies --    288.3575               312.5602               322.4213
 Red. masses --      2.8435                 1.8366                 3.6126
 Frc consts  --      0.1393                 0.1057                 0.2213
 IR Inten    --      3.0160                 3.6361                12.3283

                     19                     20                     21
                      A                      A                      A
 Frequencies --    373.3475               390.7629               428.2018
 Red. masses --      2.7653                 2.8036                 2.9117
 Frc consts  --      0.2271                 0.2522                 0.3145
 IR Inten    --     14.1177                 1.0912                37.8919

                     22                     23                     24
                      A                      A                      A
 Frequencies --    438.3148               457.5780               476.6617
 Red. masses --      3.1581                 2.1174                 2.8233
 Frc consts  --      0.3575                 0.2612                 0.3779
 IR Inten    --     17.5837                83.7628                27.7491

                     25                     26                     27
                      A                      A                      A
 Frequencies --    506.4695               517.8293               564.4712
 Red. masses --      2.5920                 3.9939                 3.4080
 Frc consts  --      0.3917                 0.6310                 0.6398
 IR Inten    --      2.0592                10.3002                 7.7790

                     28                     29                     30
                      A                      A                      A
 Frequencies --    618.6302               665.0939               670.5513
 Red. masses --      3.3956                 4.3938                 3.9841
 Frc consts  --      0.7656                 1.1451                 1.0555
 IR Inten    --      2.3305                 2.5954                 4.1642

                     31                     32                     33
                      A                      A                      A
 Frequencies --    687.1706               697.8359               730.6741
 Red. masses --      3.9790                 5.9242                 4.2349
 Frc consts  --      1.1070                 1.6998                 1.3321
 IR Inten    --      2.7368                 1.2486                 2.0862

                     34                     35                     36
                      A                      A                      A
 Frequencies --    746.5737               788.1299               791.3339
 Red. masses --      3.4328                 1.5211                 1.4307
 Frc consts  --      1.1273                 0.5567                 0.5278
 IR Inten    --      3.9145                29.1110                 0.7615

                     37                     38                     39
                      A                      A                      A
 Frequencies --    822.3437               841.9775               844.7977
 Red. masses --      5.4964                 2.9536                 1.7121
 Frc consts  --      2.1900                 1.2337                 0.7199
 IR Inten    --     18.2165                10.8019                 2.1433

                     40                     41                     42
                      A                      A                      A
 Frequencies --    861.4581               879.6635               889.8258
 Red. masses --      2.2632                 2.7158                 1.7990
 Frc consts  --      0.9896                 1.2382                 0.8393
 IR Inten    --      1.6666                 9.6209                11.5698

                     43                     44                     45
                      A                      A                      A
 Frequencies --    922.9818               931.6702               939.8258
 Red. masses --      2.6994                 1.5858                 2.8130
 Frc consts  --      1.3549                 0.8110                 1.4639
 IR Inten    --     74.4960                 4.9443                21.3684

                     46                     47                     48
                      A                      A                      A
 Frequencies --    973.3911               984.6793              1018.4894
 Red. masses --      1.9626                 1.4542                 2.9200
 Frc consts  --      1.0956                 0.8308                 1.7846
 IR Inten    --      1.3688                 0.9779                22.0234

                     49                     50                     51
                      A                      A                      A
 Frequencies --   1052.8198              1062.7671              1076.3941
 Red. masses --      2.0667                 2.2131                 2.0505
 Frc consts  --      1.3497                 1.4727                 1.3998
 IR Inten    --      1.4902                36.1541                 0.4454

                     52                     53                     54
                      A                      A                      A
 Frequencies --   1106.1852              1113.8706              1133.2101
 Red. masses --      2.0687                 1.8502                 2.0145
 Frc consts  --      1.4914                 1.3525                 1.5242
 IR Inten    --      0.7136                 0.0654                 1.6927

                     55                     56                     57
                      A                      A                      A
 Frequencies --   1156.6705              1169.4921              1174.4748
 Red. masses --      3.1675                 1.4297                 1.6430
 Frc consts  --      2.4968                 1.1521                 1.3353
 IR Inten    --     12.6299                 1.4723                 2.3048

                     58                     59                     60
                      A                      A                      A
 Frequencies --   1188.5957              1218.1366              1238.8905
 Red. masses --      2.1602                 2.4243                 1.9863
 Frc consts  --      1.7981                 2.1195                 1.7962
 IR Inten    --     16.0699                26.0785                37.6805

                     61                     62                     63
                      A                      A                      A
 Frequencies --   1267.2717              1272.1704              1280.5921
 Red. masses --      1.8166                 1.3404                 2.1226
 Frc consts  --      1.7189                 1.2782                 2.0508
 IR Inten    --      3.1137                 8.9024                29.6077

                     64                     65                     66
                      A                      A                      A
 Frequencies --   1286.5723              1298.9469              1306.0114
 Red. masses --      1.8640                 2.0052                 1.2706
 Frc consts  --      1.8178                 1.9934                 1.2769
 IR Inten    --     28.9117                40.9572                 4.8853

                     67                     68                     69
                      A                      A                      A
 Frequencies --   1324.8033              1347.2702              1366.2728
 Red. masses --      2.4050                 1.6183                 1.7262
 Frc consts  --      2.4870                 1.7306                 1.8986
 IR Inten    --     44.4392                 3.5833                 7.4890

                     70                     71                     72
                      A                      A                      A
 Frequencies --   1374.3369              1381.3011              1386.6701
 Red. masses --      1.2046                 1.5819                 1.7738
 Frc consts  --      1.3406                 1.7783                 2.0096
 IR Inten    --      3.4413                 6.9574                 8.8353

                     73                     74                     75
                      A                      A                      A
 Frequencies --   1388.3730              1394.6234              1399.4664
 Red. masses --      1.6079                 1.4392                 1.6077
 Frc consts  --      1.8261                 1.6492                 1.8552
 IR Inten    --      9.6954                13.6982                13.2022

                     76                     77                     78
                      A                      A                      A
 Frequencies --   1414.1960              1434.6011              1446.4518
 Red. masses --      2.0780                 2.5507                 1.3255
 Frc consts  --      2.4486                 3.0930                 1.6340
 IR Inten    --     57.3597                 1.1599                 4.3092

                     79                     80                     81
                      A                      A                      A
 Frequencies --   1452.1710              1493.9638              1508.7086
 Red. masses --      2.4579                 3.1280                 1.1330
 Frc consts  --      3.0538                 4.1134                 1.5194
 IR Inten    --     16.2989               232.9141                 0.7054

                     82                     83                     84
                      A                      A                      A
 Frequencies --   1513.8239              1517.8373              1518.9805
 Red. masses --      1.4423                 1.1769                 1.0964
 Frc consts  --      1.9474                 1.5975                 1.4905
 IR Inten    --     43.1729                13.9625                10.3372

                     85                     86                     87
                      A                      A                      A
 Frequencies --   1523.1398              1527.7349              1530.2432
 Red. masses --      1.4754                 1.7161                 1.5665
 Frc consts  --      2.0167                 2.3598                 2.1613
 IR Inten    --     35.1149                44.7414                39.1927

                     88                     89                     90
                      A                      A                      A
 Frequencies --   1531.0887              1536.6205              1541.9797
 Red. masses --      1.1310                 1.1392                 1.2360
 Frc consts  --      1.5622                 1.5848                 1.7315
 IR Inten    --      4.7273                 9.7701                29.1423

                     91                     92                     93
                      A                      A                      A
 Frequencies --   1613.6238              1626.6763              1646.5192
 Red. masses --      5.3182                 6.0477                 7.8838
 Frc consts  --      8.1587                 9.4284                12.5927
 IR Inten    --     60.8405               465.1077                83.5536

                     94                     95                     96
                      A                      A                      A
 Frequencies --   1747.1290              3020.6593              3034.5736
 Red. masses --      1.0621                 1.0706                 1.0654
 Frc consts  --      1.9102                 5.7555                 5.7803
 IR Inten    --     29.7089                38.0499                19.4321

                     97                     98                     99
                      A                      A                      A
 Frequencies --   3037.7046              3041.7394              3050.0766
 Red. masses --      1.0635                 1.0623                 1.0383
 Frc consts  --      5.7818                 5.7909                 5.6913
 IR Inten    --     25.6164                26.3023                14.9358

                    100                    101                    102
                      A                      A                      A
 Frequencies --   3051.8777              3062.6388              3065.2244
 Red. masses --      1.0594                 1.0731                 1.0989
 Frc consts  --      5.8136                 5.9306                 6.0834
 IR Inten    --     29.9459                31.2987                25.2461

                    103                    104                    105
                      A                      A                      A
 Frequencies --   3077.6375              3087.9400              3089.3735
 Red. masses --      1.0914                 1.0976                 1.0987
 Frc consts  --      6.0909                 6.1663                 6.1786
 IR Inten    --     34.5724                71.2474                15.8404

                    106                    107                    108
                      A                      A                      A
 Frequencies --   3091.3389              3118.0236              3122.3613
 Red. masses --      1.1045                 1.1015                 1.1024
 Frc consts  --      6.2188                 6.3097                 6.3322
 IR Inten    --     50.8002                40.6234                44.9784

                    109                    110                    111
                      A                      A                      A
 Frequencies --   3129.6183              3186.8654              3265.4663
 Red. masses --      1.0924                 1.0911                 1.0962
 Frc consts  --      6.3038                 6.5288                 6.8871
 IR Inten    --     16.9937                31.3594                 0.8063

                    112                    113                    114
                      A                      A                      A
 Frequencies --   3435.4292              3508.1611              3652.0340
 Red. masses --      1.0483                 1.0932                 1.0773
 Frc consts  --      7.2896                 7.9272                 8.4656
 IR Inten    --      2.9620                 1.0474                44.0129

 - Thermochemistry -
 -------------------
 Temperature   298.150 Kelvin.  Pressure   1.00000 Atm.
 Atom     1 has atomic number  6 and mass  12.00000

 Molecular mass:   272.17494 amu.
 Principal axes and moments of inertia in atomic units:
                           1         2         3
     Eigenvalues --  2640.400038641.969119087.36774
           X            0.99991   0.01138  -0.00725
           Y           -0.01122   0.99971   0.02132
           Z            0.00750  -0.02123   0.99975
 This molecule is an asymmetric top.
 Rotational symmetry number  1.
 Warning -- assumption of classical behavior for rotation
           may cause significant error
 Rotational temperatures (Kelvin)      0.03280     0.01002     0.00953
 Rotational constants (GHZ):           0.68351     0.20883     0.19860
 Zero-point vibrational energy     900274.3 (Joules/Mol)
                                  215.17072 (Kcal/Mol)
 Warning -- explicit consideration of  28 degrees of freedom as
           vibrations may cause significant error
 Vibrational temperatures:     31.36    46.41    58.04    91.52   116.38
          (Kelvin)            149.08   171.12   187.37   217.68   250.39
                              281.64   323.64   341.52   372.60   396.50
                              414.88   449.70   463.89   537.16   562.22
                              616.09   630.64   658.35   685.81   728.70
                              745.04   812.15   890.07   956.92   964.77
                              988.69  1004.03  1051.28  1074.15  1133.94
                             1138.55  1183.17  1211.42  1215.48  1239.45
                             1265.64  1280.26  1327.96  1340.47  1352.20
                             1400.49  1416.73  1465.38  1514.77  1529.08
                             1548.69  1591.55  1602.61  1630.44  1664.19
                             1682.64  1689.81  1710.12  1752.63  1782.49
                             1823.32  1830.37  1842.49  1851.09  1868.89
                             1879.06  1906.10  1938.42  1965.76  1977.36
                             1987.38  1995.11  1997.56  2006.55  2013.52
                             2034.71  2064.07  2081.12  2089.35  2149.48
                             2170.70  2178.05  2183.83  2185.47  2191.46
                             2198.07  2201.68  2202.90  2210.85  2218.56
                             2321.64  2340.42  2368.97  2513.73  4346.05
                             4366.07  4370.58  4376.38  4388.38  4390.97
                             4406.45  4410.17  4428.03  4442.86  4444.92
                             4447.75  4486.14  4492.38  4502.82  4585.19
                             4698.28  4942.82  5047.46  5254.46

 Zero-point correction=                           0.342896 (Hartree/Particle)
 Thermal correction to Energy=                    0.361480
 Thermal correction to Enthalpy=                  0.362424
 Thermal correction to Gibbs Free Energy=         0.294785
 Sum of electronic and zero-point Energies=           -873.770559
 Sum of electronic and thermal Energies=              -873.751975
 Sum of electronic and thermal Enthalpies=            -873.751030
 Sum of electronic and thermal Free Energies=         -873.818670

                     E (Thermal)             CV                S
                      KCal/Mol        Cal/Mol-Kelvin    Cal/Mol-Kelvin
 Total                  226.832             70.826            142.360
 Electronic               0.000              0.000              0.000
 Translational            0.889              2.981             42.703
 Rotational               0.889              2.981             33.694
 Vibrational            225.055             64.865             65.964
 Vibration     1          0.593              1.985              6.464
 Vibration     2          0.594              1.983              5.685
 Vibration     3          0.594              1.981              5.242
 Vibration     4          0.597              1.972              4.342
 Vibration     5          0.600              1.962              3.869
 Vibration     6          0.605              1.946              3.385
 Vibration     7          0.609              1.934              3.118
 Vibration     8          0.612              1.923              2.943
 Vibration     9          0.619              1.901              2.656
 Vibration    10          0.627              1.874              2.392
 Vibration    11          0.636              1.846              2.173
 Vibration    12          0.650              1.803              1.919
 Vibration    13          0.656              1.783              1.823
 Vibration    14          0.668              1.748              1.669
 Vibration    15          0.677              1.719              1.561
 Vibration    16          0.685              1.695              1.484
 Vibration    17          0.701              1.650              1.349
 Vibration    18          0.707              1.631              1.298
 Vibration    19          0.745              1.527              1.066
 Vibration    20          0.758              1.490              0.997
 Vibration    21          0.790              1.409              0.865
 Vibration    22          0.798              1.387              0.832
 Vibration    23          0.816              1.344              0.773
 Vibration    24          0.833              1.302              0.719
 Vibration    25          0.862              1.236              0.642
 Vibration    26          0.873              1.211              0.615
 Vibration    27          0.920              1.108              0.515
 Vibration    28          0.978              0.993              0.419

 Optimization completed.
    -- Stationary point found.
 Normal termination of Gaussian 16 at Mon Dec 14 14:29:20 2020.

 ----------------------------------------------------------------------
 # B3LYP/6-311++G(d,p) empiricaldispersion=gd3bj scf=xqc pop=npa geom=c
 heck
 ----------------------------------------------------------------------

 ---------------------------------------
 CID_81939434_JID_10421_Energie_neutraal
 ---------------------------------------
 Structure from the checkpoint file:  "JID_10421.chk"
 Charge =  0 Multiplicity = 1

 SCF Done:  E(RB3LYP) =  -874.348400892     A.U. after   15 cycles
 Normal termination of Gaussian 16 at Mon Dec 14 14:37:31 2020.

 ----------------------------------------------------------------------
 # B3LYP/6-311++G(d,p) empiricaldispersion=gd3bj scf=xqc pop=npa geom=c
 heck
 ----------------------------------------------------------------------

 -------------------------------------
 CID_81939434_JID_10421_Energie_kation
 -------------------------------------
 Structure from the checkpoint file:  "JID_10421.chk"
 Charge =  1 Multiplicity = 2

 SCF Done:  E(UB3LYP) =  -874.066540081     A.U. after   23 cycles
 Normal termination of Gaussian 16 at Mon Dec 14 14:54:35 2020.
 Gaussian 16:  ES64L-G16RevA.03 25-Dec-2016

 ----------------------------------------------------------------------
 # B3LYP/6-311++G(d,p) empiricaldispersion=gd3bj scf=xqc pop=npa geom=c
 heck
 ----------------------------------------------------------------------

 ------------------------------------
 CID_81939434_JID_10421_Energie_anion
 ------------------------------------
 Structure from the checkpoint file:  "JID_10421.chk"
 Charge = -1 Multiplicity = 2

                         Standard orientation:
 ---------------------------------------------------------------------
 Center     Atomic      Atomic             Coordinates (Angstroms)
 Number     Number       Type             X           Y           Z
 ---------------------------------------------------------------------
      1          6           0        1.638425    2.137411    1.941391
      2          6           0        0.816218    2.379066    0.674252
      3          6           0        1.429863    1.750513   -0.595236
      4          6           0        1.572521    0.247416   -0.483670
      5          6           0        2.804120   -0.391395   -0.164537
      6          7           0        2.890569   -1.711457    0.076315
      7          6           0        1.749811   -2.399998    0.025371
      8          7           0        0.542915   -1.936726   -0.279880
      9          6           0        0.484080   -0.618976   -0.544739
     10          7           0       -0.806669   -0.129555   -0.866244
     11          6           0       -1.199095    0.526570   -2.018661
     12          7           0       -2.482101    0.798838   -2.019134
     13          6           0       -2.961339    0.303498   -0.817265
     14          6           0       -1.955064   -0.285093   -0.094945
     15          6           0       -2.069212   -0.920376    1.250611
     16          6           0       -3.425299   -0.509194    1.861800
     17          6           0       -4.571888   -0.598461    0.838553
     18          6           0       -4.377106    0.381542   -0.336124
     19          7           0        3.971053    0.317205   -0.048879
     20          7           0        5.221066   -0.319922    0.094298
     21          1           0        1.717246    1.068352    2.166943
     22          1           0        1.176561    2.627339    2.805129
     23          1           0        2.657307    2.528861    1.837700
     24          1           0       -0.196864    1.980610    0.805525
     25          1           0        0.706059    3.456718    0.500339
     26          1           0        0.804230    2.011382   -1.451036
     27          1           0        2.401693    2.218760   -0.788966
     28          1           0        1.819694   -3.462296    0.250883
     29          1           0       -0.501929    0.726906   -2.820364
     30          1           0       -1.244967   -0.614705    1.908535
     31          1           0       -1.997191   -2.012412    1.162876
     32          1           0       -3.354190    0.523986    2.228312
     33          1           0       -3.642178   -1.141500    2.730222
     34          1           0       -4.619030   -1.623574    0.446542
     35          1           0       -5.530148   -0.402704    1.333251
     36          1           0       -5.070724    0.150005   -1.153151
     37          1           0       -4.613695    1.406305   -0.013520
     38          1           0        4.035907    1.224041   -0.483585
     39          1           0        5.290675   -0.624052    1.065967
     40          1           0        5.187509   -1.185841   -0.447734
 ---------------------------------------------------------------------

 SCF Done:  E(UB3LYP) =  -874.347553971     A.U. after   32 cycles

 The electronic state is 2-A.
 Alpha  occ. eigenvalues --  -14.24579 -14.24504 -14.23490 -14.17609 -14.17434
 Alpha  occ. eigenvalues --  -14.16702 -10.12973 -10.10106 -10.10049 -10.09264
 Alpha  occ. eigenvalues --  -10.07707 -10.07443 -10.07298 -10.06964 -10.06895
 Alpha  occ. eigenvalues --  -10.06466 -10.06254 -10.05577 -10.05067 -10.04963
 Alpha  occ. eigenvalues --   -0.90186  -0.89636  -0.84343  -0.77903  -0.74142
 Alpha  occ. eigenvalues --   -0.72409  -0.70958  -0.67973  -0.64556  -0.63176
 Alpha  occ. eigenvalues --   -0.62209  -0.58206  -0.54263  -0.52748  -0.52446
 Alpha  occ. eigenvalues --   -0.49705  -0.47673  -0.46538  -0.44637  -0.42543
 Alpha  occ. eigenvalues --   -0.42062  -0.40395  -0.37993  -0.36909  -0.35749
 Alpha  occ. eigenvalues --   -0.35158  -0.35071  -0.33366  -0.33145  -0.32662
 Alpha  occ. eigenvalues --   -0.31437  -0.30329  -0.29951  -0.29560  -0.29272
 Alpha  occ. eigenvalues --   -0.28359  -0.27432  -0.26375  -0.24049  -0.23684
 Alpha  occ. eigenvalues --   -0.23630  -0.23234  -0.23038  -0.22701  -0.22298
 Alpha  occ. eigenvalues --   -0.18682  -0.17888  -0.16885  -0.15731  -0.14364
 Alpha  occ. eigenvalues --   -0.13248  -0.11374  -0.10196   0.04576
 Alpha virt. eigenvalues --    0.06779   0.07129   0.08011   0.08396   0.08941
 Alpha virt. eigenvalues --    0.09550   0.09630   0.10222   0.10541   0.10746
 Alpha virt. eigenvalues --    0.11099   0.11283   0.11852   0.12461   0.12769

  Beta  occ. eigenvalues --  -14.24573 -14.24554 -14.23486 -14.17726 -14.17402
  Beta  occ. eigenvalues --  -14.16399 -10.13012 -10.09961 -10.09678 -10.09044
  Beta  occ. eigenvalues --  -10.07647 -10.07442 -10.07290 -10.06967 -10.06895
  Beta  occ. eigenvalues --  -10.06459 -10.06263 -10.05536 -10.04943 -10.04878
  Beta  occ. eigenvalues --   -0.90064  -0.89565  -0.84062  -0.77600  -0.74042
  Beta  occ. eigenvalues --   -0.72379  -0.70711  -0.67902  -0.64421  -0.63068
  Beta  occ. eigenvalues --   -0.62070  -0.57983  -0.54069  -0.52481  -0.52328
  Beta  occ. eigenvalues --   -0.49658  -0.47560  -0.46357  -0.44519  -0.42455
  Beta  occ. eigenvalues --   -0.41954  -0.40365  -0.37873  -0.36840  -0.35652
  Beta  occ. eigenvalues --   -0.35100  -0.34902  -0.33214  -0.33088  -0.32485
  Beta  occ. eigenvalues --   -0.31324  -0.30156  -0.29851  -0.29415  -0.28663
  Beta  occ. eigenvalues --   -0.28285  -0.27404  -0.26286  -0.23877  -0.23638
  Beta  occ. eigenvalues --   -0.23542  -0.23174  -0.23013  -0.22651  -0.21918
  Beta  occ. eigenvalues --   -0.18559  -0.17054  -0.16589  -0.15694  -0.13672
  Beta  occ. eigenvalues --   -0.13104  -0.10676  -0.09859
  Beta virt. eigenvalues --    0.06680   0.07287   0.08112   0.08514   0.08886
  Beta virt. eigenvalues --    0.09469   0.09571   0.09907   0.10508   0.10734
  Beta virt. eigenvalues --    0.10931   0.11095   0.11397   0.11823   0.12460

 Mulliken charges and spin densities:
               1          2
     1  C   -0.227689  -0.469662
     2  C    0.126165  -0.392885
     3  C   -0.304604  -0.047806
     4  C    0.393388   0.200379
     5  C   -0.246102  -0.024698
     6  N   -0.248865   0.121328
     7  C   -0.133078   0.166423
     8  N   -0.132984  -0.045791
     9  C   -0.391607   0.121293
    10  N    0.390157  -0.025214
    11  C    0.211529  -0.037813
    12  N   -0.072032   0.012603
    13  C   -0.452632  -0.045164
    14  C    0.136590   0.076262
    15  C   -0.184303  -0.131296
    16  C   -0.300044  -0.086704
    17  C   -0.350648   0.056347
    18  C   -0.484754  -0.026565
    19  N   -0.154476   0.011893
    20  N   -0.321767  -0.012031
    21  H    0.147714   0.030916
    22  H   -0.188228   0.324924
    23  H    0.089017   0.036867
    24  H    0.357154  -0.208979
    25  H   -0.416416   0.572328
    26  H    0.020235   0.138937
    27  H   -0.177111   0.291613
    28  H    0.151512  -0.004768
    29  H    0.152362   0.007468
    30  H    0.095831   0.048823
    31  H    0.197651   0.012599
    32  H    0.065392   0.078357
    33  H    0.052440   0.099955
    34  H    0.113958   0.021918
    35  H    0.120584   0.022523
    36  H    0.156483  -0.008958
    37  H    0.092812   0.050457
    38  H    0.258595   0.037090
    39  H    0.237773   0.010020
    40  H    0.219997   0.017008
 Sum of Mulliken charges =  -1.00000   1.00000

 Dipole moment (field-independent basis, Debye):
    X=             -0.9339    Y=             -2.2048    Z=              1.2733  Tot=              2.7119
 Quadrupole moment (field-independent basis, Debye-Ang):
   XX=           -170.2003   YY=           -160.5047   ZZ=           -143.6673
   XY=              0.8378   XZ=             -7.8661   YZ=             -2.0418

 Summary of Natural Population Analysis:

                                       Natural Population
                Natural  -----------------------------------------------
    Atom  No    Charge         Core      Valence    Rydberg      Total
 -----------------------------------------------------------------------
      C    1   -0.28832      0.99966     2.28236    0.00629     3.28832
      C    2   -0.18519      0.99963     2.17708    0.00847     3.18519
      C    3   -0.19656      0.99961     2.18677    0.01017     3.19656
      C    4   -0.04557      0.99943     2.03650    0.00964     3.04557
      C    5    0.20016      0.99950     1.78361    0.01672     2.79984
      N    6   -0.25540      0.99967     2.74646    0.00928     3.75540
      C    7    0.18052      0.99968     1.80145    0.01835     2.81948
      N    8   -0.28569      0.99968     2.77564    0.01037     3.78569
      C    9    0.26755      0.99944     1.71812    0.01488     2.73245
      N   10   -0.21604      0.99960     2.70658    0.00986     3.71604
      C   11    0.12311      0.99964     1.86041    0.01683     2.87689
      N   12   -0.25773      0.99970     2.74732    0.01071     3.75773
      C   13    0.04135      0.99943     1.94573    0.01349     2.95865
      C   14    0.07845      0.99942     1.91021    0.01191     2.92155
      C   15   -0.20402      0.99960     2.19652    0.00790     3.20402
      C   16   -0.18437      0.99964     2.17755    0.00718     3.18437
      C   17   -0.18669      0.99964     2.17957    0.00748     3.18669
      C   18   -0.19630      0.99960     2.18841    0.00829     3.19630
      N   19   -0.22811      0.99964     2.71564    0.01283     3.72811
      N   20   -0.31971      0.99978     2.80949    0.01044     3.81971
      H   21    0.10006      0.00000     0.39877    0.00117     0.39994
      H   22    0.09601      0.00000     0.40321    0.00078     0.40399
      H   23    0.09398      0.00000     0.40490    0.00112     0.40602
      H   24    0.09780      0.00000     0.40049    0.00171     0.40220
      H   25    0.09384      0.00000     0.40412    0.00205     0.40616
      H   26    0.10924      0.00000     0.38933    0.00143     0.39076
      H   27    0.08920      0.00000     0.40935    0.00146     0.41080
      H   28    0.07177      0.00000     0.42710    0.00113     0.42823
      H   29    0.09067      0.00000     0.40811    0.00121     0.40933
      H   30    0.10643      0.00000     0.39223    0.00134     0.39357
      H   31    0.10717      0.00000     0.39115    0.00168     0.39283
      H   32    0.09394      0.00000     0.40458    0.00149     0.40606
      H   33    0.09473      0.00000     0.40405    0.00122     0.40527
      H   34    0.09320      0.00000     0.40541    0.00139     0.40680
      H   35    0.09325      0.00000     0.40560    0.00116     0.40675
      H   36    0.10053      0.00000     0.39802    0.00146     0.39947
      H   37    0.09546      0.00000     0.40271    0.00183     0.40454
      H   38    0.18529      0.00000     0.31189    0.00282     0.31471
      H   39    0.17046      0.00000     0.32719    0.00235     0.32954
      H   40    0.17554      0.00000     0.32198    0.00247     0.32446
 =======================================================================
   * Total *   -0.00000     19.99203    52.75563    0.25234    73.00000

 Normal termination of Gaussian 16 at Mon Dec 14 15:17:30 2020.
