 Gaussian 16, Revision A.03,

 -----------------------------------------------------------
 # opt freq B3LYP/6-31G(d) empiricaldispersion=gd3bj scf=xqc
 -----------------------------------------------------------

 -------------------------------
 CID_112674743_JID_8299_neutraal
 -------------------------------
 Symbolic Z-matrix:
 Charge =  0 Multiplicity = 1

 SCF Done:  E(RB3LYP) =  -1254.60304682     A.U. after   14 cycles
 SCF Done:  E(RB3LYP) =  -1254.60911473     A.U. after   13 cycles
 SCF Done:  E(RB3LYP) =  -1254.60753930     A.U. after   13 cycles
 SCF Done:  E(RB3LYP) =  -1254.59596526     A.U. after   13 cycles
 SCF Done:  E(RB3LYP) =  -1254.60071501     A.U. after   12 cycles
 SCF Done:  E(RB3LYP) =  -1254.61105096     A.U. after   11 cycles
 SCF Done:  E(RB3LYP) =  -1254.61205032     A.U. after   12 cycles
 SCF Done:  E(RB3LYP) =  -1254.61334207     A.U. after   12 cycles
 SCF Done:  E(RB3LYP) =  -1254.61347029     A.U. after   12 cycles
 SCF Done:  E(RB3LYP) =  -1254.61538963     A.U. after   12 cycles
 SCF Done:  E(RB3LYP) =  -1254.61736895     A.U. after    9 cycles
 SCF Done:  E(RB3LYP) =  -1254.61736972     A.U. after    8 cycles
 SCF Done:  E(RB3LYP) =  -1254.61737023     A.U. after    8 cycles
 SCF Done:  E(RB3LYP) =  -1254.61737044     A.U. after    8 cycles
 SCF Done:  E(RB3LYP) =  -1254.61737048     A.U. after    7 cycles
 Optimization completed.
    -- Stationary point found.
 Normal termination of Gaussian 16 at Fri Dec 11 20:06:59 2020.

 --------------------------------------------------------------------
 #N Geom=AllCheck Guess=TCheck SCRF=Check GenChk RB3LYP/6-31G(d) Freq
 --------------------------------------------------------------------

 Structure from the checkpoint file:  "JID_8299.chk"
 -------------------------------
 CID_112674743_JID_8299_neutraal
 -------------------------------
 Charge =  0 Multiplicity = 1

 SCF Done:  E(RB3LYP) =  -1254.61737048     A.U. after    1 cycles

  Exact polarizability: 191.704  -1.651 167.238  -9.927  -2.116 110.692
 Approx polarizability: 269.698 -12.162 285.147 -15.533  -2.315 164.243

                      1                      2                      3
                      A                      A                      A
 Frequencies --     18.8405                39.4591                46.1216
 Red. masses --      5.2457                 6.0396                 4.3816
 Frc consts  --      0.0011                 0.0055                 0.0055
 IR Inten    --      0.8056                 0.4886                 0.8304

                      4                      5                      6
                      A                      A                      A
 Frequencies --     74.2863               104.5943               133.5477
 Red. masses --      4.8488                 7.1993                 3.6996
 Frc consts  --      0.0158                 0.0464                 0.0389
 IR Inten    --      6.2752                 5.4310                 2.2710

                      7                      8                      9
                      A                      A                      A
 Frequencies --    160.4875               167.3070               183.6115
 Red. masses --      3.1472                 3.9265                 5.0949
 Frc consts  --      0.0478                 0.0648                 0.1012
 IR Inten    --     11.0317                10.5728                 5.8908

                     10                     11                     12
                      A                      A                      A
 Frequencies --    203.0666               232.5746               250.5720
 Red. masses --      3.1661                 2.1666                 3.7943
 Frc consts  --      0.0769                 0.0690                 0.1404
 IR Inten    --     10.5527                 5.8016                 3.4716

                     13                     14                     15
                      A                      A                      A
 Frequencies --    261.8265               282.3827               285.3143
 Red. masses --      4.1294                 3.3071                 1.7547
 Frc consts  --      0.1668                 0.1554                 0.0842
 IR Inten    --      4.0224                 8.4412                42.0328

                     16                     17                     18
                      A                      A                      A
 Frequencies --    293.3776               315.4294               347.0984
 Red. masses --      1.6110                 4.9840                 3.2715
 Frc consts  --      0.0817                 0.2922                 0.2322
 IR Inten    --     72.5846                 0.5358                 0.9966

                     19                     20                     21
                      A                      A                      A
 Frequencies --    357.8185               366.6420               389.8676
 Red. masses --      3.1935                 3.0444                 2.8544
 Frc consts  --      0.2409                 0.2411                 0.2556
 IR Inten    --      6.1776                27.2413                 6.1871

                     22                     23                     24
                      A                      A                      A
 Frequencies --    426.5844               448.6406               465.6516
 Red. masses --      2.7006                 2.5708                 2.8664
 Frc consts  --      0.2895                 0.3049                 0.3662
 IR Inten    --     10.1237                63.3820                16.9942

                     25                     26                     27
                      A                      A                      A
 Frequencies --    500.1949               522.9579               537.8895
 Red. masses --      3.0564                 2.4367                 6.3779
 Frc consts  --      0.4505                 0.3926                 1.0872
 IR Inten    --     33.0854                 5.5857                88.2341

                     28                     29                     30
                      A                      A                      A
 Frequencies --    556.5311               570.5377               593.3213
 Red. masses --      3.5547                 3.4021                 5.0072
 Frc consts  --      0.6487                 0.6525                 1.0386
 IR Inten    --     24.1854                39.1179                34.5527

                     31                     32                     33
                      A                      A                      A
 Frequencies --    597.1338               642.8926               673.8920
 Red. masses --      3.7553                 1.6872                 1.9984
 Frc consts  --      0.7889                 0.4109                 0.5347
 IR Inten    --      9.1661                60.6087                 8.7531

                     34                     35                     36
                      A                      A                      A
 Frequencies --    719.3985               743.2486               778.4570
 Red. masses --      5.9258                 2.2017                 2.7795
 Frc consts  --      1.8069                 0.7166                 0.9924
 IR Inten    --    139.9015                62.2136                50.2918

                     37                     38                     39
                      A                      A                      A
 Frequencies --    787.5223               802.8030               854.9412
 Red. masses --      1.8883                 1.1903                 4.4086
 Frc consts  --      0.6900                 0.4520                 1.8986
 IR Inten    --     18.1975               185.9738                 5.2333

                     40                     41                     42
                      A                      A                      A
 Frequencies --    868.5882               875.6104               910.2519
 Red. masses --      1.9950                 2.5093                 1.5876
 Frc consts  --      0.8868                 1.1335                 0.7750
 IR Inten    --     12.2938                16.8417               128.9280

                     43                     44                     45
                      A                      A                      A
 Frequencies --    920.1675               931.2943               947.7496
 Red. masses --      1.4862                 2.0888                 2.0185
 Frc consts  --      0.7414                 1.0674                 1.0683
 IR Inten    --      1.6683                 5.4556                10.5502

                     46                     47                     48
                      A                      A                      A
 Frequencies --    956.3302              1027.8371              1083.7715
 Red. masses --      1.2514                 2.4901                 2.6928
 Frc consts  --      0.6743                 1.5499                 1.8635
 IR Inten    --      1.3425                 2.2267                41.5691

                     49                     50                     51
                      A                      A                      A
 Frequencies --   1089.0999              1093.3760              1100.8880
 Red. masses --      3.0291                 2.6361                 2.8380
 Frc consts  --      2.1169                 1.8567                 2.0265
 IR Inten    --     37.3303                44.1215                50.8565

                     52                     53                     54
                      A                      A                      A
 Frequencies --   1113.8986              1124.6901              1131.8896
 Red. masses --      1.4711                 2.0860                 1.8277
 Frc consts  --      1.0754                 1.5546                 1.3796
 IR Inten    --      7.8241                 8.4468                17.2063

                     55                     56                     57
                      A                      A                      A
 Frequencies --   1154.3555              1185.8724              1193.8527
 Red. masses --      3.0760                 1.9624                 1.2170
 Frc consts  --      2.4150                 1.6259                 1.0220
 IR Inten    --    231.9239                99.6066                 8.5871

                     58                     59                     60
                      A                      A                      A
 Frequencies --   1232.3464              1268.4861              1271.0434
 Red. masses --      1.5390                 1.2599                 1.4041
 Frc consts  --      1.3770                 1.1944                 1.3365
 IR Inten    --     91.3178                 5.7404                22.1729

                     61                     62                     63
                      A                      A                      A
 Frequencies --   1280.3986              1297.9961              1328.2731
 Red. masses --      1.1564                 1.7116                 8.7993
 Frc consts  --      1.1170                 1.6990                 9.1469
 IR Inten    --     16.3408                 8.2431               117.8236

                     64                     65                     66
                      A                      A                      A
 Frequencies --   1342.6571              1347.2863              1358.1990
 Red. masses --      1.3417                 2.6143                 2.0062
 Frc consts  --      1.4250                 2.7959                 2.1805
 IR Inten    --      8.5513                63.0968                69.8292

                     67                     68                     69
                      A                      A                      A
 Frequencies --   1380.6567              1412.3264              1422.6170
 Red. masses --      2.8138                 1.4115                 1.3505
 Frc consts  --      3.1602                 1.6589                 1.6104
 IR Inten    --      6.4180                10.6487                20.9724

                     70                     71                     72
                      A                      A                      A
 Frequencies --   1431.7172              1463.5727              1500.3366
 Red. masses --      1.3614                 1.4765                 2.4118
 Frc consts  --      1.6442                 1.8635                 3.1987
 IR Inten    --     16.7574                 2.5959                14.5768

                     73                     74                     75
                      A                      A                      A
 Frequencies --   1505.6001              1521.7721              1525.4118
 Red. masses --      1.1559                 1.1361                 1.4090
 Frc consts  --      1.5439                 1.5501                 1.9317
 IR Inten    --     44.1792                 3.3158                30.7863

                     76                     77                     78
                      A                      A                      A
 Frequencies --   1537.8781              1541.9310              1542.6787
 Red. masses --      1.8801                 1.1486                 1.1207
 Frc consts  --      2.6198                 1.6089                 1.5715
 IR Inten    --    115.5890                20.5352                17.2589

                     79                     80                     81
                      A                      A                      A
 Frequencies --   1617.4942              1623.9570              1647.9343
 Red. masses --      5.1140                 1.1346                 4.5063
 Frc consts  --      7.8831                 1.7629                 7.2103
 IR Inten    --      3.6584                37.6379                24.4693

                     82                     83                     84
                      A                      A                      A
 Frequencies --   1727.0643              2978.1222              3011.2226
 Red. masses --      1.2224                 1.0740                 1.0683
 Frc consts  --      2.1482                 5.6125                 5.7074
 IR Inten    --    116.1753                66.6029                11.9749

                     85                     86                     87
                      A                      A                      A
 Frequencies --   3016.5230              3027.6851              3069.2828
 Red. masses --      1.0703                 1.0615                 1.1062
 Frc consts  --      5.7383                 5.7334                 6.1400
 IR Inten    --     85.2601                93.5959                40.0862

                     88                     89                     90
                      A                      A                      A
 Frequencies --   3101.6090              3110.9260              3136.5455
 Red. masses --      1.0942                 1.0908                 1.0907
 Frc consts  --      6.2020                 6.2198                 6.3223
 IR Inten    --     45.7223                29.2604                11.7960

                     91                     92                     93
                      A                      A                      A
 Frequencies --   3196.9250              3214.0887              3238.9971
 Red. masses --      1.0863                 1.0926                 1.0930
 Frc consts  --      6.5415                 6.6498                 6.7559
 IR Inten    --     12.3965                17.2460                 4.6559

                     94                     95                     96
                      A                      A                      A
 Frequencies --   3447.0462              3464.3841              3550.9056
 Red. masses --      1.0615                 1.0476                 1.0654
 Frc consts  --      7.4314                 7.4076                 7.9145
 IR Inten    --    363.3851                23.7270               335.5006

                     97                     98                     99
                      A                      A                      A
 Frequencies --   3571.2958              3642.6151              3771.0801
 Red. masses --      1.0960                 1.0907                 1.0666
 Frc consts  --      8.2360                 8.5264                 8.9367
 IR Inten    --     21.0473               141.7251                31.5681

 - Thermochemistry -
 -------------------
 Temperature   298.150 Kelvin.  Pressure   1.00000 Atm.
 Atom     1 has atomic number  6 and mass  12.00000

 Molecular mass:   275.09398 amu.
 Principal axes and moments of inertia in atomic units:
                           1         2         3
     Eigenvalues --  2732.100667564.693068600.90786
           X            0.99997   0.00150  -0.00708
           Y           -0.00149   1.00000   0.00064
           Z            0.00708  -0.00063   0.99997
 This molecule is an asymmetric top.
 Rotational symmetry number  1.
 Warning -- assumption of classical behavior for rotation
           may cause significant error
 Rotational temperatures (Kelvin)      0.03170     0.01145     0.01007
 Rotational constants (GHZ):           0.66057     0.23857     0.20983
 Zero-point vibrational energy     754396.4 (Joules/Mol)
                                  180.30508 (Kcal/Mol)
 Warning -- explicit consideration of  31 degrees of freedom as
           vibrations may cause significant error
 Vibrational temperatures:     27.11    56.77    66.36   106.88   150.49
          (Kelvin)            192.15   230.91   240.72   264.18   292.17
                              334.62   360.52   376.71   406.29   410.50
                              422.10   453.83   499.40   514.82   527.52
                              560.93   613.76   645.49   669.97   719.67
                              752.42   773.90   800.72   820.88   853.66
                              859.14   924.98   969.58  1035.05  1069.37
                             1120.03  1133.07  1155.05  1230.07  1249.70
                             1259.81  1309.65  1323.92  1339.92  1363.60
                             1375.95  1478.83  1559.31  1566.97  1573.12
                             1583.93  1602.65  1618.18  1628.54  1660.86
                             1706.21  1717.69  1773.07  1825.07  1828.75
                             1842.21  1867.53  1911.09  1931.78  1938.44
                             1954.15  1986.46  2032.02  2046.83  2059.92
                             2105.75  2158.65  2166.22  2189.49  2194.73
                             2212.66  2218.49  2219.57  2327.21  2336.51
                             2371.01  2484.86  4284.85  4332.48  4340.10
                             4356.16  4416.01  4462.52  4475.93  4512.79
                             4599.66  4624.36  4660.19  4959.53  4984.48
                             5108.96  5138.30  5240.91  5425.74

 Zero-point correction=                           0.287334 (Hartree/Particle)
 Thermal correction to Energy=                    0.305575
 Thermal correction to Enthalpy=                  0.306519
 Thermal correction to Gibbs Free Energy=         0.240608
 Sum of electronic and zero-point Energies=          -1254.330036
 Sum of electronic and thermal Energies=             -1254.311795
 Sum of electronic and thermal Enthalpies=           -1254.310851
 Sum of electronic and thermal Free Energies=        -1254.376763

                     E (Thermal)             CV                S
                      KCal/Mol        Cal/Mol-Kelvin    Cal/Mol-Kelvin
 Total                  191.751             70.151            138.723
 Electronic               0.000              0.000              0.000
 Translational            0.889              2.981             42.734
 Rotational               0.889              2.981             33.541
 Vibrational            189.974             64.189             62.448
 Vibration     1          0.593              1.986              6.753
 Vibration     2          0.594              1.981              5.286
 Vibration     3          0.595              1.979              4.977
 Vibration     4          0.599              1.966              4.036
 Vibration     5          0.605              1.946              3.367
 Vibration     6          0.613              1.920              2.894
 Vibration     7          0.622              1.891              2.544
 Vibration     8          0.624              1.883              2.466
 Vibration     9          0.631              1.862              2.291
 Vibration    10          0.639              1.836              2.105
 Vibration    11          0.653              1.791              1.859
 Vibration    12          0.663              1.762              1.727
 Vibration    13          0.669              1.743              1.650
 Vibration    14          0.681              1.706              1.519
 Vibration    15          0.683              1.701              1.502
 Vibration    16          0.688              1.686              1.454
 Vibration    17          0.703              1.644              1.334
 Vibration    18          0.725              1.581              1.179
 Vibration    19          0.733              1.559              1.132
 Vibration    20          0.740              1.541              1.094
 Vibration    21          0.758              1.492              1.001
 Vibration    22          0.788              1.412              0.870
 Vibration    23          0.808              1.364              0.800
 Vibration    24          0.823              1.326              0.750
 Vibration    25          0.856              1.250              0.658
 Vibration    26          0.878              1.199              0.603
 Vibration    27          0.893              1.166              0.570
 Vibration    28          0.912              1.125              0.531
 Vibration    29          0.927              1.095              0.503
 Vibration    30          0.951              1.046              0.461
 Vibration    31          0.955              1.038              0.455

                           ! Non-Optimized Parameters !
 Normal termination of Gaussian 16 at Fri Dec 11 20:23:39 2020.

 ----------------------------------------------------------------------
 # B3LYP/6-311++G(d,p) empiricaldispersion=gd3bj scf=xqc pop=npa geom=c
 heck
 ----------------------------------------------------------------------

 ---------------------------------------
 CID_112674743_JID_8299_Energie_neutraal
 ---------------------------------------
 Structure from the checkpoint file:  "JID_8299.chk"
 Charge =  0 Multiplicity = 1

 SCF Done:  E(RB3LYP) =  -1254.91662924     A.U. after   16 cycles
 Normal termination of Gaussian 16 at Fri Dec 11 20:30:28 2020.

 ----------------------------------------------------------------------
 # B3LYP/6-311++G(d,p) empiricaldispersion=gd3bj scf=xqc pop=npa geom=c
 heck
 ----------------------------------------------------------------------

 -------------------------------------
 CID_112674743_JID_8299_Energie_kation
 -------------------------------------
 Structure from the checkpoint file:  "JID_8299.chk"
 Charge =  1 Multiplicity = 2

 SCF Done:  E(UB3LYP) =  -1254.65037875     A.U. after   22 cycles
 Normal termination of Gaussian 16 at Fri Dec 11 20:43:18 2020.
 Gaussian 16:  ES64L-G16RevA.03 25-Dec-2016

 ----------------------------------------------------------------------
 # B3LYP/6-311++G(d,p) empiricaldispersion=gd3bj scf=xqc pop=npa geom=c
 heck
 ----------------------------------------------------------------------

 ------------------------------------
 CID_112674743_JID_8299_Energie_anion
 ------------------------------------
 Structure from the checkpoint file:  "JID_8299.chk"
 Charge = -1 Multiplicity = 2

                         Standard orientation:
 ---------------------------------------------------------------------
 Center     Atomic      Atomic             Coordinates (Angstroms)
 Number     Number       Type             X           Y           Z
 ---------------------------------------------------------------------
      1          6           0       -0.914952    2.799371   -0.416093
      2          6           0        0.380694    2.289177   -0.556022
      3          6           0        0.659284    0.930088   -0.446460
      4          6           0       -0.405728    0.007956   -0.184999
      5          6           0       -1.712746    0.548909   -0.090574
      6          6           0       -1.964181    1.922503   -0.197072
      7         16           0       -3.135798   -0.499545    0.074044
      8          8           0       -4.304764    0.352893    0.322347
      9          8           0       -3.177352   -1.517650   -0.979477
     10          7           0       -2.741567   -1.394856    1.483428
     11          7           0       -0.142320   -1.322689   -0.064642
     12          7           0        1.976709    0.411437   -0.540523
     13          6           0        3.068943    1.180557    0.029259
     14          6           0        3.093267    1.067091    1.547402
     15          8           0        3.436799   -0.284806    1.878833
     16          6           0        2.298137   -0.471352   -1.661512
     17          6           0        3.169862   -1.653799   -1.202855
     18          8           0        2.670338   -2.252517   -0.015822
     19          1           0       -1.095463    3.865773   -0.501046
     20          1           0        1.196453    2.976016   -0.758555
     21          1           0       -2.985995    2.270597   -0.104801
     22          1           0       -2.950488   -0.838603    2.312801
     23          1           0       -3.328415   -2.230258    1.478810
     24          1           0       -0.848171   -1.899330    0.371860
     25          1           0        0.824636   -1.627437    0.043373
     26          1           0        4.011485    0.782089   -0.357747
     27          1           0        3.049962    2.244600   -0.250573
     28          1           0        3.838003    1.759938    1.964707
     29          1           0        2.105935    1.330205    1.948951
     30          1           0        3.241861   -0.436912    2.815092
     31          1           0        1.355452   -0.853550   -2.058128
     32          1           0        2.801421    0.067841   -2.482688
     33          1           0        3.176060   -2.422826   -1.982038
     34          1           0        4.212117   -1.333610   -1.054787
     35          1           0        2.882525   -1.625429    0.708742
 ---------------------------------------------------------------------

 SCF Done:  E(UB3LYP) =  -1254.91506033     A.U. after   33 cycles
 SCF Done:  E(UB3LYP) =  -1254.91506033     a.u. after    1 cycles

 The electronic state is 2-A.
 Alpha  occ. eigenvalues --  -88.96205 -19.03945 -19.02371 -19.01682 -19.01471
 Alpha  occ. eigenvalues --  -14.24427 -14.22378 -14.20987 -10.12965 -10.12700
 Alpha  occ. eigenvalues --  -10.12324 -10.11233 -10.11146 -10.10560 -10.09469
 Alpha  occ. eigenvalues --  -10.07610 -10.07235 -10.06828  -8.02385  -5.98699
 Alpha  occ. eigenvalues --   -5.98622  -5.98454  -1.01841  -0.94001  -0.92653
 Alpha  occ. eigenvalues --   -0.90850  -0.85409  -0.81774  -0.80673  -0.74395
 Alpha  occ. eigenvalues --   -0.67402  -0.67160  -0.64572  -0.60992  -0.57275
 Alpha  occ. eigenvalues --   -0.54122  -0.53151  -0.50245  -0.47824  -0.45030
 Alpha  occ. eigenvalues --   -0.44505  -0.42805  -0.42438  -0.41789  -0.40498
 Alpha  occ. eigenvalues --   -0.40043  -0.39590  -0.37853  -0.36746  -0.35645
 Alpha  occ. eigenvalues --   -0.35422  -0.34185  -0.33472  -0.32450  -0.31469
 Alpha  occ. eigenvalues --   -0.30140  -0.29532  -0.28792  -0.28277  -0.26956
 Alpha  occ. eigenvalues --   -0.26257  -0.25989  -0.23921  -0.23425  -0.21893
 Alpha  occ. eigenvalues --   -0.21548  -0.21143  -0.19812  -0.19523  -0.18862
 Alpha  occ. eigenvalues --   -0.17430  -0.13311  -0.09885   0.03729
 Alpha virt. eigenvalues --    0.05879   0.06363   0.06769   0.07373   0.08340
 Alpha virt. eigenvalues --    0.09261   0.09505   0.09885   0.10005   0.10549
 Alpha virt. eigenvalues --    0.11274   0.12194   0.12315   0.12934   0.13330

  Beta  occ. eigenvalues --  -88.96195 -19.03890 -19.02366 -19.01661 -19.01445
  Beta  occ. eigenvalues --  -14.24358 -14.22388 -14.20982 -10.12961 -10.12671
  Beta  occ. eigenvalues --  -10.12284 -10.11231 -10.11136 -10.10531 -10.09415
  Beta  occ. eigenvalues --  -10.07525 -10.07119 -10.06856  -8.02375  -5.98677
  Beta  occ. eigenvalues --   -5.98605  -5.98449  -1.01787  -0.93912  -0.92617
  Beta  occ. eigenvalues --   -0.90806  -0.85376  -0.81722  -0.80576  -0.74279
  Beta  occ. eigenvalues --   -0.67298  -0.67070  -0.64482  -0.60908  -0.57098
  Beta  occ. eigenvalues --   -0.54049  -0.53103  -0.50185  -0.47754  -0.44959
  Beta  occ. eigenvalues --   -0.44408  -0.42761  -0.42328  -0.41728  -0.40411
  Beta  occ. eigenvalues --   -0.39997  -0.39545  -0.37806  -0.36728  -0.35600
  Beta  occ. eigenvalues --   -0.35374  -0.34136  -0.33432  -0.32404  -0.31417
  Beta  occ. eigenvalues --   -0.30100  -0.29422  -0.28695  -0.28181  -0.26900
  Beta  occ. eigenvalues --   -0.26169  -0.25945  -0.23886  -0.23370  -0.21729
  Beta  occ. eigenvalues --   -0.21406  -0.21064  -0.19680  -0.19463  -0.18829
  Beta  occ. eigenvalues --   -0.17153  -0.13086  -0.09706
  Beta virt. eigenvalues --    0.06327   0.06692   0.07182   0.07398   0.07792
  Beta virt. eigenvalues --    0.08705   0.09239   0.09879   0.10058   0.10238
  Beta virt. eigenvalues --    0.10906   0.11415   0.12280   0.12636   0.12885

 Mulliken charges and spin densities:
               1          2
     1  C   -0.100222  -0.135673
     2  C   -0.205226  -0.023849
     3  C   -0.402198   0.258871
     4  C   -0.146188  -0.080749
     5  C   -0.857747  -0.010243
     6  C   -0.016887   0.277962
     7  S    0.885246  -0.676098
     8  O   -0.092973   0.000708
     9  O   -0.221001   0.015043
    10  N   -0.364113  -0.074385
    11  N   -0.373315   0.069629
    12  N    0.478270  -0.101720
    13  C   -1.053554   0.861098
    14  C    1.771355  -2.097753
    15  O   -0.340106   0.002988
    16  C   -0.239358   0.129626
    17  C   -0.086917  -0.266361
    18  O   -0.306692   0.007415
    19  H    0.078194   0.078199
    20  H    0.003579   0.077105
    21  H    0.210716   0.003014
    22  H   -0.067160   0.337283
    23  H    0.060069   0.228784
    24  H    0.238547   0.061317
    25  H    0.288658   0.045313
    26  H    0.165892   0.005809
    27  H   -0.151835   0.269946
    28  H   -0.648746   0.820545
    29  H   -0.139059   0.309352
    30  H   -0.271965   0.563966
    31  H    0.181608   0.013137
    32  H    0.080399   0.044739
    33  H    0.165171  -0.016936
    34  H    0.095759   0.052068
    35  H    0.381797  -0.050149
 Sum of Mulliken charges =  -1.00000   1.00000

 Dipole moment (field-independent basis, Debye):
    X=              0.5447    Y=              0.4527    Z=             -5.4659  Tot=              5.5116
 Quadrupole moment (field-independent basis, Debye-Ang):
   XX=           -188.7723   YY=           -147.7237   ZZ=           -154.4697
   XY=             -4.9729   XZ=            -25.4456   YZ=             -3.4178

 Summary of Natural Population Analysis:

                                       Natural Population
                Natural  -----------------------------------------------
    Atom  No    Charge         Core      Valence    Rydberg      Total
 -----------------------------------------------------------------------
      C    1   -0.13260      0.99957     2.12344    0.00960     3.13260
      C    2   -0.07849      0.99952     2.06972    0.00925     3.07849
      C    3    0.06510      0.99944     1.92369    0.01177     2.93490
      C    4    0.10116      0.99944     1.88691    0.01250     2.89884
      C    5   -0.16915      0.99936     2.15475    0.01504     3.16915
      C    6   -0.07639      0.99952     2.06758    0.00929     3.07639
      S    7    1.09430      4.99925     1.80536    0.10109     6.90570
      O    8   -0.46648      0.99991     3.46123    0.00534     4.46648
      O    9   -0.46436      0.99991     3.45885    0.00560     4.46436
      N   10   -0.51807      0.99979     3.00735    0.01093     4.01807
      N   11   -0.39629      0.99968     2.88801    0.00860     3.89629
      N   12   -0.28660      0.99966     2.77267    0.01427     3.78660
      C   13   -0.09149      0.99960     2.07964    0.01224     3.09149
      C   14   -0.01165      0.99959     1.99966    0.01240     3.01165
      O   15   -0.38407      0.99988     3.37647    0.00772     4.38407
      C   16   -0.09374      0.99961     2.08585    0.00828     3.09374
      C   17   -0.01644      0.99961     2.00476    0.01207     3.01644
      O   18   -0.38552      0.99989     3.37875    0.00688     4.38552
      H   19    0.09892      0.00000     0.40031    0.00077     0.40108
      H   20    0.09808      0.00000     0.40082    0.00110     0.40192
      H   21    0.11329      0.00000     0.38569    0.00102     0.38671
      H   22    0.19417      0.00000     0.30353    0.00230     0.30583
      H   23    0.19305      0.00000     0.30428    0.00267     0.30695
      H   24    0.20075      0.00000     0.29740    0.00186     0.29925
      H   25    0.20690      0.00000     0.29053    0.00257     0.29310
      H   26    0.09699      0.00000     0.40123    0.00178     0.40301
      H   27    0.09182      0.00000     0.40685    0.00133     0.40818
      H   28    0.08164      0.00000     0.41570    0.00267     0.41836
      H   29    0.08792      0.00000     0.40942    0.00266     0.41208
      H   30    0.24516      0.00000     0.24201    0.01283     0.25484
      H   31    0.10625      0.00000     0.39254    0.00121     0.39375
      H   32    0.08469      0.00000     0.41408    0.00123     0.41531
      H   33    0.08502      0.00000     0.41395    0.00103     0.41498
      H   34    0.07600      0.00000     0.42260    0.00140     0.42400
      H   35    0.25014      0.00000     0.24605    0.00381     0.24986
 =======================================================================
   * Total *    0.00000     21.99323    50.69166    0.31511    73.00000

 Normal termination of Gaussian 16 at Fri Dec 11 21:02:11 2020.
