 Gaussian 16, Revision A.03,

 -----------------------------------------------------------
 # opt freq B3LYP/6-31G(d) empiricaldispersion=gd3bj scf=xqc
 -----------------------------------------------------------

 ------------------------------
 CID_43176435_JID_8099_neutraal
 ------------------------------
 Symbolic Z-matrix:
 Charge =  0 Multiplicity = 1

 SCF Done:  E(RB3LYP) =  -835.197276209     A.U. after   15 cycles
 SCF Done:  E(RB3LYP) =  -835.202350828     A.U. after   13 cycles
 SCF Done:  E(RB3LYP) =  -835.202949195     A.U. after   12 cycles
 SCF Done:  E(RB3LYP) =  -835.203388352     A.U. after   12 cycles
 SCF Done:  E(RB3LYP) =  -835.203779093     A.U. after   12 cycles
 SCF Done:  E(RB3LYP) =  -835.204051846     A.U. after   12 cycles
 SCF Done:  E(RB3LYP) =  -835.204169103     A.U. after   12 cycles
 SCF Done:  E(RB3LYP) =  -835.204231412     A.U. after   11 cycles
 SCF Done:  E(RB3LYP) =  -835.204254073     A.U. after   11 cycles
 SCF Done:  E(RB3LYP) =  -835.204264784     A.U. after   10 cycles
 SCF Done:  E(RB3LYP) =  -835.204267010     A.U. after    8 cycles
 SCF Done:  E(RB3LYP) =  -835.204268877     A.U. after    9 cycles
 SCF Done:  E(RB3LYP) =  -835.204269985     A.U. after    9 cycles
 SCF Done:  E(RB3LYP) =  -835.204270150     A.U. after    8 cycles
 SCF Done:  E(RB3LYP) =  -835.204270172     A.U. after    7 cycles
 Optimization completed.
    -- Stationary point found.
 Normal termination of Gaussian 16 at Fri Dec 11 18:45:04 2020.

 --------------------------------------------------------------------
 #N Geom=AllCheck Guess=TCheck SCRF=Check GenChk RB3LYP/6-31G(d) Freq
 --------------------------------------------------------------------

 Structure from the checkpoint file:  "JID_8099.chk"
 ------------------------------
 CID_43176435_JID_8099_neutraal
 ------------------------------
 Charge =  0 Multiplicity = 1

 SCF Done:  E(RB3LYP) =  -835.204270172     A.U. after    1 cycles

  Exact polarizability: 228.075  -3.645 115.112  -5.829  23.688 122.545
 Approx polarizability: 311.933  -6.484 182.902 -13.009  61.951 213.620

                      1                      2                      3
                      A                      A                      A
 Frequencies --     23.9793                36.6868                41.5583
 Red. masses --      4.3855                 6.2203                 6.4486
 Frc consts  --      0.0015                 0.0049                 0.0066
 IR Inten    --      0.3504                 1.4876                 1.2921

                      4                      5                      6
                      A                      A                      A
 Frequencies --     59.7772                68.0359                77.4412
 Red. masses --      3.5310                 4.7103                 4.9513
 Frc consts  --      0.0074                 0.0128                 0.0175
 IR Inten    --      0.5341                 0.2414                 0.7766

                      7                      8                      9
                      A                      A                      A
 Frequencies --    121.2811               146.8343               183.2649
 Red. masses --      5.9155                 4.2732                 4.1586
 Frc consts  --      0.0513                 0.0543                 0.0823
 IR Inten    --      0.1558                 0.2703                 0.7330

                     10                     11                     12
                      A                      A                      A
 Frequencies --    221.1675               235.6827               265.3275
 Red. masses --      1.1051                 1.3129                 5.1427
 Frc consts  --      0.0318                 0.0430                 0.2133
 IR Inten    --      0.0836                 0.0420                 0.7248

                     13                     14                     15
                      A                      A                      A
 Frequencies --    286.4809               324.3399               337.5963
 Red. masses --      3.1739                 4.1734                 4.6390
 Frc consts  --      0.1535                 0.2587                 0.3115
 IR Inten    --      0.6430                 1.3341                 0.1432

                     16                     17                     18
                      A                      A                      A
 Frequencies --    373.5551               386.4315               413.8328
 Red. masses --      3.6494                 6.4739                 3.0018
 Frc consts  --      0.3000                 0.5696                 0.3029
 IR Inten    --      2.8951                 3.1848                 0.0018

                     19                     20                     21
                      A                      A                      A
 Frequencies --    424.1663               459.5038               497.8717
 Red. masses --      2.5844                 3.6757                 6.1051
 Frc consts  --      0.2740                 0.4573                 0.8916
 IR Inten    --      0.7339                 2.7347                 1.0443

                     22                     23                     24
                      A                      A                      A
 Frequencies --    519.7281               618.6535               635.0237
 Red. masses --      3.9118                 1.5464                 6.3583
 Frc consts  --      0.6226                 0.3487                 1.5107
 IR Inten    --      1.4955                71.0077                 0.4234

                     25                     26                     27
                      A                      A                      A
 Frequencies --    651.8221               703.8797               708.7222
 Red. masses --      3.4780                 8.3056                 1.9722
 Frc consts  --      0.8706                 2.4245                 0.5836
 IR Inten    --     66.8009                 1.8856                21.2226

                     28                     29                     30
                      A                      A                      A
 Frequencies --    711.6848               749.2548               754.3660
 Red. masses --      5.8533                 2.6950                 3.6405
 Frc consts  --      1.7467                 0.8914                 1.2206
 IR Inten    --     17.6634                25.4962                63.1311

                     31                     32                     33
                      A                      A                      A
 Frequencies --    811.1128               849.3668               866.5535
 Red. masses --      3.2088                 2.9616                 1.2489
 Frc consts  --      1.2438                 1.2588                 0.5526
 IR Inten    --      4.7099                33.1772                 0.0219

                     34                     35                     36
                      A                      A                      A
 Frequencies --    886.9621               925.1072               945.6879
 Red. masses --      3.1649                 2.8357                 1.4244
 Frc consts  --      1.4670                 1.4299                 0.7505
 IR Inten    --      7.1543                 7.2397                 2.5251

                     37                     38                     39
                      A                      A                      A
 Frequencies --    955.0410               973.8702               979.4984
 Red. masses --      1.2500                 1.8650                 1.3463
 Frc consts  --      0.6718                 1.0422                 0.7610
 IR Inten    --     16.9331                 8.8138                 0.0315

                     40                     41                     42
                      A                      A                      A
 Frequencies --    991.5242              1002.5364              1022.2008
 Red. masses --      1.7545                 1.2593                 6.8154
 Frc consts  --      1.0163                 0.7457                 4.1958
 IR Inten    --      0.9310                 0.3098                 1.4861

                     43                     44                     45
                      A                      A                      A
 Frequencies --   1028.3072              1054.1179              1069.8498
 Red. masses --      8.9754                 3.7373                 3.2879
 Frc consts  --      5.5918                 2.4468                 2.2173
 IR Inten    --      5.4143                31.9021                16.5434

                     46                     47                     48
                      A                      A                      A
 Frequencies --   1112.9315              1133.6556              1149.6798
 Red. masses --      1.6053                 2.7244                 2.1388
 Frc consts  --      1.1715                 2.0629                 1.6656
 IR Inten    --      6.9506                 0.1202               115.9715

                     49                     50                     51
                      A                      A                      A
 Frequencies --   1164.8456              1175.1285              1195.2439
 Red. masses --      2.8854                 4.3633                 1.1013
 Frc consts  --      2.3067                 3.5501                 0.9269
 IR Inten    --    130.6621                10.0340                 0.0219

                     52                     53                     54
                      A                      A                      A
 Frequencies --   1203.7974              1213.7197              1222.5391
 Red. masses --      1.8345                 1.1471                 2.9511
 Frc consts  --      1.5663                 0.9956                 2.5987
 IR Inten    --      7.5422                 6.4699                46.4613

                     55                     56                     57
                      A                      A                      A
 Frequencies --   1264.1216              1290.6754              1332.6480
 Red. masses --      6.1859                 1.4237                 2.3821
 Frc consts  --      5.8242                 1.3973                 2.4926
 IR Inten    --     21.1780                11.0140                 9.0062

                     58                     59                     60
                      A                      A                      A
 Frequencies --   1355.9279              1372.2696              1372.8770
 Red. masses --      2.1561                 1.3849                 2.1579
 Frc consts  --      2.3356                 1.5366                 2.3963
 IR Inten    --      9.2330                 3.5090                 2.6509

                     61                     62                     63
                      A                      A                      A
 Frequencies --   1393.0276              1405.8747              1410.6541
 Red. masses --      1.4358                11.3644                 2.9439
 Frc consts  --      1.6415                13.2340                 3.4515
 IR Inten    --      9.7423                13.0613                56.2519

                     64                     65                     66
                      A                      A                      A
 Frequencies --   1435.4587              1446.3088              1457.6848
 Red. masses --      1.2469                 1.9280                 1.2977
 Frc consts  --      1.5137                 2.3761                 1.6247
 IR Inten    --      2.7125                 4.6960                 8.7574

                     67                     68                     69
                      A                      A                      A
 Frequencies --   1499.0162              1514.3179              1520.7444
 Red. masses --      2.6316                 1.0778                 2.6405
 Frc consts  --      3.4840                 1.4563                 3.5979
 IR Inten    --     55.4994                 2.2736                46.3663

                     70                     71                     72
                      A                      A                      A
 Frequencies --   1525.2868              1534.0844              1542.4620
 Red. masses --      1.0540                 1.0562                 1.0443
 Frc consts  --      1.4447                 1.4645                 1.4638
 IR Inten    --      4.3817                 1.9162                12.7177

                     73                     74                     75
                      A                      A                      A
 Frequencies --   1577.9631              1645.1261              1672.1615
 Red. masses --      4.2518                 5.8000                 5.5826
 Frc consts  --      6.2375                 9.2485                 9.1969
 IR Inten    --     18.4121                 0.4119                 0.4918

                     76                     77                     78
                      A                      A                      A
 Frequencies --   1866.0813              3051.8506              3055.7945
 Red. masses --     10.1117                 1.0380                 1.0393
 Frc consts  --     20.7461                 5.6960                 5.7177
 IR Inten    --    197.0217                17.3683                22.8906

                     79                     80                     81
                      A                      A                      A
 Frequencies --   3079.7642              3117.6229              3124.8015
 Red. masses --      1.0824                 1.1009                 1.0991
 Frc consts  --      6.0489                 6.3046                 6.3234
 IR Inten    --      2.9669                 3.9905                32.5146

                     82                     83                     84
                      A                      A                      A
 Frequencies --   3132.5156              3136.4859              3142.6436
 Red. masses --      1.1025                 1.0864                 1.1011
 Frc consts  --      6.3738                 6.2971                 6.4072
 IR Inten    --     27.3697                 7.7971                26.3615

                     85                     86                     87
                      A                      A                      A
 Frequencies --   3186.6565              3197.5440              3208.7542
 Red. masses --      1.0854                 1.0894                 1.0940
 Frc consts  --      6.4942                 6.5627                 6.6364
 IR Inten    --      0.0286                15.8888                30.8564

                     88                     89                     90
                      A                      A                      A
 Frequencies --   3221.4282              3225.8763              3676.0774
 Red. masses --      1.0939                 1.0942                 1.0639
 Frc consts  --      6.6887                 6.7086                 8.4710
 IR Inten    --      7.4546                 4.0458                62.6000

 - Thermochemistry -
 -------------------
 Temperature   298.150 Kelvin.  Pressure   1.00000 Atm.
 Atom     1 has atomic number  6 and mass  12.00000

 Molecular mass:   246.11168 amu.
 Principal axes and moments of inertia in atomic units:
                           1         2         3
     Eigenvalues --  1936.805368758.651518947.76438
           X            0.99990   0.01289  -0.00594
           Y           -0.01310   0.99925  -0.03634
           Z            0.00547   0.03642   0.99932
 This molecule is an asymmetric top.
 Rotational symmetry number  1.
 Warning -- assumption of classical behavior for rotation
           may cause significant error
 Rotational temperatures (Kelvin)      0.04472     0.00989     0.00968
 Rotational constants (GHZ):           0.93181     0.20605     0.20170
 Zero-point vibrational energy     675673.7 (Joules/Mol)
                                  161.48988 (Kcal/Mol)
 Warning -- explicit consideration of  23 degrees of freedom as
           vibrations may cause significant error
 Vibrational temperatures:     34.50    52.78    59.79    86.01    97.89
          (Kelvin)            111.42   174.50   211.26   263.68   318.21
                              339.09   381.75   412.18   466.65   485.73
                              537.46   555.99   595.41   610.28   661.12
                              716.33   747.77   890.10   913.66   937.83
                             1012.73  1019.69  1023.96  1078.01  1085.36
                             1167.01  1222.05  1246.78  1276.14  1331.02
                             1360.63  1374.09  1401.18  1409.28  1426.58
                             1442.43  1470.72  1479.50  1516.64  1539.28
                             1601.26  1631.08  1654.13  1675.95  1690.75
                             1719.69  1732.00  1746.27  1758.96  1818.79
                             1856.99  1917.38  1950.88  1974.39  1975.26
                             2004.26  2022.74  2029.62  2065.30  2080.92
                             2097.28  2156.75  2178.77  2188.01  2194.55
                             2207.21  2219.26  2270.34  2366.97  2405.87
                             2684.87  4390.93  4396.61  4431.09  4485.56
                             4495.89  4506.99  4512.70  4521.56  4584.89
                             4600.55  4616.68  4634.92  4641.32  5289.06

 Zero-point correction=                           0.257351 (Hartree/Particle)
 Thermal correction to Energy=                    0.273671
 Thermal correction to Enthalpy=                  0.274615
 Thermal correction to Gibbs Free Energy=         0.211052
 Sum of electronic and zero-point Energies=           -834.946920
 Sum of electronic and thermal Energies=              -834.930599
 Sum of electronic and thermal Enthalpies=            -834.929655
 Sum of electronic and thermal Free Energies=         -834.993218

                     E (Thermal)             CV                S
                      KCal/Mol        Cal/Mol-Kelvin    Cal/Mol-Kelvin
 Total                  171.731             60.727            133.779
 Electronic               0.000              0.000              0.000
 Translational            0.889              2.981             42.403
 Rotational               0.889              2.981             33.384
 Vibrational            169.953             54.765             57.992
 Vibration     1          0.593              1.985              6.274
 Vibration     2          0.594              1.982              5.430
 Vibration     3          0.594              1.981              5.183
 Vibration     4          0.597              1.973              4.465
 Vibration     5          0.598              1.969              4.209
 Vibration     6          0.599              1.964              3.955
 Vibration     7          0.609              1.931              3.080
 Vibration     8          0.617              1.906              2.713
 Vibration     9          0.631              1.863              2.295
 Vibration    10          0.648              1.809              1.950
 Vibration    11          0.655              1.786              1.835
 Vibration    12          0.671              1.737              1.626
 Vibration    13          0.684              1.699              1.495
 Vibration    14          0.709              1.627              1.288
 Vibration    15          0.718              1.600              1.223
 Vibration    16          0.745              1.526              1.065
 Vibration    17          0.755              1.499              1.014
 Vibration    18          0.777              1.440              0.913
 Vibration    19          0.786              1.418              0.878
 Vibration    20          0.817              1.340              0.768
 Vibration    21          0.853              1.255              0.663
 Vibration    22          0.875              1.206              0.611
 Vibration    23          0.979              0.992              0.419

                           ! Non-Optimized Parameters !
 Normal termination of Gaussian 16 at Fri Dec 11 18:57:37 2020.

 ----------------------------------------------------------------------
 # B3LYP/6-311++G(d,p) empiricaldispersion=gd3bj scf=xqc pop=npa geom=c
 heck
 ----------------------------------------------------------------------

 --------------------------------------
 CID_43176435_JID_8099_Energie_neutraal
 --------------------------------------
 Structure from the checkpoint file:  "JID_8099.chk"
 Charge =  0 Multiplicity = 1

 SCF Done:  E(RB3LYP) =  -835.435617064     A.U. after   15 cycles
 Normal termination of Gaussian 16 at Fri Dec 11 19:03:38 2020.

 ----------------------------------------------------------------------
 # B3LYP/6-311++G(d,p) empiricaldispersion=gd3bj scf=xqc pop=npa geom=c
 heck
 ----------------------------------------------------------------------

 ------------------------------------
 CID_43176435_JID_8099_Energie_kation
 ------------------------------------
 Structure from the checkpoint file:  "JID_8099.chk"
 Charge =  1 Multiplicity = 2

 SCF Done:  E(UB3LYP) =  -835.126169622     A.U. after   26 cycles
 Normal termination of Gaussian 16 at Fri Dec 11 19:18:47 2020.
 Gaussian 16:  ES64L-G16RevA.03 25-Dec-2016

 ----------------------------------------------------------------------
 # B3LYP/6-311++G(d,p) empiricaldispersion=gd3bj scf=xqc pop=npa geom=c
 heck
 ----------------------------------------------------------------------

 -----------------------------------
 CID_43176435_JID_8099_Energie_anion
 -----------------------------------
 Structure from the checkpoint file:  "JID_8099.chk"
 Charge = -1 Multiplicity = 2

                         Standard orientation:
 ---------------------------------------------------------------------
 Center     Atomic      Atomic             Coordinates (Angstroms)
 Number     Number       Type             X           Y           Z
 ---------------------------------------------------------------------
      1          6           0        4.118581    1.563442    0.188154
      2          6           0        2.634571    1.334206   -0.123555
      3          6           0        2.200504    2.121875   -1.364407
      4          6           0        2.342948   -0.172185   -0.315866
      5          6           0        2.771381   -0.982831    0.907676
      6          8           0        2.171211   -1.037426    1.952321
      7          8           0        3.946456   -1.611090    0.678389
      8          7           0        0.928479   -0.407139   -0.569210
      9          7           0       -0.056970    0.164173    0.114540
     10          6           0       -1.135475   -0.383429   -0.452826
     11          7           0       -0.792177   -1.255438   -1.445458
     12          7           0        0.513582   -1.262604   -1.506765
     13          6           0       -2.514085   -0.083314   -0.065408
     14          6           0       -2.778137    0.797949    0.992635
     15          6           0       -4.092971    1.078661    1.353344
     16          6           0       -5.152903    0.484147    0.664767
     17          6           0       -4.891849   -0.394868   -0.388218
     18          6           0       -3.578971   -0.679769   -0.754739
     19          1           0        4.756623    1.182708   -0.618168
     20          1           0        4.427377    1.078057    1.119036
     21          1           0        4.312274    2.635658    0.292120
     22          1           0        2.035162    1.658810    0.734198
     23          1           0        2.761918    1.799853   -2.250025
     24          1           0        1.133723    1.998710   -1.569621
     25          1           0        2.392787    3.189383   -1.215285
     26          1           0        2.863167   -0.553531   -1.196530
     27          1           0        4.178297   -2.074164    1.506381
     28          1           0       -1.948396    1.251753    1.524461
     29          1           0       -4.291525    1.761272    2.174638
     30          1           0       -6.178054    0.704465    0.948735
     31          1           0       -5.713080   -0.860064   -0.925823
     32          1           0       -3.363588   -1.361029   -1.570887
 ---------------------------------------------------------------------

 SCF Done:  E(UB3LYP) =  -835.438074205     A.U. after   33 cycles
 SCF Done:  E(UB3LYP) =  -835.438074205     a.u. after    1 cycles

 The electronic state is 2-A.
 Alpha  occ. eigenvalues --  -19.07010 -19.01216 -14.29691 -14.25224 -14.21403
 Alpha  occ. eigenvalues --  -14.20631 -10.20103 -10.13312 -10.09546 -10.09470
 Alpha  occ. eigenvalues --  -10.07646 -10.07286 -10.06049 -10.05921 -10.05776
 Alpha  occ. eigenvalues --  -10.05419 -10.05300 -10.04998  -1.01709  -1.00827
 Alpha  occ. eigenvalues --   -0.92185  -0.82622  -0.77602  -0.73920  -0.71729
 Alpha  occ. eigenvalues --   -0.65253  -0.63117  -0.62684  -0.60312  -0.54774
 Alpha  occ. eigenvalues --   -0.53648  -0.51274  -0.48740  -0.47459  -0.46172
 Alpha  occ. eigenvalues --   -0.42446  -0.41942  -0.39563  -0.38750  -0.37762
 Alpha  occ. eigenvalues --   -0.35681  -0.34951  -0.33412  -0.33293  -0.32958
 Alpha  occ. eigenvalues --   -0.31491  -0.30841  -0.30469  -0.30320  -0.29954
 Alpha  occ. eigenvalues --   -0.27019  -0.26221  -0.25688  -0.25440  -0.24497
 Alpha  occ. eigenvalues --   -0.23546  -0.23045  -0.22612  -0.19692  -0.19493
 Alpha  occ. eigenvalues --   -0.18459  -0.17655  -0.16461  -0.14270  -0.11932
 Alpha  occ. eigenvalues --    0.04148
 Alpha virt. eigenvalues --    0.06015   0.07220   0.07715   0.08588   0.09055
 Alpha virt. eigenvalues --    0.09239   0.09375   0.09680   0.10489   0.10685
 Alpha virt. eigenvalues --    0.11667   0.11890   0.12423   0.12873   0.13703

  Beta  occ. eigenvalues --  -19.06937 -19.01160 -14.29436 -14.25136 -14.21473
  Beta  occ. eigenvalues --  -14.20201 -10.20014 -10.13323 -10.09488 -10.09444
  Beta  occ. eigenvalues --  -10.07633 -10.07286 -10.06098 -10.05804 -10.05755
  Beta  occ. eigenvalues --  -10.05397 -10.05124 -10.04885  -1.01432  -1.00636
  Beta  occ. eigenvalues --   -0.92058  -0.82345  -0.77163  -0.73726  -0.71627
  Beta  occ. eigenvalues --   -0.65036  -0.62942  -0.62510  -0.60284  -0.54535
  Beta  occ. eigenvalues --   -0.53353  -0.51156  -0.48653  -0.47246  -0.46002
  Beta  occ. eigenvalues --   -0.42254  -0.41728  -0.39422  -0.38569  -0.37521
  Beta  occ. eigenvalues --   -0.35401  -0.34613  -0.33309  -0.33136  -0.32850
  Beta  occ. eigenvalues --   -0.31404  -0.30803  -0.30413  -0.30232  -0.29885
  Beta  occ. eigenvalues --   -0.26865  -0.25994  -0.25356  -0.25294  -0.24418
  Beta  occ. eigenvalues --   -0.23395  -0.22984  -0.22364  -0.19188  -0.18265
  Beta  occ. eigenvalues --   -0.18003  -0.17296  -0.16371  -0.13837  -0.10888
  Beta virt. eigenvalues --    0.06521   0.07670   0.07964   0.08579   0.09051
  Beta virt. eigenvalues --    0.09242   0.09322   0.09479   0.10052   0.10503
  Beta virt. eigenvalues --    0.11410   0.11803   0.11898   0.12359   0.12810

 Mulliken charges and spin densities:
               1          2
     1  C   -0.442886  -0.214847
     2  C    0.127425   0.185444
     3  C   -0.603556  -0.004229
     4  C   -0.152384  -0.497693
     5  C    0.093125  -0.128603
     6  O   -0.280005   0.039268
     7  O   -0.139850   0.015228
     8  N    0.508520   0.059416
     9  N   -0.278665   0.250028
    10  C   -0.734361  -0.015756
    11  N   -0.167330  -0.043049
    12  N    0.316553   0.061846
    13  C    1.318567   0.038843
    14  C   -0.476032   0.158400
    15  C   -0.167247  -0.027433
    16  C   -0.493718   0.133891
    17  C   -0.392449   0.015527
    18  C   -0.428649   0.017076
    19  H    0.083940   0.056563
    20  H    0.020083   0.167931
    21  H    0.067947   0.066307
    22  H    0.240540  -0.040067
    23  H    0.137009  -0.003250
    24  H    0.178097  -0.000892
    25  H    0.122729   0.007739
    26  H    0.265009  -0.003440
    27  H   -0.428763   0.722625
    28  H    0.143415  -0.005825
    29  H    0.134348   0.002642
    30  H    0.108523  -0.011590
    31  H    0.123849  -0.001906
    32  H    0.196218  -0.000191
 Sum of Mulliken charges =  -1.00000   1.00000

 Dipole moment (field-independent basis, Debye):
    X=             -0.2746    Y=              4.9877    Z=             -1.7728  Tot=              5.3005
 Quadrupole moment (field-independent basis, Debye-Ang):
   XX=           -168.6966   YY=           -127.9843   ZZ=           -129.5501
   XY=             14.7273   XZ=             -9.8600   YZ=              2.9732

 Summary of Natural Population Analysis:

                                       Natural Population
                Natural  -----------------------------------------------
    Atom  No    Charge         Core      Valence    Rydberg      Total
 -----------------------------------------------------------------------
      C    1   -0.28586      0.99965     2.28047    0.00574     3.28586
      C    2   -0.11199      0.99960     2.10425    0.00815     3.11199
      C    3   -0.28474      0.99965     2.28037    0.00472     3.28474
      C    4   -0.05073      0.99951     2.03486    0.01636     3.05073
      C    5    0.41422      0.99970     1.55994    0.02614     2.58578
      O    6   -0.29035      0.99986     3.28471    0.00578     4.29035
      O    7   -0.34483      0.99988     3.33811    0.00684     4.34483
      N    8    0.01128      0.99968     2.47133    0.01770     3.48872
      N    9   -0.08360      0.99969     2.57339    0.01052     3.58360
      C   10    0.15326      0.99962     1.83035    0.01677     2.84674
      N   11   -0.16540      0.99972     2.65331    0.01238     3.66540
      N   12   -0.03670      0.99977     2.51977    0.01717     3.53670
      C   13   -0.02641      0.99948     2.01835    0.00858     3.02641
      C   14   -0.06871      0.99954     2.06119    0.00798     3.06871
      C   15   -0.11722      0.99958     2.10857    0.00907     3.11722
      C   16   -0.08036      0.99958     2.07114    0.00964     3.08036
      C   17   -0.10705      0.99958     2.09831    0.00916     3.10705
      C   18   -0.08523      0.99954     2.07764    0.00805     3.08523
      H   19    0.09770      0.00000     0.40157    0.00073     0.40230
      H   20    0.10470      0.00000     0.39455    0.00075     0.39530
      H   21    0.09739      0.00000     0.40193    0.00068     0.40261
      H   22    0.11042      0.00000     0.38782    0.00176     0.38958
      H   23    0.09434      0.00000     0.40490    0.00077     0.40566
      H   24    0.11076      0.00000     0.38852    0.00072     0.38924
      H   25    0.09657      0.00000     0.40274    0.00068     0.40343
      H   26    0.11701      0.00000     0.38139    0.00160     0.38299
      H   27    0.24436      0.00000     0.23705    0.01858     0.25564
      H   28    0.10565      0.00000     0.39320    0.00115     0.39435
      H   29    0.09329      0.00000     0.40572    0.00099     0.40671
      H   30    0.08997      0.00000     0.40903    0.00100     0.41003
      H   31    0.09235      0.00000     0.40664    0.00101     0.40765
      H   32    0.10592      0.00000     0.39275    0.00133     0.39408
 =======================================================================
   * Total *    0.00000     17.99363    46.77387    0.23250    65.00000

 Normal termination of Gaussian 16 at Fri Dec 11 19:38:25 2020.
