 Gaussian 16, Revision A.03,

 -----------------------------------------------------------
 # opt freq B3LYP/6-31G(d) empiricaldispersion=gd3bj scf=xqc
 -----------------------------------------------------------

 ------------------------------
 CID_154222335_JID_654_neutraal
 ------------------------------
 Symbolic Z-matrix:
 Charge =  0 Multiplicity = 1

 SCF Done:  E(RB3LYP) =  -441.218997620     A.U. after   13 cycles
 SCF Done:  E(RB3LYP) =  -441.223218103     A.U. after   11 cycles
 SCF Done:  E(RB3LYP) =  -441.223824172     A.U. after   11 cycles
 SCF Done:  E(RB3LYP) =  -441.224295082     A.U. after   10 cycles
 SCF Done:  E(RB3LYP) =  -441.224547572     A.U. after   11 cycles
 SCF Done:  E(RB3LYP) =  -441.224674260     A.U. after   10 cycles
 SCF Done:  E(RB3LYP) =  -441.224733568     A.U. after    9 cycles
 SCF Done:  E(RB3LYP) =  -441.224755855     A.U. after   10 cycles
 SCF Done:  E(RB3LYP) =  -441.224759661     A.U. after    9 cycles
 SCF Done:  E(RB3LYP) =  -441.224761213     A.U. after    8 cycles
 SCF Done:  E(RB3LYP) =  -441.224760973     A.U. after    8 cycles
 SCF Done:  E(RB3LYP) =  -441.224761284     A.U. after    7 cycles
 Optimization completed.
    -- Stationary point found.

 1\1\GINC-NODE309\FOpt\RB3LYP\6-31G(d)\C7H17N3\VSC10255\08-Dec-2020\0\\
 # opt freq B3LYP/6-31G(d) empiricaldispersion=gd3bj scf=xqc\\CID_15422
 2335_JID_654_neutraal\\0,1\C,0.5925730817,-0.0838871424,0.1048099154\N
 ,0.3116767421,1.2428069935,0.6164731098\C,-0.9755062174,1.7550813127,0
 .1911235712\C,0.7179691915,1.5129878993,1.9871031455\N,0.1203465229,0.
 8110028061,3.117463576\C,-1.3076650191,0.9794587998,3.3634569252\C,-1.
 6212587525,0.5409711449,4.7993855736\C,-1.1136224945,-0.8868509796,5.0
 434113427\C,0.3449057242,-1.0220915173,4.5795974528\N,0.5443539907,-0.

 Normal termination of Gaussian 16 at Tue Dec  8 12:23:33 2020.

 --------------------------------------------------------------------
 #N Geom=AllCheck Guess=TCheck SCRF=Check GenChk RB3LYP/6-31G(d) Freq
 --------------------------------------------------------------------

 Structure from the checkpoint file:  "JID_654.chk"
 ------------------------------
 CID_154222335_JID_654_neutraal
 ------------------------------
 Charge =  0 Multiplicity = 1

 SCF Done:  E(RB3LYP) =  -441.224761284     A.U. after    1 cycles

  Exact polarizability: 107.383   2.176  91.928   0.941  -1.452  82.305
 Approx polarizability: 129.759   2.833 127.999   1.387  -2.809 126.971

                      1                      2                      3
                      A                      A                      A
 Frequencies --     39.0499                98.8433               130.2898
 Red. masses --      2.8061                 3.6740                 2.5837
 Frc consts  --      0.0025                 0.0211                 0.0258
 IR Inten    --      0.1454                 1.0390                 0.4952

                      4                      5                      6
                      A                      A                      A
 Frequencies --    196.9804               243.0225               246.7735
 Red. masses --      2.7907                 1.5002                 2.0622
 Frc consts  --      0.0638                 0.0522                 0.0740
 IR Inten    --      2.3035                 0.9968                 2.7255

                      7                      8                      9
                      A                      A                      A
 Frequencies --    265.4623               280.1895               319.3212
 Red. masses --      1.3607                 1.1698                 2.6168
 Frc consts  --      0.0565                 0.0541                 0.1572
 IR Inten    --      3.1396                 4.3549                 2.9468

                     10                     11                     12
                      A                      A                      A
 Frequencies --    344.7115               417.8080               433.2504
 Red. masses --      2.7012                 2.5678                 2.0150
 Frc consts  --      0.1891                 0.2641                 0.2228
 IR Inten    --      4.2299                 0.4191                 2.9646

                     13                     14                     15
                      A                      A                      A
 Frequencies --    471.8372               498.2702               537.3481
 Red. masses --      2.3528                 1.8964                 1.8894
 Frc consts  --      0.3086                 0.2774                 0.3214
 IR Inten    --      2.9578                 0.7715                 3.5668

                     16                     17                     18
                      A                      A                      A
 Frequencies --    673.3075               766.0658               827.8404
 Red. masses --      2.9475                 3.8718                 3.7924
 Frc consts  --      0.7873                 1.3387                 1.5313
 IR Inten    --     20.3658                 6.1259                 5.3359

                     19                     20                     21
                      A                      A                      A
 Frequencies --    849.7169               864.5529               892.9463
 Red. masses --      1.5784                 2.5704                 2.4257
 Frc consts  --      0.6714                 1.1320                 1.1395
 IR Inten    --      1.2608                 1.1347                21.3441

                     22                     23                     24
                      A                      A                      A
 Frequencies --    915.4290               973.0555              1003.7074
 Red. masses --      1.4632                 2.2628                 2.0713
 Frc consts  --      0.7225                 1.2623                 1.2295
 IR Inten    --     27.9824                65.0636                35.8744

                     25                     26                     27
                      A                      A                      A
 Frequencies --   1024.4178              1062.1127              1066.1402
 Red. masses --      1.2957                 2.2469                 1.7690
 Frc consts  --      0.8012                 1.4934                 1.1847
 IR Inten    --     21.0610               115.4279                 3.8530

                     28                     29                     30
                      A                      A                      A
 Frequencies --   1094.8276              1098.9869              1135.2371
 Red. masses --      1.4621                 2.3950                 2.0856
 Frc consts  --      1.0325                 1.7042                 1.5836
 IR Inten    --      5.3809                15.5688                10.5683

                     31                     32                     33
                      A                      A                      A
 Frequencies --   1139.7454              1141.1825              1190.9868
 Red. masses --      1.7787                 1.7874                 1.4373
 Frc consts  --      1.3614                 1.3714                 1.2012
 IR Inten    --      7.5031                42.4068                 6.8207

                     34                     35                     36
                      A                      A                      A
 Frequencies --   1197.5116              1233.5782              1247.5073
 Red. masses --      1.8953                 1.4465                 1.7852
 Frc consts  --      1.6013                 1.2969                 1.6369
 IR Inten    --      8.8481                 1.1679                17.3230

                     37                     38                     39
                      A                      A                      A
 Frequencies --   1298.3417              1322.0553              1332.6692
 Red. masses --      2.6054                 1.2085                 1.4489
 Frc consts  --      2.5876                 1.2445                 1.5161
 IR Inten    --     14.5856                 2.9092                19.5881

                     40                     41                     42
                      A                      A                      A
 Frequencies --   1339.8823              1375.2134              1397.7045
 Red. masses --      2.4119                 1.3539                 1.3384
 Frc consts  --      2.5512                 1.5086                 1.5405
 IR Inten    --     42.5982                 0.8598                 2.7358

                     43                     44                     45
                      A                      A                      A
 Frequencies --   1399.4711              1403.8695              1419.2167
 Red. masses --      1.4447                 1.3711                 1.3069
 Frc consts  --      1.6671                 1.5921                 1.5509
 IR Inten    --      8.7703                19.5579                 4.2618

                     46                     47                     48
                      A                      A                      A
 Frequencies --   1425.9860              1469.0281              1471.5198
 Red. masses --      1.2334                 1.0929                 1.1477
 Frc consts  --      1.4776                 1.3896                 1.4643
 IR Inten    --      6.3748                 4.2138                 0.3353

                     49                     50                     51
                      A                      A                      A
 Frequencies --   1498.4995              1500.2699              1503.0751
 Red. masses --      1.0924                 1.0860                 1.0838
 Frc consts  --      1.4453                 1.4402                 1.4426
 IR Inten    --      4.2238                15.1899                13.8110

                     52                     53                     54
                      A                      A                      A
 Frequencies --   1505.5439              1511.9554              1519.6262
 Red. masses --      1.0951                 1.0932                 1.1120
 Frc consts  --      1.4624                 1.4723                 1.5129
 IR Inten    --      1.8224                15.0372                 1.1259

                     55                     56                     57
                      A                      A                      A
 Frequencies --   1524.1193              1529.5037              1545.0523
 Red. masses --      1.1106                 1.1273                 1.0634
 Frc consts  --      1.5200                 1.5538                 1.4956
 IR Inten    --      0.8909                 6.1621                 7.8206

                     58                     59                     60
                      A                      A                      A
 Frequencies --   1561.0929              2929.4812              2932.5185
 Red. masses --      1.0595                 1.0687                 1.0655
 Frc consts  --      1.5212                 5.4036                 5.3986
 IR Inten    --      5.8569                47.1003                64.1113

                     61                     62                     63
                      A                      A                      A
 Frequencies --   2961.8491              3019.3997              3045.8034
 Red. masses --      1.0603                 1.0667                 1.0615
 Frc consts  --      5.4801                 5.7298                 5.8017
 IR Inten    --    124.3182                29.6555                30.2782

                     64                     65                     66
                      A                      A                      A
 Frequencies --   3049.2332              3050.6914              3055.8759
 Red. masses --      1.0739                 1.0757                 1.0624
 Frc consts  --      5.8832                 5.8985                 5.8456
 IR Inten    --     61.5998                54.4923                44.1997

                     67                     68                     69
                      A                      A                      A
 Frequencies --   3060.2499              3074.7089              3082.8784
 Red. masses --      1.0638                 1.0928                 1.0880
 Frc consts  --      5.8696                 6.0870                 6.0924
 IR Inten    --     42.6416                66.1737                39.1324

                     70                     71                     72
                      A                      A                      A
 Frequencies --   3090.8219              3106.7558              3110.3425
 Red. masses --      1.1051                 1.1056                 1.0989
 Frc consts  --      6.2201                 6.2873                 6.2636
 IR Inten    --     38.1658                38.9028                34.1465

                     73                     74                     75
                      A                      A                      A
 Frequencies --   3122.5251              3134.4452              3322.5063
 Red. masses --      1.1044                 1.0968                 1.0726
 Frc consts  --      6.3441                 6.3490                 6.9759
 IR Inten    --     22.5985                23.0336                25.3484

 - Thermochemistry -
 -------------------
 Temperature   298.150 Kelvin.  Pressure   1.00000 Atm.
 Atom     1 has atomic number  6 and mass  12.00000

 Molecular mass:   143.14225 amu.
 Principal axes and moments of inertia in atomic units:
                           1         2         3
     Eigenvalues --   722.286222152.400922480.10644
           X            0.99998   0.00085   0.00576
           Y           -0.00079   0.99994  -0.01100
           Z           -0.00577   0.01099   0.99992
 This molecule is an asymmetric top.
 Rotational symmetry number  1.
 Warning -- assumption of classical behavior for rotation
           may cause significant error
 Rotational temperatures (Kelvin)      0.11992     0.04024     0.03492
 Rotational constants (GHZ):           2.49865     0.83848     0.72769
 Zero-point vibrational energy     657502.3 (Joules/Mol)
                                  157.14681 (Kcal/Mol)
 Warning -- explicit consideration of  15 degrees of freedom as
           vibrations may cause significant error
 Vibrational temperatures:     56.18   142.21   187.46   283.41   349.66
          (Kelvin)            355.05   381.94   403.13   459.43   495.96
                              601.13   623.35   678.87   716.90   773.12
                              968.74  1102.20  1191.08  1222.55  1243.90
                             1284.75  1317.10  1400.01  1444.11  1473.91
                             1528.14  1533.94  1575.21  1581.20  1633.35
                             1639.84  1641.91  1713.56  1722.95  1774.84
                             1794.88  1868.02  1902.14  1917.41  1927.79
                             1978.63  2010.98  2013.53  2019.86  2041.94
                             2051.68  2113.60  2117.19  2156.01  2158.55
                             2162.59  2166.14  2175.37  2186.40  2192.87
                             2200.61  2222.99  2246.06  4214.87  4219.24
                             4261.44  4344.24  4382.23  4387.17  4389.26
                             4396.72  4403.02  4423.82  4435.57  4447.00
                             4469.93  4475.09  4492.62  4509.77  4780.35

 Zero-point correction=                           0.250429 (Hartree/Particle)
 Thermal correction to Energy=                    0.261006
 Thermal correction to Enthalpy=                  0.261950
 Thermal correction to Gibbs Free Energy=         0.214488
 Sum of electronic and zero-point Energies=           -440.974332
 Sum of electronic and thermal Energies=              -440.963755
 Sum of electronic and thermal Enthalpies=            -440.962811
 Sum of electronic and thermal Free Energies=         -441.010274

                     E (Thermal)             CV                S
                      KCal/Mol        Cal/Mol-Kelvin    Cal/Mol-Kelvin
 Total                  163.784             40.632             99.893
 Electronic               0.000              0.000              0.000
 Translational            0.889              2.981             40.787
 Rotational               0.889              2.981             29.734
 Vibrational            162.006             34.671             29.371
 Vibration     1          0.594              1.981              5.307
 Vibration     2          0.604              1.950              3.477
 Vibration     3          0.612              1.923              2.942
 Vibration     4          0.636              1.844              2.161
 Vibration     5          0.659              1.774              1.781
 Vibration     6          0.661              1.768              1.754
 Vibration     7          0.671              1.736              1.626
 Vibration     8          0.680              1.710              1.533
 Vibration     9          0.705              1.637              1.314
 Vibration    10          0.723              1.586              1.190
 Vibration    11          0.781              1.432              0.899
 Vibration    12          0.794              1.398              0.848
 Vibration    13          0.829              1.313              0.732
 Vibration    14          0.854              1.254              0.662
 Vibration    15          0.892              1.167              0.571

 Optimization completed.
    -- Stationary point found.

 1\1\GINC-NODE309\Freq\RB3LYP\6-31G(d)\C7H17N3\VSC10255\08-Dec-2020\0\\
 #N Geom=AllCheck Guess=TCheck SCRF=Check GenChk RB3LYP/6-31G(d) Freq\\
 CID_154222335_JID_654_neutraal\\0,1\C,0.5925730817,-0.0838871424,0.104
 8099154\N,0.3116767421,1.2428069935,0.6164731098\C,-0.9755062174,1.755
 0813127,0.1911235712\C,0.7179691915,1.5129878993,1.9871031455\N,0.1203
 465229,0.8110028061,3.117463576\C,-1.3076650191,0.9794587998,3.3634569
 252\C,-1.6212587525,0.5409711449,4.7993855736\C,-1.1136224945,-0.88685
 09796,5.0434113427\C,0.3449057242,-1.0220915173,4.5795974528\N,0.54435

 Normal termination of Gaussian 16 at Tue Dec  8 12:29:11 2020.

 ----------------------------------------------------------------------
 # B3LYP/6-311++G(d,p) empiricaldispersion=gd3bj scf=xqc pop=npa geom=c
 heck
 ----------------------------------------------------------------------

 --------------------------------------
 CID_154222335_JID_654_Energie_neutraal
 --------------------------------------
 Structure from the checkpoint file:  "JID_654.chk"
 Charge =  0 Multiplicity = 1

 SCF Done:  E(RB3LYP) =  -441.350478509     A.U. after   12 cycles
 Normal termination of Gaussian 16 at Tue Dec  8 12:32:52 2020.

 ----------------------------------------------------------------------
 # B3LYP/6-311++G(d,p) empiricaldispersion=gd3bj scf=xqc pop=npa geom=c
 heck
 ----------------------------------------------------------------------

 ------------------------------------
 CID_154222335_JID_654_Energie_kation
 ------------------------------------
 Structure from the checkpoint file:  "JID_654.chk"
 Charge =  1 Multiplicity = 2

 SCF Done:  E(UB3LYP) =  -441.079150576     A.U. after   20 cycles
 Normal termination of Gaussian 16 at Tue Dec  8 12:43:45 2020.
 Gaussian 16:  ES64L-G16RevA.03 25-Dec-2016

 -----------------------------------
 CID_154222335_JID_654_Energie_anion
 -----------------------------------
 Structure from the checkpoint file:  "JID_654.chk"
 Charge = -1 Multiplicity = 2

                         Standard orientation:
 ---------------------------------------------------------------------
 Center     Atomic      Atomic             Coordinates (Angstroms)
 Number     Number       Type             X           Y           Z
 ---------------------------------------------------------------------
      1          6           0       -2.361375    1.225445   -0.659605
      2          7           0       -2.265288    0.074679    0.216365
      3          6           0       -2.608701   -1.170233   -0.441243
      4          6           0       -1.144813    0.052725    1.144132
      5          7           0        0.235504   -0.025208    0.679050
      6          6           0        0.652050   -1.208893   -0.064916
      7          6           0        2.183840   -1.287025   -0.060391
      8          6           0        2.785733    0.022128   -0.589315
      9          6           0        2.150455    1.227614    0.120573
     10          7           0        0.683981    1.192423    0.085559
     11          1           0       -3.398198    1.346032   -1.000890
     12          1           0       -1.729452    1.150995   -1.566199
     13          1           0       -2.064074    2.127663   -0.118430
     14          1           0       -1.975666   -1.412735   -1.314569
     15          1           0       -2.533232   -1.998650    0.271155
     16          1           0       -3.647287   -1.123581   -0.794674
     17          1           0       -1.194125    0.968342    1.740022
     18          1           0       -1.298255   -0.808132    1.805491
     19          1           0        0.287100   -1.188734   -1.110193
     20          1           0        0.218201   -2.093566    0.414683
     21          1           0        2.521076   -2.140785   -0.660938
     22          1           0        2.516631   -1.454615    0.971486
     23          1           0        3.875909    0.029816   -0.465319
     24          1           0        2.587541    0.103556   -1.668685
     25          1           0        2.443889    1.247483    1.175780
     26          1           0        2.472139    2.169717   -0.339312
     27          1           0        0.395300    1.213369   -0.901627
 ---------------------------------------------------------------------

 SCF Done:  E(UB3LYP) =  -441.333807609     A.U. after   25 cycles

 The electronic state is 2-A.
 Alpha  occ. eigenvalues --  -14.21518 -14.21448 -14.19350 -10.10694 -10.08367
 Alpha  occ. eigenvalues --  -10.08269 -10.07726 -10.07622 -10.05841 -10.05805
 Alpha  occ. eigenvalues --   -0.87865  -0.80910  -0.71273  -0.68313  -0.60820
 Alpha  occ. eigenvalues --   -0.59897  -0.54133  -0.53096  -0.48165  -0.46522
 Alpha  occ. eigenvalues --   -0.39684  -0.38805  -0.37099  -0.35433  -0.34665
 Alpha  occ. eigenvalues --   -0.33414  -0.32972  -0.31122  -0.29705  -0.28299
 Alpha  occ. eigenvalues --   -0.26959  -0.26560  -0.25977  -0.25666  -0.24303
 Alpha  occ. eigenvalues --   -0.22935  -0.21956  -0.14370  -0.12435  -0.09423
 Alpha  occ. eigenvalues --    0.04798
 Alpha virt. eigenvalues --    0.07112   0.07605   0.08441   0.09160   0.09457
 Alpha virt. eigenvalues --    0.10475   0.10755   0.10944   0.11695   0.12486
 Alpha virt. eigenvalues --    0.13067   0.13207   0.14332   0.14411   0.15336

  Beta  occ. eigenvalues --  -14.21503 -14.21439 -14.19349 -10.10684 -10.08353
  Beta  occ. eigenvalues --  -10.08243 -10.07691 -10.07583 -10.05816 -10.05786
  Beta  occ. eigenvalues --   -0.87841  -0.80894  -0.71243  -0.68269  -0.60776
  Beta  occ. eigenvalues --   -0.59838  -0.54080  -0.53039  -0.48102  -0.46457
  Beta  occ. eigenvalues --   -0.39635  -0.38757  -0.37062  -0.35388  -0.34624
  Beta  occ. eigenvalues --   -0.33373  -0.32929  -0.31092  -0.29657  -0.28263
  Beta  occ. eigenvalues --   -0.26916  -0.26527  -0.25935  -0.25623  -0.24273
  Beta  occ. eigenvalues --   -0.22891  -0.21912  -0.14327  -0.12391  -0.09393
  Beta virt. eigenvalues --    0.07136   0.07977   0.08457   0.08939   0.09906
  Beta virt. eigenvalues --    0.09987   0.10815   0.11101   0.11513   0.12291
  Beta virt. eigenvalues --    0.12751   0.13548   0.13689   0.14614   0.14845

 Mulliken charges and spin densities:
               1          2
     1  C    0.533661  -0.927844
     2  N   -0.249928   0.294888
     3  C    0.634148  -0.976056
     4  C    0.068835  -0.596940
     5  N    0.088170   0.069004
     6  C   -0.226386   0.056148
     7  C    0.757774  -1.259954
     8  C    0.004654  -0.196186
     9  C    0.280555  -0.690562
    10  N   -0.356761   0.149804
    11  H   -0.250090   0.388144
    12  H   -0.456069   0.580284
    13  H   -0.015051   0.166728
    14  H   -0.373283   0.493975
    15  H   -0.256307   0.391443
    16  H   -0.413867   0.554960
    17  H    0.132478   0.039397
    18  H   -0.040519   0.217984
    19  H    0.307525  -0.155916
    20  H   -0.298456   0.450370
    21  H   -0.455251   0.616977
    22  H    0.035912   0.095365
    23  H   -0.283402   0.434430
    24  H   -0.304853   0.430984
    25  H    0.078988   0.058668
    26  H   -0.288232   0.452604
    27  H    0.345753  -0.138699
 Sum of Mulliken charges =  -1.00000   1.00000

 Dipole moment (field-independent basis, Debye):
    X=              0.8409    Y=              1.7279    Z=              3.3003  Tot=              3.8190
 Quadrupole moment (field-independent basis, Debye-Ang):
   XX=           -126.7067   YY=           -105.5328   ZZ=            -98.7375
   XY=             -1.0279   XZ=              0.5463   YZ=              0.0154

 Summary of Natural Population Analysis:

                                       Natural Population
                Natural  -----------------------------------------------
    Atom  No    Charge         Core      Valence    Rydberg      Total
 -----------------------------------------------------------------------
      C    1   -0.17607      0.99964     2.16757    0.00886     3.17607
      N    2   -0.28695      0.99973     2.77341    0.01381     3.78695
      C    3   -0.17599      0.99964     2.16735    0.00900     3.17599
      C    4    0.01594      0.99960     1.96841    0.01606     2.98406
      N    5   -0.19983      0.99970     2.68632    0.01380     3.69983
      C    6   -0.09278      0.99961     2.08080    0.01238     3.09278
      C    7   -0.19279      0.99963     2.18335    0.00982     3.19279
      C    8   -0.19990      0.99963     2.19193    0.00834     3.19990
      C    9   -0.08893      0.99963     2.07633    0.01297     3.08893
      N   10   -0.24499      0.99975     2.73180    0.01344     3.74499
      H   11    0.09165      0.00000     0.40706    0.00129     0.40835
      H   12    0.07938      0.00000     0.41879    0.00184     0.42062
      H   13    0.09872      0.00000     0.40009    0.00119     0.40128
      H   14    0.08259      0.00000     0.41541    0.00200     0.41741
      H   15    0.09554      0.00000     0.40288    0.00158     0.40446
      H   16    0.09258      0.00000     0.40599    0.00143     0.40742
      H   17    0.09684      0.00000     0.40183    0.00134     0.40316
      H   18    0.09289      0.00000     0.40605    0.00106     0.40711
      H   19    0.08197      0.00000     0.41561    0.00242     0.41803
      H   20    0.09951      0.00000     0.39884    0.00165     0.40049
      H   21    0.09994      0.00000     0.39868    0.00139     0.40006
      H   22    0.09389      0.00000     0.40453    0.00158     0.40611
      H   23    0.09881      0.00000     0.39981    0.00139     0.40119
      H   24    0.09496      0.00000     0.40302    0.00202     0.40504
      H   25    0.09111      0.00000     0.40717    0.00172     0.40889
      H   26    0.09356      0.00000     0.40547    0.00097     0.40644
      H   27    0.15838      0.00000     0.33786    0.00376     0.34162
 =======================================================================
   * Total *   -0.00000      9.99656    29.85635    0.14709    40.00000

 Normal termination of Gaussian 16 at Tue Dec  8 12:50:17 2020.
