 Gaussian 16, Revision A.03,

 -----------------------------------------------------------
 # opt freq B3LYP/6-31G(d) empiricaldispersion=gd3bj scf=xqc
 -----------------------------------------------------------

 ------------------------------
 CID_89791209_JID_2937_neutraal
 ------------------------------
 Symbolic Z-matrix:
 Charge =  0 Multiplicity = 1

 SCF Done:  E(RB3LYP) =  -575.866653237     A.U. after   13 cycles
 SCF Done:  E(RB3LYP) =  -575.869293389     A.U. after   12 cycles
 SCF Done:  E(RB3LYP) =  -575.869613763     A.U. after   11 cycles
 SCF Done:  E(RB3LYP) =  -575.869905255     A.U. after   11 cycles
 SCF Done:  E(RB3LYP) =  -575.870278027     A.U. after   11 cycles
 SCF Done:  E(RB3LYP) =  -575.870389715     A.U. after   11 cycles
 SCF Done:  E(RB3LYP) =  -575.870561238     A.U. after   12 cycles
 SCF Done:  E(RB3LYP) =  -575.870606112     A.U. after   11 cycles
 SCF Done:  E(RB3LYP) =  -575.870618802     A.U. after   12 cycles
 SCF Done:  E(RB3LYP) =  -575.870731657     A.U. after   11 cycles
 SCF Done:  E(RB3LYP) =  -575.870766860     A.U. after   10 cycles
 SCF Done:  E(RB3LYP) =  -575.870774599     A.U. after   10 cycles
 SCF Done:  E(RB3LYP) =  -575.870770311     A.U. after   10 cycles
 SCF Done:  E(RB3LYP) =  -575.870774860     A.U. after   10 cycles
 SCF Done:  E(RB3LYP) =  -575.870774875     A.U. after    7 cycles
 Optimization completed.
    -- Stationary point found.

 1\1\GINC-NODE381\FOpt\RB3LYP\6-31G(d)\C9H12O3\VSC10255\09-Dec-2020\0\\
 # opt freq B3LYP/6-31G(d) empiricaldispersion=gd3bj scf=xqc\\CID_89791
 209_JID_2937_neutraal\\0,1\C,-1.1587508818,1.2434751991,0.0671010189\C
 ,0.2341561976,1.2961003027,0.0601075911\C,0.9720283185,0.117775107,0.2
 024471809\C,0.3084908562,-1.1058023709,0.3466488373\C,-1.080565474,-1.
 1448076864,0.3449540559\C,-1.8377063264,0.0301702099,0.2030413653\C,-3
 .3510182224,-0.0008461852,0.1961043054\C,-3.9828141663,-0.5003087447,-
 1.1146986422\C,-3.5199352897,-1.8861928847,-1.5677993973\O,-3.76859522

 Normal termination of Gaussian 16 at Wed Dec  9 18:15:52 2020.

 --------------------------------------------------------------------
 #N Geom=AllCheck Guess=TCheck SCRF=Check GenChk RB3LYP/6-31G(d) Freq
 --------------------------------------------------------------------

 Structure from the checkpoint file:  "JID_2937.chk"
 ------------------------------
 CID_89791209_JID_2937_neutraal
 ------------------------------
 Charge =  0 Multiplicity = 1

 SCF Done:  E(RB3LYP) =  -575.870774875     A.U. after    1 cycles

  Exact polarizability: 135.461  -2.977  99.635  -4.891  -9.900  67.660
 Approx polarizability: 195.848  -6.890 166.184 -15.248 -22.493 102.238

                      1                      2                      3
                      A                      A                      A
 Frequencies --     52.8928                74.4228                98.0957
 Red. masses --      3.9682                 8.9466                 4.2856
 Frc consts  --      0.0065                 0.0292                 0.0243
 IR Inten    --      0.4280                 5.5194                 1.5692

                      4                      5                      6
                      A                      A                      A
 Frequencies --    187.4046               212.4057               242.5590
 Red. masses --      4.7471                 4.0328                 3.7497
 Frc consts  --      0.0982                 0.1072                 0.1300
 IR Inten    --      1.6057                 1.2567                 0.6633

                      7                      8                      9
                      A                      A                      A
 Frequencies --    288.3306               324.0594               366.8447
 Red. masses --      3.5589                 2.7819                 1.2205
 Frc consts  --      0.1743                 0.1721                 0.0968
 IR Inten    --     12.0265                10.7442                45.4642

                     10                     11                     12
                      A                      A                      A
 Frequencies --    368.3611               407.4420               420.5717
 Red. masses --      1.1107                 4.1646                 3.7572
 Frc consts  --      0.0888                 0.4073                 0.3916
 IR Inten    --    142.3656                11.7109                 4.3742

                     13                     14                     15
                      A                      A                      A
 Frequencies --    427.9215               445.6127               506.1115
 Red. masses --      3.1501                 4.4350                 2.1925
 Frc consts  --      0.3399                 0.5189                 0.3309
 IR Inten    --      0.0981                 5.5050                13.9532

                     16                     17                     18
                      A                      A                      A
 Frequencies --    541.2588               573.2267               638.3284
 Red. masses --      1.3376                 2.1563                 3.4806
 Frc consts  --      0.2309                 0.4175                 0.8356
 IR Inten    --    114.5423                61.1788                 7.2018

                     19                     20                     21
                      A                      A                      A
 Frequencies --    658.2035               732.5358               789.1283
 Red. masses --      6.1205                 4.6827                 3.2751
 Frc consts  --      1.5623                 1.4805                 1.2016
 IR Inten    --      2.0427                 1.7886                 6.9128

                     22                     23                     24
                      A                      A                      A
 Frequencies --    815.6614               838.2376               861.3035
 Red. masses --      1.4522                 3.1642                 1.5903
 Frc consts  --      0.5692                 1.3099                 0.6951
 IR Inten    --     16.2819                 5.5104                28.1354

                     25                     26                     27
                      A                      A                      A
 Frequencies --    870.2656               905.1583               935.2240
 Red. masses --      3.5850                 2.0793                 1.3200
 Frc consts  --      1.5997                 1.0038                 0.6802
 IR Inten    --     12.3520                17.5111                 0.0711

                     28                     29                     30
                      A                      A                      A
 Frequencies --    971.0674               996.1552              1037.0539
 Red. masses --      2.7921                 1.3124                 2.6010
 Frc consts  --      1.5512                 0.7673                 1.6481
 IR Inten    --      0.8739                 1.0045                 2.0108

                     31                     32                     33
                      A                      A                      A
 Frequencies --   1054.5140              1110.0690              1112.3174
 Red. masses --      2.0109                 2.8241                 3.0854
 Frc consts  --      1.3175                 2.0504                 2.2492
 IR Inten    --     50.5344               102.1029                 6.4208

                     34                     35                     36
                      A                      A                      A
 Frequencies --   1146.2584              1209.3465              1212.5975
 Red. masses --      1.3800                 1.4048                 1.1749
 Frc consts  --      1.0683                 1.2105                 1.0178
 IR Inten    --      2.1953               152.0915                 8.3437

                     37                     38                     39
                      A                      A                      A
 Frequencies --   1222.7705              1228.2600              1263.4227
 Red. masses --      1.6685                 1.3068                 1.1635
 Frc consts  --      1.4698                 1.1616                 1.0942
 IR Inten    --     58.0210                52.6057                 0.9391

                     40                     41                     42
                      A                      A                      A
 Frequencies --   1295.0866              1315.9487              1345.6087
 Red. masses --      1.2349                 3.6246                 1.7802
 Frc consts  --      1.2204                 3.6981                 1.8992
 IR Inten    --      7.8064               117.9732                15.8040

                     43                     44                     45
                      A                      A                      A
 Frequencies --   1387.0038              1389.3494              1394.7992
 Red. masses --      1.3724                 1.5705                 1.5970
 Frc consts  --      1.5556                 1.7862                 1.8306
 IR Inten    --     33.4531                19.3295                 6.9918

                     46                     47                     48
                      A                      A                      A
 Frequencies --   1406.7426              1436.3578              1491.9080
 Red. masses --      1.5343                 1.4819                 1.7812
 Frc consts  --      1.7889                 1.8013                 2.3359
 IR Inten    --      2.2986                54.5043                42.4106

                     49                     50                     51
                      A                      A                      A
 Frequencies --   1493.5142              1508.1365              1558.7406
 Red. masses --      1.3156                 1.2312                 1.0876
 Frc consts  --      1.7290                 1.6499                 1.5569
 IR Inten    --      9.1644                90.5517                 2.2412

                     52                     53                     54
                      A                      A                      A
 Frequencies --   1570.0848              1650.3848              1680.2404
 Red. masses --      2.6450                 5.6946                 5.8523
 Frc consts  --      3.8416                 9.1387                 9.7347
 IR Inten    --     70.3530                23.9149                58.1148

                     55                     56                     57
                      A                      A                      A
 Frequencies --   3004.4306              3010.8510              3047.9631
 Red. masses --      1.0840                 1.0687                 1.0734
 Frc consts  --      5.7649                 5.7079                 5.8753
 IR Inten    --     51.7730                48.5736                22.9597

                     58                     59                     60
                      A                      A                      A
 Frequencies --   3062.3002              3096.7203              3167.3453
 Red. masses --      1.0828                 1.1041                 1.0873
 Frc consts  --      5.9826                 6.2380                 6.4266
 IR Inten    --     84.7968                33.4275                17.9763

                     61                     62                     63
                      A                      A                      A
 Frequencies --   3186.3829              3204.3808              3220.8726
 Red. masses --      1.0938                 1.0886                 1.0941
 Frc consts  --      6.5430                 6.5856                 6.6876
 IR Inten    --     17.6868                 0.3905                 5.8442

                     64                     65                     66
                      A                      A                      A
 Frequencies --   3653.4490              3740.7673              3750.5447
 Red. masses --      1.0666                 1.0660                 1.0659
 Frc consts  --      8.3880                 8.7889                 8.8341
 IR Inten    --    174.6892                14.2905                47.2679

 - Thermochemistry -
 -------------------
 Temperature   298.150 Kelvin.  Pressure   1.00000 Atm.
 Atom     1 has atomic number  6 and mass  12.00000

 Molecular mass:   168.07864 amu.
 Principal axes and moments of inertia in atomic units:
                           1         2         3
     Eigenvalues --   937.449033439.224873780.03014
           X            0.99998   0.00188   0.00589
           Y           -0.00172   0.99961  -0.02773
           Z           -0.00594   0.02772   0.99960
 This molecule is an asymmetric top.
 Rotational symmetry number  1.
 Warning -- assumption of classical behavior for rotation
           may cause significant error
 Rotational temperatures (Kelvin)      0.09239     0.02518     0.02291
 Rotational constants (GHZ):           1.92516     0.52475     0.47744
 Zero-point vibrational energy     527644.8 (Joules/Mol)
                                  126.11012 (Kcal/Mol)
 Warning -- explicit consideration of  17 degrees of freedom as
           vibrations may cause significant error
 Vibrational temperatures:     76.10   107.08   141.14   269.63   305.60
          (Kelvin)            348.99   414.84   466.25   527.81   529.99
                              586.22   605.11   615.68   641.14   728.18
                              778.75   824.75   918.41   947.01  1053.96
                             1135.38  1173.55  1206.04  1239.22  1252.12
                             1302.32  1345.58  1397.15  1433.25  1492.09
                             1517.21  1597.14  1600.38  1649.21  1739.98
                             1744.66  1759.29  1767.19  1817.78  1863.34
                             1893.36  1936.03  1995.59  1998.96  2006.80
                             2023.99  2066.60  2146.52  2148.83  2169.87
                             2242.68  2259.00  2374.54  2417.49  4322.71
                             4331.94  4385.34  4405.97  4455.49  4557.10
                             4584.49  4610.39  4634.12  5256.50  5382.13
                             5396.20

 Zero-point correction=                           0.200969 (Hartree/Particle)
 Thermal correction to Energy=                    0.212213
 Thermal correction to Enthalpy=                  0.213158
 Thermal correction to Gibbs Free Energy=         0.163877
 Sum of electronic and zero-point Energies=           -575.669806
 Sum of electronic and thermal Energies=              -575.658561
 Sum of electronic and thermal Enthalpies=            -575.657617
 Sum of electronic and thermal Free Energies=         -575.706897

                     E (Thermal)             CV                S
                      KCal/Mol        Cal/Mol-Kelvin    Cal/Mol-Kelvin
 Total                  133.166             43.960            103.719
 Electronic               0.000              0.000              0.000
 Translational            0.889              2.981             41.266
 Rotational               0.889              2.981             30.878
 Vibrational            131.389             37.999             31.575
 Vibration     1          0.596              1.976              4.706
 Vibration     2          0.599              1.966              4.033
 Vibration     3          0.604              1.951              3.492
 Vibration     4          0.632              1.857              2.253
 Vibration     5          0.643              1.822              2.023
 Vibration     6          0.659              1.775              1.784
 Vibration     7          0.685              1.695              1.484
 Vibration     8          0.709              1.627              1.290
 Vibration     9          0.740              1.540              1.093
 Vibration    10          0.741              1.537              1.087
 Vibration    11          0.772              1.454              0.936
 Vibration    12          0.783              1.426              0.890
 Vibration    13          0.789              1.409              0.865
 Vibration    14          0.805              1.371              0.809
 Vibration    15          0.861              1.236              0.643
 Vibration    16          0.896              1.159              0.563
 Vibration    17          0.929              1.089              0.498

 Optimization completed.
    -- Stationary point found.

 1\1\GINC-NODE381\Freq\RB3LYP\6-31G(d)\C9H12O3\VSC10255\09-Dec-2020\0\\
 #N Geom=AllCheck Guess=TCheck SCRF=Check GenChk RB3LYP/6-31G(d) Freq\\
 CID_89791209_JID_2937_neutraal\\0,1\C,-1.1587508818,1.2434751991,0.067
 1010189\C,0.2341561976,1.2961003027,0.0601075911\C,0.9720283185,0.1177
 75107,0.2024471809\C,0.3084908562,-1.1058023709,0.3466488373\C,-1.0805
 65474,-1.1448076864,0.3449540559\C,-1.8377063264,0.0301702099,0.203041
 3653\C,-3.3510182224,-0.0008461852,0.1961043054\C,-3.9828141663,-0.500
 3087447,-1.1146986422\C,-3.5199352897,-1.8861928847,-1.5677993973\O,-3

 Normal termination of Gaussian 16 at Wed Dec  9 18:21:21 2020.

 ----------------------------------------------------------------------
 # B3LYP/6-311++G(d,p) empiricaldispersion=gd3bj scf=xqc pop=npa geom=c
 heck
 ----------------------------------------------------------------------

 --------------------------------------
 CID_89791209_JID_2937_Energie_neutraal
 --------------------------------------
 Structure from the checkpoint file:  "JID_2937.chk"
 Charge =  0 Multiplicity = 1

 SCF Done:  E(RB3LYP) =  -576.058789541     A.U. after   14 cycles
 Normal termination of Gaussian 16 at Wed Dec  9 18:23:11 2020.

 ----------------------------------------------------------------------
 # B3LYP/6-311++G(d,p) empiricaldispersion=gd3bj scf=xqc pop=npa geom=c
 heck
 ----------------------------------------------------------------------

 ------------------------------------
 CID_89791209_JID_2937_Energie_kation
 ------------------------------------
 Structure from the checkpoint file:  "JID_2937.chk"
 Charge =  1 Multiplicity = 2

 SCF Done:  E(UB3LYP) =  -575.749533628     A.U. after   26 cycles
 Normal termination of Gaussian 16 at Wed Dec  9 18:27:54 2020.
 Gaussian 16:  ES64L-G16RevA.03 25-Dec-2016

 -----------------------------------
 CID_89791209_JID_2937_Energie_anion
 -----------------------------------
 Structure from the checkpoint file:  "JID_2937.chk"
 Charge = -1 Multiplicity = 2

                         Standard orientation:
 ---------------------------------------------------------------------
 Center     Atomic      Atomic             Coordinates (Angstroms)
 Number     Number       Type             X           Y           Z
 ---------------------------------------------------------------------
      1          6           0        1.058010    1.463841   -0.273747
      2          6           0        2.375331    1.019133   -0.373290
      3          6           0        2.687547   -0.300847   -0.036627
      4          6           0        1.676326   -1.167212    0.393559
      5          6           0        0.366065   -0.712824    0.481601
      6          6           0        0.034790    0.610954    0.147173
      7          6           0       -1.389475    1.115673    0.235770
      8          6           0       -2.312313    0.654927   -0.905684
      9          6           0       -2.401619   -0.860815   -1.092191
     10          8           0       -2.855592   -1.549893    0.065874
     11          8           0       -2.026588    0.687968    1.459920
     12          8           0        3.957267   -0.800022   -0.102841
     13          1           0        0.825950    2.495659   -0.527306
     14          1           0        3.159610    1.698887   -0.700737
     15          1           0        1.935067   -2.189702    0.648143
     16          1           0       -0.416269   -1.396607    0.796935
     17          1           0       -1.363945    2.215617    0.220053
     18          1           0       -3.311571    1.059734   -0.701856
     19          1           0       -1.955995    1.109049   -1.838505
     20          1           0       -3.102542   -1.078527   -1.908392
     21          1           0       -1.418641   -1.247611   -1.401721
     22          1           0       -2.706263   -0.954110    0.822375
     23          1           0       -1.367238    0.750537    2.169163
     24          1           0        4.553168   -0.104341   -0.421158
 ---------------------------------------------------------------------

 SCF Done:  E(UB3LYP) =  -576.049824195     A.U. after   33 cycles
 SCF Done:  E(UB3LYP) =  -576.049824195     a.u. after    1 cycles

 The electronic state is 2-A.
 Alpha  occ. eigenvalues --  -19.05028 -19.04421 -19.01410 -10.13780 -10.13779
 Alpha  occ. eigenvalues --  -10.11879 -10.08046 -10.08014 -10.07972 -10.07918
 Alpha  occ. eigenvalues --  -10.07493 -10.07257  -0.96145  -0.94614  -0.91586
 Alpha  occ. eigenvalues --   -0.76036  -0.69338  -0.65496  -0.64419  -0.58104
 Alpha  occ. eigenvalues --   -0.53168  -0.51709  -0.48748  -0.44944  -0.44023
 Alpha  occ. eigenvalues --   -0.40917  -0.37993  -0.37274  -0.36103  -0.34560
 Alpha  occ. eigenvalues --   -0.33239  -0.32799  -0.31499  -0.31083  -0.30703
 Alpha  occ. eigenvalues --   -0.28699  -0.27595  -0.25483  -0.24406  -0.23752
 Alpha  occ. eigenvalues --   -0.23234  -0.19276  -0.17572  -0.16065  -0.12752
 Alpha  occ. eigenvalues --    0.04316
 Alpha virt. eigenvalues --    0.06414   0.07491   0.07967   0.08046   0.08846
 Alpha virt. eigenvalues --    0.09239   0.09883   0.10620   0.11078   0.12293
 Alpha virt. eigenvalues --    0.12633   0.13375   0.14758   0.15642   0.16467

  Beta  occ. eigenvalues --  -19.04972 -19.04400 -19.01406 -10.13782 -10.13763
  Beta  occ. eigenvalues --  -10.11874 -10.08040 -10.08001 -10.07968 -10.07905
  Beta  occ. eigenvalues --  -10.07484 -10.07215  -0.96041  -0.94570  -0.91574
  Beta  occ. eigenvalues --   -0.76006  -0.69298  -0.65456  -0.64381  -0.58064
  Beta  occ. eigenvalues --   -0.53103  -0.51668  -0.48698  -0.44855  -0.43968
  Beta  occ. eigenvalues --   -0.40875  -0.37956  -0.37239  -0.36080  -0.34515
  Beta  occ. eigenvalues --   -0.33201  -0.32743  -0.31470  -0.31040  -0.30671
  Beta  occ. eigenvalues --   -0.28647  -0.27571  -0.25458  -0.24361  -0.23723
  Beta  occ. eigenvalues --   -0.23212  -0.19246  -0.17565  -0.16046  -0.12727
  Beta virt. eigenvalues --    0.06773   0.07760   0.08050   0.08300   0.08459
  Beta virt. eigenvalues --    0.08977   0.09781   0.10190   0.11041   0.11479
  Beta virt. eigenvalues --    0.12449   0.12847   0.13791   0.14931   0.15865

 Mulliken charges and spin densities:
               1          2
     1  C   -0.923797   0.805123
     2  C    1.052123  -1.009808
     3  C    2.444895  -3.020203
     4  C    0.120365  -0.569192
     5  C   -1.820124   1.215109
     6  C   -1.368072   2.497573
     7  C    2.693925  -2.820352
     8  C    0.317196  -0.813115
     9  C   -0.351826  -0.115552
    10  O   -0.236784   0.002646
    11  O   -0.248419   0.006172
    12  O   -0.294830   0.064286
    13  H   -0.508642   0.668653
    14  H   -1.647096   1.840343
    15  H    0.063829   0.122634
    16  H    0.097309   0.047546
    17  H   -0.531299   0.759950
    18  H    0.181107   0.003927
    19  H   -0.202048   0.366212
    20  H    0.035555   0.106933
    21  H    0.165081  -0.023694
    22  H    0.257953   0.018671
    23  H    0.033868   0.228546
    24  H   -0.330270   0.617590
 Sum of Mulliken charges =  -1.00000   1.00000

 Dipole moment (field-independent basis, Debye):
    X=             -6.6139    Y=             -4.4376    Z=              1.4730  Tot=              8.0998
 Quadrupole moment (field-independent basis, Debye-Ang):
   XX=           -156.9562   YY=           -114.5935   ZZ=            -96.7068
   XY=            -12.7544   XZ=              9.0181   YZ=              3.2193

 Summary of Natural Population Analysis:

                                       Natural Population
                Natural  -----------------------------------------------
    Atom  No    Charge         Core      Valence    Rydberg      Total
 -----------------------------------------------------------------------
      C    1   -0.08280      0.99952     2.07234    0.01094     3.08280
      C    2   -0.13112      0.99951     2.11933    0.01228     3.13112
      C    3    0.16149      0.99939     1.82532    0.01380     2.83851
      C    4   -0.12383      0.99952     2.11411    0.01021     3.12383
      C    5   -0.09862      0.99951     2.08877    0.01033     3.09862
      C    6   -0.06057      0.99948     2.04852    0.01257     3.06057
      C    7    0.05955      0.99951     1.92521    0.01574     2.94045
      C    8   -0.21008      0.99960     2.20043    0.01005     3.21008
      C    9   -0.01261      0.99960     2.00153    0.01148     3.01261
      O   10   -0.38538      0.99990     3.37867    0.00682     4.38538
      O   11   -0.38484      0.99989     3.37826    0.00669     4.38484
      O   12   -0.34049      0.99988     3.33351    0.00710     4.34049
      H   13    0.10494      0.00000     0.39236    0.00270     0.39506
      H   14    0.10997      0.00000     0.38096    0.00906     0.39003
      H   15    0.10385      0.00000     0.39498    0.00116     0.39615
      H   16    0.10652      0.00000     0.39099    0.00249     0.39348
      H   17    0.08902      0.00000     0.40807    0.00291     0.41098
      H   18    0.10121      0.00000     0.39767    0.00112     0.39879
      H   19    0.10847      0.00000     0.39047    0.00106     0.39153
      H   20    0.08112      0.00000     0.41761    0.00127     0.41888
      H   21    0.08064      0.00000     0.41785    0.00151     0.41936
      H   22    0.24256      0.00000     0.25398    0.00346     0.25744
      H   23    0.23806      0.00000     0.25898    0.00296     0.26194
      H   24    0.24293      0.00000     0.24343    0.01364     0.25707
 =======================================================================
   * Total *   -0.00000     11.99530    32.83333    0.17137    45.00000

 Normal termination of Gaussian 16 at Wed Dec  9 18:33:21 2020.
