 Gaussian 16, Revision A.03,

 -----------------------------------------------------------
 # opt freq B3LYP/6-31G(d) empiricaldispersion=gd3bj scf=xqc
 -----------------------------------------------------------

 -------------------------------
 CID_133626367_JID_1980_neutraal
 -------------------------------
 Symbolic Z-matrix:
 Charge =  0 Multiplicity = 1

 SCF Done:  E(RB3LYP) =  -465.870748216     A.U. after   14 cycles
 SCF Done:  E(RB3LYP) =  -465.848713218     A.U. after   15 cycles
 SCF Done:  E(RB3LYP) =  -465.872503142     A.U. after   12 cycles
 SCF Done:  E(RB3LYP) =  -465.873015239     A.U. after   11 cycles
 SCF Done:  E(RB3LYP) =  -465.873854043     A.U. after   12 cycles
 SCF Done:  E(RB3LYP) =  -465.874392902     A.U. after   12 cycles
 SCF Done:  E(RB3LYP) =  -465.874538220     A.U. after   11 cycles
 SCF Done:  E(RB3LYP) =  -465.874384529     A.U. after   12 cycles
 SCF Done:  E(RB3LYP) =  -465.874642652     A.U. after   11 cycles
 SCF Done:  E(RB3LYP) =  -465.874668313     A.U. after   10 cycles
 SCF Done:  E(RB3LYP) =  -465.874737659     A.U. after   11 cycles
 SCF Done:  E(RB3LYP) =  -465.874744783     A.U. after   10 cycles
 SCF Done:  E(RB3LYP) =  -465.874747627     A.U. after   10 cycles
 SCF Done:  E(RB3LYP) =  -465.874748337     A.U. after    9 cycles
 SCF Done:  E(RB3LYP) =  -465.874748919     A.U. after    9 cycles
 SCF Done:  E(RB3LYP) =  -465.874748984     A.U. after    8 cycles
 Optimization completed.
    -- Stationary point found.
 Normal termination of Gaussian 16 at Tue Dec  8 21:51:22 2020.

 --------------------------------------------------------------------
 #N Geom=AllCheck Guess=TCheck SCRF=Check GenChk RB3LYP/6-31G(d) Freq
 --------------------------------------------------------------------

 Structure from the checkpoint file:  "JID_1980.chk"
 -------------------------------
 CID_133626367_JID_1980_neutraal
 -------------------------------
 Charge =  0 Multiplicity = 1

 SCF Done:  E(RB3LYP) =  -465.874748984     A.U. after    1 cycles

  Exact polarizability: 103.528  -4.009 127.559   4.429  -8.358  85.913
 Approx polarizability: 137.614 -16.242 190.817   8.308 -21.582 127.352

                      1                      2                      3
                      A                      A                      A
 Frequencies --     27.2887                54.1857                76.1990
 Red. masses --      2.2006                 3.8570                 3.3910
 Frc consts  --      0.0010                 0.0067                 0.0116
 IR Inten    --      3.1277                 1.9722                 0.6388

                      4                      5                      6
                      A                      A                      A
 Frequencies --     81.8735                83.1205               111.6909
 Red. masses --      4.1428                 2.1475                 1.7250
 Frc consts  --      0.0164                 0.0087                 0.0127
 IR Inten    --      0.5128                 0.4399                 1.0333

                      7                      8                      9
                      A                      A                      A
 Frequencies --    136.1989               181.1508               223.6702
 Red. masses --      1.9309                 2.5411                 1.8418
 Frc consts  --      0.0211                 0.0491                 0.0543
 IR Inten    --      2.3713                 3.9421                15.1106

                     10                     11                     12
                      A                      A                      A
 Frequencies --    249.0356               280.3152               320.6668
 Red. masses --      1.8917                 1.8738                 1.9328
 Frc consts  --      0.0691                 0.0868                 0.1171
 IR Inten    --     10.3861                 0.7752                31.3435

                     13                     14                     15
                      A                      A                      A
 Frequencies --    338.7817               353.9488               393.2940
 Red. masses --      2.7156                 1.5977                 2.6729
 Frc consts  --      0.1836                 0.1179                 0.2436
 IR Inten    --     10.1518                46.5066                 1.3754

                     16                     17                     18
                      A                      A                      A
 Frequencies --    410.8871               481.2789               516.9523
 Red. masses --      2.5356                 3.7086                 3.1953
 Frc consts  --      0.2522                 0.5061                 0.5031
 IR Inten    --      0.4070                 7.6573                 6.0124

                     19                     20                     21
                      A                      A                      A
 Frequencies --    553.8403               574.4773               729.7173
 Red. masses --      2.2541                 3.2918                 3.1713
 Frc consts  --      0.4074                 0.6401                 0.9949
 IR Inten    --      2.7493                 4.1792                10.0052

                     22                     23                     24
                      A                      A                      A
 Frequencies --    780.4530               803.2680               867.7169
 Red. masses --      2.8616                 1.1589                 1.3528
 Frc consts  --      1.0270                 0.4406                 0.6001
 IR Inten    --      1.2738                 1.8590                 8.0851

                     25                     26                     27
                      A                      A                      A
 Frequencies --    888.5544               946.7416               962.2231
 Red. masses --      2.2493                 2.1012                 1.9040
 Frc consts  --      1.0463                 1.1097                 1.0387
 IR Inten    --      2.1334                10.4577                 0.4208

                     28                     29                     30
                      A                      A                      A
 Frequencies --    999.7920              1013.2210              1023.0108
 Red. masses --      1.6073                 1.9801                 1.8893
 Frc consts  --      0.9466                 1.1977                 1.1649
 IR Inten    --     33.6253                 3.1900                 2.8223

                     31                     32                     33
                      A                      A                      A
 Frequencies --   1044.2089              1054.8172              1088.9965
 Red. masses --      5.4717                 1.4130                 1.9910
 Frc consts  --      3.5152                 0.9263                 1.3912
 IR Inten    --     74.1945                 0.6865                 0.2767

                     34                     35                     36
                      A                      A                      A
 Frequencies --   1108.7964              1150.2610              1166.2757
 Red. masses --      1.8417                 1.7264                 3.2684
 Frc consts  --      1.3340                 1.3458                 2.6193
 IR Inten    --      8.4007                 8.1442                 5.7325

                     37                     38                     39
                      A                      A                      A
 Frequencies --   1191.9639              1225.7782              1245.0883
 Red. masses --      1.4441                 1.0921                 1.2177
 Frc consts  --      1.2088                 0.9668                 1.1122
 IR Inten    --      1.0123                17.7807                 1.5917

                     40                     41                     42
                      A                      A                      A
 Frequencies --   1266.3937              1300.6439              1354.9939
 Red. masses --      1.7388                 1.1683                 1.2932
 Frc consts  --      1.6430                 1.1645                 1.3989
 IR Inten    --      3.8553                 0.1102                 3.9804

                     43                     44                     45
                      A                      A                      A
 Frequencies --   1363.1158              1370.9187              1381.5618
 Red. masses --      1.2071                 1.5378                 1.3973
 Frc consts  --      1.3215                 1.7029                 1.5714
 IR Inten    --      5.5536                 3.9519                 9.9264

                     46                     47                     48
                      A                      A                      A
 Frequencies --   1414.1791              1429.3566              1436.3703
 Red. masses --      1.3005                 1.2411                 1.2390
 Frc consts  --      1.5324                 1.4940                 1.5061
 IR Inten    --      2.3886                44.8219                27.2025

                     49                     50                     51
                      A                      A                      A
 Frequencies --   1449.9682              1503.2589              1505.4455
 Red. masses --      1.3391                 1.0881                 1.0607
 Frc consts  --      1.6588                 1.4487                 1.4163
 IR Inten    --      4.0709                 4.5433                 5.4434

                     52                     53                     54
                      A                      A                      A
 Frequencies --   1508.5097              1518.7554              1525.8198
 Red. masses --      1.0786                 1.0761                 1.0835
 Frc consts  --      1.4461                 1.4624                 1.4862
 IR Inten    --      2.7872                 4.0220                 0.4287

                     55                     56                     57
                      A                      A                      A
 Frequencies --   1528.6945              1535.3962              1550.9332
 Red. masses --      1.0804                 1.0494                 1.0587
 Frc consts  --      1.4875                 1.4576                 1.5004
 IR Inten    --      4.9762                 8.6536                 5.0075

                     58                     59                     60
                      A                      A                      A
 Frequencies --   1754.5647              2366.4849              2989.4551
 Red. masses --      6.6627                11.8344                 1.0725
 Frc consts  --     12.0848                39.0486                 5.6469
 IR Inten    --      1.7200                 5.8961                63.2250

                     61                     62                     63
                      A                      A                      A
 Frequencies --   3019.7392              3031.9343              3036.4810
 Red. masses --      1.0667                 1.0594                 1.0424
 Frc consts  --      5.7310                 5.7381                 5.6629
 IR Inten    --     40.0681                21.0314                24.0534

                     64                     65                     66
                      A                      A                      A
 Frequencies --   3046.1815              3049.0704              3065.2464
 Red. masses --      1.0378                 1.0662                 1.1020
 Frc consts  --      5.6738                 5.8401                 6.1004
 IR Inten    --     43.2448                35.1217                23.4822

                     67                     68                     69
                      A                      A                      A
 Frequencies --   3076.1309              3079.0863              3084.5207
 Red. masses --      1.0959                 1.0974                 1.0893
 Frc consts  --      6.1099                 6.1302                 6.1061
 IR Inten    --     25.9333                29.8680                25.0326

                     70                     71                     72
                      A                      A                      A
 Frequencies --   3110.0240              3112.3047              3122.2494
 Red. masses --      1.0949                 1.1007                 1.1032
 Frc consts  --      6.2395                 6.2819                 6.3364
 IR Inten    --      8.8987                43.7569                33.7595

                     73                     74                     75
                      A                      A                      A
 Frequencies --   3135.5477              3153.7776              3761.1024
 Red. masses --      1.0890                 1.0941                 1.0660
 Frc consts  --      6.3081                 6.4119                 8.8843
 IR Inten    --     42.0655                24.5728                38.4691

 - Thermochemistry -
 -------------------
 Temperature   298.150 Kelvin.  Pressure   1.00000 Atm.
 Atom     1 has atomic number  6 and mass  12.00000

 Molecular mass:   152.12012 amu.
 Principal axes and moments of inertia in atomic units:
                           1         2         3
     Eigenvalues --  1743.819231987.374473189.80779
           X            0.99592   0.08983   0.00845
           Y           -0.08982   0.99596  -0.00141
           Z           -0.00854   0.00064   0.99996
 This molecule is an asymmetric top.
 Rotational symmetry number  1.
 Warning -- assumption of classical behavior for rotation
           may cause significant error
 Rotational temperatures (Kelvin)      0.04967     0.04358     0.02715
 Rotational constants (GHZ):           1.03494     0.90810     0.56578
 Zero-point vibrational energy     626113.2 (Joules/Mol)
                                  149.64465 (Kcal/Mol)
 Warning -- explicit consideration of  20 degrees of freedom as
           vibrations may cause significant error
 Vibrational temperatures:     39.26    77.96   109.63   117.80   119.59
          (Kelvin)            160.70   195.96   260.64   321.81   358.31
                              403.31   461.37   487.43   509.25   565.86
                              591.17   692.45   743.78   796.85   826.54
                             1049.90  1122.90  1155.72  1248.45  1278.43
                             1362.15  1384.42  1438.48  1457.80  1471.88
                             1502.38  1517.65  1566.82  1595.31  1654.97
                             1678.01  1714.97  1763.62  1791.40  1822.06
                             1871.34  1949.53  1961.22  1972.45  1987.76
                             2034.69  2056.53  2066.62  2086.18  2162.85
                             2166.00  2170.41  2185.15  2195.31  2199.45
                             2209.09  2231.45  2524.43  3404.84  4301.16
                             4344.73  4362.28  4368.82  4382.78  4386.93
                             4410.21  4425.87  4430.12  4437.94  4474.63
                             4477.91  4492.22  4511.35  4537.58  5411.39

 Zero-point correction=                           0.238474 (Hartree/Particle)
 Thermal correction to Energy=                    0.252208
 Thermal correction to Enthalpy=                  0.253153
 Thermal correction to Gibbs Free Energy=         0.197131
 Sum of electronic and zero-point Energies=           -465.636275
 Sum of electronic and thermal Energies=              -465.622541
 Sum of electronic and thermal Enthalpies=            -465.621596
 Sum of electronic and thermal Free Energies=         -465.677618

                     E (Thermal)             CV                S
                      KCal/Mol        Cal/Mol-Kelvin    Cal/Mol-Kelvin
 Total                  158.263             48.393            117.907
 Electronic               0.000              0.000              0.000
 Translational            0.889              2.981             40.968
 Rotational               0.889              2.981             30.781
 Vibrational            156.486             42.431             46.158
 Vibration     1          0.593              1.984              6.017
 Vibration     2          0.596              1.976              4.658
 Vibration     3          0.599              1.965              3.986
 Vibration     4          0.600              1.962              3.845
 Vibration     5          0.600              1.961              3.816
 Vibration     6          0.607              1.940              3.239
 Vibration     7          0.614              1.917              2.857
 Vibration     8          0.630              1.865              2.317
 Vibration     9          0.649              1.805              1.929
 Vibration    10          0.662              1.764              1.737
 Vibration    11          0.680              1.710              1.532
 Vibration    12          0.706              1.634              1.307
 Vibration    13          0.719              1.598              1.218
 Vibration    14          0.730              1.567              1.149
 Vibration    15          0.760              1.485              0.988
 Vibration    16          0.775              1.447              0.923
 Vibration    17          0.838              1.292              0.707
 Vibration    18          0.872              1.212              0.617
 Vibration    19          0.909              1.131              0.536
 Vibration    20          0.931              1.086              0.496

                           ! Non-Optimized Parameters !
 Normal termination of Gaussian 16 at Tue Dec  8 21:56:52 2020.

 ----------------------------------------------------------------------
 # B3LYP/6-311++G(d,p) empiricaldispersion=gd3bj scf=xqc pop=npa geom=c
 heck
 ----------------------------------------------------------------------

 ---------------------------------------
 CID_133626367_JID_1980_Energie_neutraal
 ---------------------------------------
 Structure from the checkpoint file:  "JID_1980.chk"
 Charge =  0 Multiplicity = 1

 SCF Done:  E(RB3LYP) =  -466.017396542     A.U. after   14 cycles
 Normal termination of Gaussian 16 at Tue Dec  8 21:58:57 2020.

 ----------------------------------------------------------------------
 # B3LYP/6-311++G(d,p) empiricaldispersion=gd3bj scf=xqc pop=npa geom=c
 heck
 ----------------------------------------------------------------------

 -------------------------------------
 CID_133626367_JID_1980_Energie_kation
 -------------------------------------
 Structure from the checkpoint file:  "JID_1980.chk"
 Charge =  1 Multiplicity = 2

 SCF Done:  E(UB3LYP) =  -465.706184296     A.U. after   23 cycles
 Normal termination of Gaussian 16 at Tue Dec  8 22:03:18 2020.
 Gaussian 16:  ES64L-G16RevA.03 25-Dec-2016

 ----------------------------------------------------------------------
 # B3LYP/6-311++G(d,p) empiricaldispersion=gd3bj scf=xqc pop=npa geom=c
 heck
 ----------------------------------------------------------------------

 ------------------------------------
 CID_133626367_JID_1980_Energie_anion
 ------------------------------------
 Structure from the checkpoint file:  "JID_1980.chk"
 Charge = -1 Multiplicity = 2

                         Standard orientation:
 ---------------------------------------------------------------------
 Center     Atomic      Atomic             Coordinates (Angstroms)
 Number     Number       Type             X           Y           Z
 ---------------------------------------------------------------------
      1          6           0       -1.317449   -2.372970   -0.709724
      2          6           0       -2.294754   -1.218102   -0.430507
      3          6           0       -1.644208   -0.045162    0.270702
      4          6           0       -1.526183    1.134203   -0.355812
      5          6           0       -0.821556    2.368106    0.131311
      6          6           0        0.570109    2.533692   -0.539216
      7          6           0        1.443414    1.392709   -0.273539
      8          6           0        2.118617    0.416218   -0.041260
      9          6           0        2.841113   -0.824850    0.249685
     10          8           0        2.143136   -1.991323   -0.183840
     11          6           0       -1.138517   -0.322783    1.664578
     12          1           0       -0.452674   -2.021537   -1.283896
     13          1           0       -1.803881   -3.167804   -1.285295
     14          1           0       -0.953295   -2.826756    0.219901
     15          1           0       -2.729054   -0.879466   -1.378202
     16          1           0       -3.126828   -1.599721    0.179916
     17          1           0       -1.920727    1.205696   -1.370689
     18          1           0       -1.415751    3.260382   -0.105304
     19          1           0       -0.684729    2.353393    1.216328
     20          1           0        1.039238    3.460158   -0.181960
     21          1           0        0.437622    2.650973   -1.623448
     22          1           0        3.803276   -0.844974   -0.273865
     23          1           0        3.062884   -0.876417    1.328366
     24          1           0        1.227934   -1.909196    0.125366
     25          1           0       -1.923207   -0.791522    2.273236
     26          1           0       -0.293972   -1.024030    1.651596
     27          1           0       -0.795442    0.575047    2.181361
 ---------------------------------------------------------------------

 SCF Done:  E(UB3LYP) =  -466.001563993     A.U. after   31 cycles

 The electronic state is 2-A.
 Alpha  occ. eigenvalues --  -19.02948 -10.14180 -10.09063 -10.07151 -10.07083
 Alpha  occ. eigenvalues --  -10.06773 -10.06715 -10.06223 -10.05887 -10.05881
 Alpha  occ. eigenvalues --  -10.05681  -0.93059  -0.72503  -0.69639  -0.65842
 Alpha  occ. eigenvalues --   -0.63347  -0.60174  -0.57493  -0.54438  -0.49932
 Alpha  occ. eigenvalues --   -0.43772  -0.41667  -0.38938  -0.37414  -0.36567
 Alpha  occ. eigenvalues --   -0.35253  -0.34939  -0.33659  -0.31573  -0.30361
 Alpha  occ. eigenvalues --   -0.29470  -0.29024  -0.27104  -0.26753  -0.26359
 Alpha  occ. eigenvalues --   -0.24875  -0.23833  -0.21970  -0.19686  -0.16402
 Alpha  occ. eigenvalues --   -0.15803  -0.13503   0.04671
 Alpha virt. eigenvalues --    0.06650   0.07154   0.08030   0.08976   0.09336
 Alpha virt. eigenvalues --    0.09773   0.10009   0.10711   0.11355   0.11943
 Alpha virt. eigenvalues --    0.12166   0.12636   0.13747   0.14128   0.14395

  Beta  occ. eigenvalues --  -19.02937 -10.14158 -10.09033 -10.07149 -10.07053
  Beta  occ. eigenvalues --  -10.06755 -10.06714 -10.06199 -10.05878 -10.05834
  Beta  occ. eigenvalues --  -10.05670  -0.93038  -0.72472  -0.69602  -0.65801
  Beta  occ. eigenvalues --   -0.63302  -0.60115  -0.57436  -0.54371  -0.49859
  Beta  occ. eigenvalues --   -0.43743  -0.41608  -0.38891  -0.37374  -0.36523
  Beta  occ. eigenvalues --   -0.35223  -0.34897  -0.33620  -0.31531  -0.30304
  Beta  occ. eigenvalues --   -0.29432  -0.28977  -0.27060  -0.26715  -0.26325
  Beta  occ. eigenvalues --   -0.24837  -0.23803  -0.21935  -0.19663  -0.16383
  Beta  occ. eigenvalues --   -0.15770  -0.13472
  Beta virt. eigenvalues --    0.06891   0.07523   0.07867   0.08601   0.09465
  Beta virt. eigenvalues --    0.09718   0.10295   0.10638   0.11070   0.11577
  Beta virt. eigenvalues --    0.12153   0.12579   0.13113   0.13949   0.14417

 Mulliken charges and spin densities:
               1          2
     1  C    0.181307  -0.744767
     2  C   -0.407348  -0.001645
     3  C   -0.036994   0.845051
     4  C    0.070753  -0.396754
     5  C    0.178798  -0.314769
     6  C   -0.344855  -0.220035
     7  C    0.551933  -0.460701
     8  C    0.079581   0.041651
     9  C    0.333394  -0.895530
    10  O   -0.286933   0.041279
    11  C    1.204841  -1.941918
    12  H    0.116626   0.030163
    13  H   -0.229921   0.374670
    14  H   -0.084961   0.225727
    15  H   -0.129759   0.288017
    16  H   -0.084600   0.205512
    17  H   -0.364238   0.534739
    18  H   -0.714486   0.887395
    19  H   -0.061471   0.207503
    20  H   -0.525710   0.709705
    21  H    0.028290   0.134841
    22  H    0.017027   0.146123
    23  H   -0.251458   0.416835
    24  H    0.274587  -0.029201
    25  H   -0.292634   0.441393
    26  H   -0.257045   0.379345
    27  H    0.035276   0.095374
 Sum of Mulliken charges =  -1.00000   1.00000

 Dipole moment (field-independent basis, Debye):
    X=              1.4112    Y=             -1.9921    Z=             -0.8579  Tot=              2.5877
 Quadrupole moment (field-independent basis, Debye-Ang):
   XX=           -114.3507   YY=           -127.8362   ZZ=           -105.2154
   XY=              1.8864   XZ=             -2.0787   YZ=              1.8170

 Summary of Natural Population Analysis:

                                       Natural Population
                Natural  -----------------------------------------------
    Atom  No    Charge         Core      Valence    Rydberg      Total
 -----------------------------------------------------------------------
      C    1   -0.28641      0.99966     2.28208    0.00468     3.28641
      C    2   -0.19735      0.99960     2.18904    0.00871     3.19735
      C    3   -0.00335      0.99948     1.99222    0.01165     3.00335
      C    4   -0.09795      0.99944     2.08746    0.01104     3.09795
      C    5   -0.19530      0.99961     2.18596    0.00973     3.19530
      C    6   -0.22078      0.99957     2.21238    0.00883     3.22078
      C    7    0.01316      0.99927     1.97918    0.00840     2.98684
      C    8   -0.03958      0.99923     2.03321    0.00713     3.03958
      C    9   -0.04123      0.99954     2.02865    0.01304     3.04123
      O   10   -0.36314      0.99990     3.35661    0.00662     4.36314
      C   11   -0.30027      0.99962     2.29322    0.00744     3.30027
      H   12    0.10015      0.00000     0.39830    0.00154     0.39985
      H   13    0.09906      0.00000     0.39985    0.00109     0.40094
      H   14    0.09464      0.00000     0.40388    0.00148     0.40536
      H   15    0.09847      0.00000     0.40020    0.00133     0.40153
      H   16    0.09621      0.00000     0.40244    0.00135     0.40379
      H   17    0.09294      0.00000     0.40546    0.00159     0.40706
      H   18    0.10361      0.00000     0.39408    0.00231     0.39639
      H   19    0.10037      0.00000     0.39789    0.00174     0.39963
      H   20    0.11309      0.00000     0.38505    0.00186     0.38691
      H   21    0.10936      0.00000     0.38901    0.00163     0.39064
      H   22    0.09528      0.00000     0.40330    0.00142     0.40472
      H   23    0.09017      0.00000     0.40799    0.00184     0.40983
      H   24    0.23244      0.00000     0.26373    0.00383     0.26756
      H   25    0.10226      0.00000     0.39633    0.00140     0.39774
      H   26    0.09856      0.00000     0.39914    0.00230     0.40144
      H   27    0.10558      0.00000     0.39314    0.00127     0.39442
 =======================================================================
   * Total *    0.00000     10.99491    30.87982    0.12527    42.00000

 Normal termination of Gaussian 16 at Tue Dec  8 22:09:03 2020.
