 Gaussian 16, Revision A.03,

 -----------------------------------------------------------
 # opt freq B3LYP/6-31G(d) empiricaldispersion=gd3bj scf=xqc
 -----------------------------------------------------------

 -------------------------------
 CID_102957957_JID_8129_neutraal
 -------------------------------
 Symbolic Z-matrix:
 Charge =  0 Multiplicity = 1

 SCF Done:  E(RB3LYP) =  -1128.51698348     A.U. after   15 cycles
 SCF Done:  E(RB3LYP) =  -1128.52221781     A.U. after   14 cycles
 SCF Done:  E(RB3LYP) =  -1128.52260950     A.U. after   14 cycles
 SCF Done:  E(RB3LYP) =  -1128.52283074     A.U. after   13 cycles
 SCF Done:  E(RB3LYP) =  -1128.52350581     A.U. after   13 cycles
 SCF Done:  E(RB3LYP) =  -1128.52356141     A.U. after   10 cycles
 SCF Done:  E(RB3LYP) =  -1128.52357244     A.U. after   10 cycles
 SCF Done:  E(RB3LYP) =  -1128.52358607     A.U. after    9 cycles
 SCF Done:  E(RB3LYP) =  -1128.52359493     A.U. after    9 cycles
 SCF Done:  E(RB3LYP) =  -1128.52360441     A.U. after   10 cycles
 SCF Done:  E(RB3LYP) =  -1128.52361542     A.U. after   10 cycles
 SCF Done:  E(RB3LYP) =  -1128.52361585     A.U. after    8 cycles
 SCF Done:  E(RB3LYP) =  -1128.52361593     A.U. after    8 cycles
 SCF Done:  E(RB3LYP) =  -1128.52361597     A.U. after    7 cycles
 SCF Done:  E(RB3LYP) =  -1128.52361597     A.U. after    7 cycles
 Optimization completed.
    -- Stationary point found.
 Normal termination of Gaussian 16 at Fri Dec 11 18:57:47 2020.

 --------------------------------------------------------------------
 #N Geom=AllCheck Guess=TCheck SCRF=Check GenChk RB3LYP/6-31G(d) Freq
 --------------------------------------------------------------------

 Structure from the checkpoint file:  "JID_8129.chk"
 -------------------------------
 CID_102957957_JID_8129_neutraal
 -------------------------------
 Charge =  0 Multiplicity = 1

 SCF Done:  E(RB3LYP) =  -1128.52361597     A.U. after    1 cycles

  Exact polarizability: 214.982  -5.746 202.465 -18.326  -6.809 125.207
 Approx polarizability: 297.123 -25.274 331.481 -37.979 -12.407 201.070

                      1                      2                      3
                      A                      A                      A
 Frequencies --     27.7582                48.7193                62.3903
 Red. masses --      5.8431                 2.4701                 5.5738
 Frc consts  --      0.0027                 0.0035                 0.0128
 IR Inten    --      1.3948                 0.7445                 1.4627

                      4                      5                      6
                      A                      A                      A
 Frequencies --     71.4835                92.7950               129.3954
 Red. masses --      2.6525                 3.9993                 3.5262
 Frc consts  --      0.0080                 0.0203                 0.0348
 IR Inten    --      1.0117                 2.0393                 0.3888

                      7                      8                      9
                      A                      A                      A
 Frequencies --    134.2445               189.3419               199.0110
 Red. masses --      2.8664                 2.7402                 1.7769
 Frc consts  --      0.0304                 0.0579                 0.0415
 IR Inten    --      0.3429                 0.6939                 0.4839

                     10                     11                     12
                      A                      A                      A
 Frequencies --    211.5594               231.6932               241.5664
 Red. masses --      1.0748                 4.6607                 3.8304
 Frc consts  --      0.0283                 0.1474                 0.1317
 IR Inten    --      0.0318                 2.5960                 2.7172

                     13                     14                     15
                      A                      A                      A
 Frequencies --    270.8331               279.1777               299.7966
 Red. masses --      4.5139                 3.3353                 3.0754
 Frc consts  --      0.1951                 0.1532                 0.1629
 IR Inten    --      5.7725                10.8116                 0.4632

                     16                     17                     18
                      A                      A                      A
 Frequencies --    318.6364               364.2188               381.2857
 Red. masses --      2.4412                 3.7078                 2.9285
 Frc consts  --      0.1460                 0.2898                 0.2508
 IR Inten    --      3.2262                 4.4575                 6.5993

                     19                     20                     21
                      A                      A                      A
 Frequencies --    392.7924               421.4429               440.8000
 Red. masses --      3.1656                 2.9668                 3.0790
 Frc consts  --      0.2878                 0.3105                 0.3525
 IR Inten    --      3.4759                 6.4199                 9.1312

                     22                     23                     24
                      A                      A                      A
 Frequencies --    469.3787               509.0248               535.2693
 Red. masses --      2.9168                 4.8048                 1.7521
 Frc consts  --      0.3786                 0.7335                 0.2958
 IR Inten    --      1.2055                 3.6346               118.5319

                     25                     26                     27
                      A                      A                      A
 Frequencies --    542.2972               549.9096               562.5518
 Red. masses --      3.0127                 2.4797                 3.7721
 Frc consts  --      0.5220                 0.4418                 0.7033
 IR Inten    --     26.1871                67.0769                11.3338

                     28                     29                     30
                      A                      A                      A
 Frequencies --    585.8399               643.8179               652.4911
 Red. masses --      3.1375                 5.7634                 4.4884
 Frc consts  --      0.6344                 1.4075                 1.1259
 IR Inten    --      6.7030                12.2450                 0.3677

                     31                     32                     33
                      A                      A                      A
 Frequencies --    704.4136               718.6935               777.2254
 Red. masses --      1.0754                 4.9681                 2.3029
 Frc consts  --      0.3144                 1.5119                 0.8196
 IR Inten    --     36.7278                 2.2670                21.7897

                     34                     35                     36
                      A                      A                      A
 Frequencies --    781.0556               794.4245               810.5732
 Red. masses --      1.7567                 2.3420                 2.6760
 Frc consts  --      0.6314                 0.8708                 1.0359
 IR Inten    --     15.1383                 4.3881                 1.1543

                     37                     38                     39
                      A                      A                      A
 Frequencies --    874.5243               888.7599               927.8689
 Red. masses --      1.8546                 1.6383                 3.0657
 Frc consts  --      0.8357                 0.7624                 1.5551
 IR Inten    --      1.2517                 1.3792                44.4487

                     40                     41                     42
                      A                      A                      A
 Frequencies --    939.5206               951.3552               963.0207
 Red. masses --      2.2652                 2.5831                 1.3676
 Frc consts  --      1.1781                 1.3774                 0.7473
 IR Inten    --      0.5529                39.6087                 1.1003

                     43                     44                     45
                      A                      A                      A
 Frequencies --    976.8985               992.3881              1002.8717
 Red. masses --      2.1668                 1.3008                 1.3438
 Frc consts  --      1.2184                 0.7548                 0.7963
 IR Inten    --     21.1969                 0.7432                 5.0083

                     46                     47                     48
                      A                      A                      A
 Frequencies --   1007.5656              1050.9636              1081.8551
 Red. masses --      1.9074                 1.8871                 3.4599
 Frc consts  --      1.1409                 1.2281                 2.3859
 IR Inten    --     15.0161                 2.6656                16.5389

                     49                     50                     51
                      A                      A                      A
 Frequencies --   1088.5597              1117.4832              1128.4944
 Red. masses --      2.3680                 2.3602                 3.0811
 Frc consts  --      1.6532                 1.7365                 2.3118
 IR Inten    --      5.8158                11.5444                41.7342

                     52                     53                     54
                      A                      A                      A
 Frequencies --   1150.6138              1158.9872              1179.1631
 Red. masses --      2.5388                 2.8713                 2.1837
 Frc consts  --      1.9804                 2.2724                 1.7889
 IR Inten    --     23.4413                74.4599                18.0709

                     55                     56                     57
                      A                      A                      A
 Frequencies --   1181.3348              1190.8308              1200.5491
 Red. masses --      1.8801                 1.3140                 1.2562
 Frc consts  --      1.5459                 1.0979                 1.0668
 IR Inten    --      0.3437                 3.3935                 7.2317

                     58                     59                     60
                      A                      A                      A
 Frequencies --   1205.2329              1226.1906              1237.7141
 Red. masses --      1.6103                 1.6230                 1.6222
 Frc consts  --      1.3781                 1.4378                 1.4642
 IR Inten    --     24.6634                17.8424                17.7263

                     61                     62                     63
                      A                      A                      A
 Frequencies --   1257.6195              1290.5619              1308.5845
 Red. masses --      2.0124                 1.3282                 1.6873
 Frc consts  --      1.8752                 1.3034                 1.7024
 IR Inten    --     60.7288                 4.0690                56.9638

                     64                     65                     66
                      A                      A                      A
 Frequencies --   1327.2672              1337.3277              1346.9600
 Red. masses --      2.9791                 1.6108                 1.3094
 Frc consts  --      3.0921                 1.6974                 1.3997
 IR Inten    --     23.4298                 9.5363                 1.5371

                     67                     68                     69
                      A                      A                      A
 Frequencies --   1365.2186              1373.5833              1377.5689
 Red. masses --      3.2060                 1.3629                 1.3262
 Frc consts  --      3.5206                 1.5151                 1.4829
 IR Inten    --     92.1435                 6.9968                 2.5144

                     70                     71                     72
                      A                      A                      A
 Frequencies --   1398.8120              1403.1394              1413.6553
 Red. masses --      1.3988                 2.5310                 1.5363
 Frc consts  --      1.6126                 2.9359                 1.8089
 IR Inten    --      3.1121               145.8086                10.1795

                     73                     74                     75
                      A                      A                      A
 Frequencies --   1426.6321              1436.9869              1443.1259
 Red. masses --      1.4989                 1.3646                 1.2964
 Frc consts  --      1.7974                 1.6602                 1.5907
 IR Inten    --      8.4409                 1.0382                 9.7895

                     76                     77                     78
                      A                      A                      A
 Frequencies --   1500.8640              1506.1514              1512.4947
 Red. masses --      2.4503                 1.1423                 1.1021
 Frc consts  --      3.2521                 1.5267                 1.4855
 IR Inten    --     50.9851                 0.4516                12.8412

                     79                     80                     81
                      A                      A                      A
 Frequencies --   1523.8952              1524.2941              1526.2679
 Red. masses --      1.2127                 1.0713                 1.1948
 Frc consts  --      1.6593                 1.4665                 1.6398
 IR Inten    --     14.2797                 6.9316                35.8709

                     82                     83                     84
                      A                      A                      A
 Frequencies --   1529.3778              1529.8167              1539.3977
 Red. masses --      1.3907                 1.0677                 1.1681
 Frc consts  --      1.9165                 1.4722                 1.6309
 IR Inten    --     44.7310                 8.4056                 1.0872

                     85                     86                     87
                      A                      A                      A
 Frequencies --   1542.5541              1627.0392              1648.2973
 Red. masses --      1.0753                 4.5963                 1.4995
 Frc consts  --      1.5075                 7.1689                 2.4003
 IR Inten    --      6.6154                20.9698               145.3488

                     88                     89                     90
                      A                      A                      A
 Frequencies --   1659.3547              2953.0561              2986.4657
 Red. masses --      3.9218                 1.0722                 1.0714
 Frc consts  --      6.3622                 5.5092                 5.6302
 IR Inten    --      8.6444                48.0057                28.2957

                     91                     92                     93
                      A                      A                      A
 Frequencies --   3010.8809              3025.2542              3038.2054
 Red. masses --      1.0689                 1.0480                 1.0632
 Frc consts  --      5.7092                 5.6511                 5.7822
 IR Inten    --      3.9141                59.3048                14.6162

                     94                     95                     96
                      A                      A                      A
 Frequencies --   3047.0523              3053.4358              3073.0204
 Red. masses --      1.0510                 1.0702                 1.1042
 Frc consts  --      5.7491                 5.8790                 6.1437
 IR Inten    --     24.5635                71.2447                50.1545

                     97                     98                     99
                      A                      A                      A
 Frequencies --   3085.5177              3107.2878              3109.9240
 Red. masses --      1.1020                 1.0901                 1.1011
 Frc consts  --      6.1816                 6.2012                 6.2747
 IR Inten    --     38.6191                23.5332                45.8621

                    100                    101                    102
                      A                      A                      A
 Frequencies --   3137.6241              3140.5336              3143.3599
 Red. masses --      1.1002                 1.0984                 1.0914
 Frc consts  --      6.3818                 6.3831                 6.3538
 IR Inten    --     28.0488                20.6987                 8.3626

                    103                    104                    105
                      A                      A                      A
 Frequencies --   3190.9373              3209.5555              3227.1664
 Red. masses --      1.0868                 1.0922                 1.0912
 Frc consts  --      6.5198                 6.6291                 6.6957
 IR Inten    --      5.7210                21.2616                11.0414

                    106                    107                    108
                      A                      A                      A
 Frequencies --   3230.7758              3460.8819              3658.2411
 Red. masses --      1.0936                 1.0543                 1.0955
 Frc consts  --      6.7252                 7.4403                 8.6382
 IR Inten    --      7.6368               168.4820                77.5263

 - Thermochemistry -
 -------------------
 Temperature   298.150 Kelvin.  Pressure   1.00000 Atm.
 Atom     1 has atomic number  6 and mass  12.00000

 Molecular mass:   264.12964 amu.
 Principal axes and moments of inertia in atomic units:
                           1         2         3
     Eigenvalues --  3205.243467033.585128663.97576
           X            0.99994   0.01099  -0.00261
           Y           -0.01098   0.99993   0.00505
           Z            0.00266  -0.00502   0.99998
 This molecule is an asymmetric top.
 Rotational symmetry number  1.
 Warning -- assumption of classical behavior for rotation
           may cause significant error
 Rotational temperatures (Kelvin)      0.02702     0.01231     0.01000
 Rotational constants (GHZ):           0.56306     0.25659     0.20830
 Zero-point vibrational energy     859724.3 (Joules/Mol)
                                  205.47904 (Kcal/Mol)
 Warning -- explicit consideration of  28 degrees of freedom as
           vibrations may cause significant error
 Vibrational temperatures:     39.94    70.10    89.77   102.85   133.51
          (Kelvin)            186.17   193.15   272.42   286.33   304.39
                              333.35   347.56   389.67   401.67   431.34
                              458.45   524.03   548.59   565.14   606.36
                              634.21   675.33   732.37   770.13   780.24
                              791.20   809.39   842.89   926.31   938.79
                             1013.49  1034.04  1118.25  1123.76  1143.00
                             1166.23  1258.25  1278.73  1335.00  1351.76
                             1368.79  1385.57  1405.54  1427.83  1442.91
                             1449.66  1512.10  1556.55  1566.19  1607.81
                             1623.65  1655.48  1667.52  1696.55  1699.68
                             1713.34  1727.32  1734.06  1764.21  1780.79
                             1809.43  1856.83  1882.76  1909.64  1924.12
                             1937.97  1964.25  1976.28  1982.01  2012.58
                             2018.80  2033.93  2052.61  2067.50  2076.34
                             2159.41  2167.02  2176.14  2192.55  2193.12
                             2195.96  2200.43  2201.07  2214.85  2219.39
                             2340.95  2371.53  2387.44  4248.79  4296.86
                             4331.99  4352.67  4371.30  4384.03  4393.21
                             4421.39  4439.37  4470.69  4474.49  4514.34
                             4518.53  4522.59  4591.05  4617.83  4643.17
                             4648.37  4979.44  5263.39

 Zero-point correction=                           0.327452 (Hartree/Particle)
 Thermal correction to Energy=                    0.344798
 Thermal correction to Enthalpy=                  0.345742
 Thermal correction to Gibbs Free Energy=         0.281911
 Sum of electronic and zero-point Energies=          -1128.196164
 Sum of electronic and thermal Energies=             -1128.178818
 Sum of electronic and thermal Enthalpies=           -1128.177874
 Sum of electronic and thermal Free Energies=        -1128.241705

                     E (Thermal)             CV                S
                      KCal/Mol        Cal/Mol-Kelvin    Cal/Mol-Kelvin
 Total                  216.364             67.485            134.343
 Electronic               0.000              0.000              0.000
 Translational            0.889              2.981             42.613
 Rotational               0.889              2.981             33.634
 Vibrational            214.587             61.523             58.095
 Vibration     1          0.593              1.984              5.984
 Vibration     2          0.595              1.978              4.869
 Vibration     3          0.597              1.972              4.380
 Vibration     4          0.598              1.968              4.112
 Vibration     5          0.602              1.954              3.600
 Vibration     6          0.612              1.924              2.955
 Vibration     7          0.613              1.919              2.884
 Vibration     8          0.633              1.855              2.234
 Vibration     9          0.637              1.841              2.142
 Vibration    10          0.643              1.823              2.030
 Vibration    11          0.653              1.793              1.866
 Vibration    12          0.658              1.777              1.791
 Vibration    13          0.675              1.727              1.591
 Vibration    14          0.679              1.712              1.539
 Vibration    15          0.692              1.674              1.418
 Vibration    16          0.705              1.638              1.317
 Vibration    17          0.738              1.546              1.104
 Vibration    18          0.751              1.510              1.034
 Vibration    19          0.760              1.486              0.990
 Vibration    20          0.784              1.424              0.887
 Vibration    21          0.801              1.381              0.824
 Vibration    22          0.826              1.318              0.739
 Vibration    23          0.864              1.230              0.636
 Vibration    24          0.890              1.172              0.576
 Vibration    25          0.897              1.157              0.560
 Vibration    26          0.905              1.140              0.544
 Vibration    27          0.918              1.112              0.519
 Vibration    28          0.943              1.062              0.475

 Optimization completed.
    -- Stationary point found.
 Normal termination of Gaussian 16 at Fri Dec 11 19:19:02 2020.

 ----------------------------------------------------------------------
 # B3LYP/6-311++G(d,p) empiricaldispersion=gd3bj scf=xqc pop=npa geom=c
 heck
 ----------------------------------------------------------------------

 ---------------------------------------
 CID_102957957_JID_8129_Energie_neutraal
 ---------------------------------------
 Structure from the checkpoint file:  "JID_8129.chk"
 Charge =  0 Multiplicity = 1

 SCF Done:  E(RB3LYP) =  -1128.74991897     A.U. after   17 cycles
 Normal termination of Gaussian 16 at Fri Dec 11 19:30:08 2020.

 ----------------------------------------------------------------------
 # B3LYP/6-311++G(d,p) empiricaldispersion=gd3bj scf=xqc pop=npa geom=c
 heck
 ----------------------------------------------------------------------

 -------------------------------------
 CID_102957957_JID_8129_Energie_kation
 -------------------------------------
 Structure from the checkpoint file:  "JID_8129.chk"
 Charge =  1 Multiplicity = 2

 SCF Done:  E(UB3LYP) =  -1128.46938357     A.U. after   33 cycles
 SCF Done:  E(UB3LYP) =  -1128.46938357     a.u. after    1 cycles
 Normal termination of Gaussian 16 at Fri Dec 11 20:02:38 2020.
 Gaussian 16:  ES64L-G16RevA.03 25-Dec-2016

 ----------------------------------------------------------------------
 # B3LYP/6-311++G(d,p) empiricaldispersion=gd3bj scf=xqc pop=npa geom=c
 heck
 ----------------------------------------------------------------------

 ------------------------------------
 CID_102957957_JID_8129_Energie_anion
 ------------------------------------
 Structure from the checkpoint file:  "JID_8129.chk"
 Charge = -1 Multiplicity = 2

                         Standard orientation:
 ---------------------------------------------------------------------
 Center     Atomic      Atomic             Coordinates (Angstroms)
 Number     Number       Type             X           Y           Z
 ---------------------------------------------------------------------
      1          6           0        4.417040   -0.102135   -0.935596
      2          6           0        3.110020   -0.593491   -0.312780
      3          6           0        2.322261   -1.504771   -1.266779
      4          6           0        0.991448   -1.951525   -0.663591
      5          7           0        0.181690   -0.779476   -0.321310
      6          6           0        0.869049    0.070092    0.671968
      7          6           0        2.203600    0.573122    0.107460
      8          8           0        2.823602    1.516078    0.973996
      9          6           0        3.298445    1.033979    2.219053
     10          6           0       -1.194017   -1.017634   -0.004997
     11          6           0       -1.623092   -2.279250    0.425649
     12          6           0       -2.957997   -2.518591    0.746437
     13          6           0       -3.887555   -1.484914    0.667140
     14          6           0       -3.472575   -0.224618    0.249877
     15          6           0       -2.143248    0.034012   -0.111372
     16          6           0       -1.824934    1.399850   -0.637970
     17         16           0       -2.637599    2.777303   -0.146802
     18          7           0       -0.859954    1.451764   -1.575655
     19          1           0        5.067708   -0.943562   -1.199072
     20          1           0        4.217145    0.468000   -1.851376
     21          1           0        4.959521    0.555487   -0.250745
     22          1           0        3.342997   -1.186521    0.584314
     23          1           0        2.128758   -0.971231   -2.207373
     24          1           0        2.921500   -2.388592   -1.516873
     25          1           0        1.191339   -2.579130    0.224205
     26          1           0        0.429279   -2.559783   -1.377912
     27          1           0        1.027472   -0.504214    1.599951
     28          1           0        0.240277    0.927453    0.917511
     29          1           0        1.977113    1.163300   -0.789910
     30          1           0        2.500680    0.605456    2.840301
     31          1           0        4.094038    0.284707    2.103980
     32          1           0        3.712146    1.901732    2.738319
     33          1           0       -0.904227   -3.083649    0.526229
     34          1           0       -3.261162   -3.509800    1.071937
     35          1           0       -4.928804   -1.655898    0.922102
     36          1           0       -4.180356    0.593006    0.176576
     37          1           0       -0.250287    0.644850   -1.693037
     38          1           0       -0.575202    2.362149   -1.910512
 ---------------------------------------------------------------------

 SCF Done:  E(UB3LYP) =  -1128.76073651     A.U. after   31 cycles

 The electronic state is 2-A.
 Alpha  occ. eigenvalues --  -88.63267 -19.03589 -14.21572 -14.18430 -10.12782
 Alpha  occ. eigenvalues --  -10.12668 -10.10430 -10.09204 -10.09044 -10.08498
 Alpha  occ. eigenvalues --  -10.08465 -10.07911 -10.07821 -10.04622 -10.03985
 Alpha  occ. eigenvalues --  -10.03827 -10.03703 -10.03210  -7.72045  -5.68396
 Alpha  occ. eigenvalues --   -5.67945  -5.67615  -0.94719  -0.84045  -0.79126
 Alpha  occ. eigenvalues --   -0.73343  -0.71195  -0.66641  -0.63874  -0.62968
 Alpha  occ. eigenvalues --   -0.61138  -0.58879  -0.57116  -0.52950  -0.52621
 Alpha  occ. eigenvalues --   -0.49097  -0.47853  -0.46236  -0.43385  -0.41805
 Alpha  occ. eigenvalues --   -0.40025  -0.39004  -0.38277  -0.37971  -0.36669
 Alpha  occ. eigenvalues --   -0.35861  -0.34856  -0.33634  -0.33292  -0.32408
 Alpha  occ. eigenvalues --   -0.31077  -0.30504  -0.29652  -0.29502  -0.28814
 Alpha  occ. eigenvalues --   -0.27394  -0.26278  -0.25821  -0.24366  -0.24303
 Alpha  occ. eigenvalues --   -0.23376  -0.22858  -0.21858  -0.21063  -0.20007
 Alpha  occ. eigenvalues --   -0.17657  -0.15169  -0.12955  -0.10077  -0.08171
 Alpha  occ. eigenvalues --   -0.05912   0.03827
 Alpha virt. eigenvalues --    0.05440   0.06894   0.07251   0.08315   0.08860
 Alpha virt. eigenvalues --    0.09752   0.10044   0.10465   0.10817   0.11374
 Alpha virt. eigenvalues --    0.11566   0.11902   0.12723   0.12844   0.13177

  Beta  occ. eigenvalues --  -88.63218 -19.03589 -14.21585 -14.18276 -10.12770
  Beta  occ. eigenvalues --  -10.12662 -10.10425 -10.09180 -10.09041 -10.08494
  Beta  occ. eigenvalues --  -10.08008 -10.07902 -10.07644 -10.04695 -10.03880
  Beta  occ. eigenvalues --  -10.03848 -10.03441 -10.03100  -7.72001  -5.68385
  Beta  occ. eigenvalues --   -5.67778  -5.67587  -0.94713  -0.83952  -0.78648
  Beta  occ. eigenvalues --   -0.73232  -0.71021  -0.66616  -0.63732  -0.62527
  Beta  occ. eigenvalues --   -0.61032  -0.58793  -0.56699  -0.52901  -0.52573
  Beta  occ. eigenvalues --   -0.48655  -0.47758  -0.46147  -0.43107  -0.41659
  Beta  occ. eigenvalues --   -0.39930  -0.38930  -0.38192  -0.37944  -0.36591
  Beta  occ. eigenvalues --   -0.35813  -0.34746  -0.33545  -0.33243  -0.32284
  Beta  occ. eigenvalues --   -0.31008  -0.30322  -0.29593  -0.29429  -0.28702
  Beta  occ. eigenvalues --   -0.27353  -0.26241  -0.25079  -0.24293  -0.24106
  Beta  occ. eigenvalues --   -0.23017  -0.22598  -0.21244  -0.20666  -0.19472
  Beta  occ. eigenvalues --   -0.17539  -0.14767  -0.12053  -0.09573  -0.07066
  Beta  occ. eigenvalues --   -0.05733
  Beta virt. eigenvalues --    0.05545   0.06903   0.07204   0.08269   0.08779
  Beta virt. eigenvalues --    0.09159   0.09714   0.10005   0.10463   0.10749
  Beta virt. eigenvalues --    0.11320   0.11815   0.11884   0.12678   0.12789

 Mulliken charges and spin densities:
               1          2
     1  C   -0.292728  -0.319845
     2  C    0.553186   0.226772
     3  C   -0.822711  -0.092137
     4  C    0.086037  -0.054863
     5  N    0.296978   0.027392
     6  C   -0.358667  -0.075125
     7  C   -0.944633  -0.138805
     8  O   -0.020527   0.014660
     9  C   -0.042157  -0.228056
    10  C    0.129525   0.115268
    11  C   -0.167344  -0.047524
    12  C   -0.351333   0.195204
    13  C   -0.400675  -0.006720
    14  C   -0.468587   0.115972
    15  C    0.695377  -0.037758
    16  C   -0.201981   0.233082
    17  S   -0.887266   0.173482
    18  N   -0.182235   0.107321
    19  H   -0.021349   0.152518
    20  H    0.128832   0.010388
    21  H    0.083931   0.055071
    22  H    0.079123   0.081684
    23  H    0.149062   0.002622
    24  H    0.077479   0.091422
    25  H    0.048174   0.047714
    26  H    0.175969   0.003888
    27  H    0.146178   0.013902
    28  H    0.220596   0.019688
    29  H    0.156138   0.081597
    30  H    0.073201   0.061329
    31  H    0.017546   0.104758
    32  H    0.090963   0.066025
    33  H    0.075553   0.026196
    34  H    0.118256  -0.014461
    35  H    0.118876   0.000505
    36  H    0.113410  -0.000129
    37  H    0.315416  -0.010609
    38  H    0.212383  -0.002429
 Sum of Mulliken charges =  -1.00000   1.00000

 Dipole moment (field-independent basis, Debye):
    X=              8.1692    Y=             -5.8189    Z=             -0.3742  Tot=             10.0367
 Quadrupole moment (field-independent basis, Debye-Ang):
   XX=           -174.8750   YY=           -158.6788   ZZ=           -130.1926
   XY=             13.2663   XZ=             -1.3268   YZ=              0.3605

 Summary of Natural Population Analysis:

                                       Natural Population
                Natural  -----------------------------------------------
    Atom  No    Charge         Core      Valence    Rydberg      Total
 -----------------------------------------------------------------------
      C    1   -0.28407      0.99965     2.27884    0.00558     3.28407
      C    2   -0.12703      0.99958     2.11757    0.00988     3.12703
      C    3   -0.18982      0.99961     2.18021    0.00999     3.18982
      C    4   -0.08246      0.99962     2.07128    0.01156     3.08246
      N    5   -0.28708      0.99968     2.77580    0.01160     3.78708
      C    6   -0.09344      0.99958     2.08316    0.01070     3.09344
      C    7    0.06738      0.99949     1.91749    0.01564     2.93262
      O    8   -0.29951      0.99988     3.28969    0.00994     4.29951
      C    9   -0.10068      0.99960     2.09263    0.00845     3.10068
      C   10    0.12133      0.99944     1.86780    0.01144     2.87867
      C   11   -0.14535      0.99953     2.13862    0.00720     3.14535
      C   12   -0.05144      0.99958     2.04291    0.00895     3.05144
      C   13   -0.12474      0.99957     2.11626    0.00892     3.12474
      C   14   -0.05291      0.99953     2.04519    0.00818     3.05291
      C   15   -0.04680      0.99942     2.03439    0.01299     3.04680
      C   16    0.12676      0.99961     1.85365    0.01998     2.87324
      S   17   -0.13731      4.99956     3.12387    0.01388     8.13731
      N   18   -0.37153      0.99966     2.86110    0.01077     3.87153
      H   19    0.09641      0.00000     0.40270    0.00089     0.40359
      H   20    0.09720      0.00000     0.40184    0.00096     0.40280
      H   21    0.10365      0.00000     0.39535    0.00100     0.39635
      H   22    0.09243      0.00000     0.40497    0.00259     0.40757
      H   23    0.09633      0.00000     0.40238    0.00130     0.40367
      H   24    0.09846      0.00000     0.40060    0.00093     0.40154
      H   25    0.08050      0.00000     0.41785    0.00165     0.41950
      H   26    0.10266      0.00000     0.39637    0.00097     0.39734
      H   27    0.08227      0.00000     0.41619    0.00154     0.41773
      H   28    0.11830      0.00000     0.38037    0.00133     0.38170
      H   29    0.09337      0.00000     0.40450    0.00213     0.40663
      H   30    0.08187      0.00000     0.41696    0.00117     0.41813
      H   31    0.07601      0.00000     0.42271    0.00127     0.42399
      H   32    0.08918      0.00000     0.40985    0.00097     0.41082
      H   33    0.09477      0.00000     0.40377    0.00147     0.40523
      H   34    0.08705      0.00000     0.41155    0.00141     0.41295
      H   35    0.09238      0.00000     0.40666    0.00096     0.40762
      H   36    0.11025      0.00000     0.38854    0.00121     0.38975
      H   37    0.19725      0.00000     0.30061    0.00214     0.30275
      H   38    0.18833      0.00000     0.30987    0.00180     0.31167
 =======================================================================
   * Total *   -0.00000     21.99258    48.78410    0.22331    71.00000

 Normal termination of Gaussian 16 at Fri Dec 11 20:32:54 2020.
