 Gaussian 16, Revision A.03,

 -----------------------------------------------------------
 # opt freq B3LYP/6-31G(d) empiricaldispersion=gd3bj scf=xqc
 -----------------------------------------------------------

 ------------------------------
 CID_63175984_JID_6917_neutraal
 ------------------------------
 Symbolic Z-matrix:
 Charge =  0 Multiplicity = 1

 SCF Done:  E(RB3LYP) =  -1089.36714790     A.U. after   14 cycles
 SCF Done:  E(RB3LYP) =  -1089.37372009     A.U. after   12 cycles
 SCF Done:  E(RB3LYP) =  -1089.37443015     A.U. after   12 cycles
 SCF Done:  E(RB3LYP) =  -1089.37473614     A.U. after   11 cycles
 SCF Done:  E(RB3LYP) =  -1089.37482006     A.U. after   11 cycles
 SCF Done:  E(RB3LYP) =  -1089.37485492     A.U. after   10 cycles
 SCF Done:  E(RB3LYP) =  -1089.37486629     A.U. after    9 cycles
 SCF Done:  E(RB3LYP) =  -1089.37487099     A.U. after    9 cycles
 SCF Done:  E(RB3LYP) =  -1089.37487226     A.U. after    8 cycles
 SCF Done:  E(RB3LYP) =  -1089.37487364     A.U. after    9 cycles
 SCF Done:  E(RB3LYP) =  -1089.37487448     A.U. after    8 cycles
 SCF Done:  E(RB3LYP) =  -1089.37487465     A.U. after    7 cycles
 SCF Done:  E(RB3LYP) =  -1089.37487467     A.U. after    7 cycles
 SCF Done:  E(RB3LYP) =  -1089.37487464     A.U. after    6 cycles
 Optimization completed.
    -- Stationary point found.
 Normal termination of Gaussian 16 at Fri Dec 11 01:12:14 2020.

 --------------------------------------------------------------------
 #N Geom=AllCheck Guess=TCheck SCRF=Check GenChk RB3LYP/6-31G(d) Freq
 --------------------------------------------------------------------

 Structure from the checkpoint file:  "JID_6917.chk"
 ------------------------------
 CID_63175984_JID_6917_neutraal
 ------------------------------
 Charge =  0 Multiplicity = 1

 SCF Done:  E(RB3LYP) =  -1089.37487464     A.U. after    1 cycles

  Exact polarizability: 187.031   1.194 127.209   4.659  -2.611 127.575
 Approx polarizability: 233.369  -0.355 188.335   9.896 -12.274 212.030

                      1                      2                      3
                      A                      A                      A
 Frequencies --     22.4236                29.2161                51.5307
 Red. masses --      4.6397                 2.9526                 4.1091
 Frc consts  --      0.0014                 0.0015                 0.0064
 IR Inten    --      0.2244                 0.2419                 1.3734

                      4                      5                      6
                      A                      A                      A
 Frequencies --     66.4354                98.3971               154.0230
 Red. masses --      3.5613                 4.2682                 6.0519
 Frc consts  --      0.0093                 0.0243                 0.0846
 IR Inten    --      0.2123                 0.5366                 0.6449

                      7                      8                      9
                      A                      A                      A
 Frequencies --    165.5235               213.1027               221.9600
 Red. masses --      4.3993                 3.5428                 2.7240
 Frc consts  --      0.0710                 0.0948                 0.0791
 IR Inten    --      3.2164                 3.3594                 1.1869

                     10                     11                     12
                      A                      A                      A
 Frequencies --    259.7106               289.8038               304.0016
 Red. masses --      3.4337                 2.1904                 2.1463
 Frc consts  --      0.1365                 0.1084                 0.1169
 IR Inten    --      8.5153                 0.0510                 4.1949

                     13                     14                     15
                      A                      A                      A
 Frequencies --    317.6221               339.2201               380.8080
 Red. masses --      2.4142                 2.4476                 3.3154
 Frc consts  --      0.1435                 0.1659                 0.2833
 IR Inten    --      8.6208                 4.4174                 1.0228

                     16                     17                     18
                      A                      A                      A
 Frequencies --    403.2771               414.9056               421.2252
 Red. masses --      2.1980                 1.7430                 2.6317
 Frc consts  --      0.2106                 0.1768                 0.2751
 IR Inten    --     14.7336                90.6307                29.0956

                     19                     20                     21
                      A                      A                      A
 Frequencies --    457.5516               507.7524               521.7246
 Red. masses --      4.8237                 3.4232                 2.9637
 Frc consts  --      0.5950                 0.5200                 0.4753
 IR Inten    --     14.0582                 2.6864                24.4222

                     22                     23                     24
                      A                      A                      A
 Frequencies --    535.8136               557.5254               589.2151
 Red. masses --      3.7691                 1.9832                 1.4241
 Frc consts  --      0.6375                 0.3632                 0.2913
 IR Inten    --     13.8234                 3.6151               132.6561

                     25                     26                     27
                      A                      A                      A
 Frequencies --    637.0199               653.3567               682.3336
 Red. masses --      4.3468                 2.3351                 2.4280
 Frc consts  --      1.0393                 0.5873                 0.6660
 IR Inten    --      9.9938                10.8976                 8.5254

                     28                     29                     30
                      A                      A                      A
 Frequencies --    701.1559               721.3055               775.3954
 Red. masses --      2.0728                 4.9655                 2.3071
 Frc consts  --      0.6004                 1.5221                 0.8173
 IR Inten    --     18.0216                36.0056                 7.6805

                     31                     32                     33
                      A                      A                      A
 Frequencies --    836.7228               850.3335               855.2731
 Red. masses --      2.8091                 1.8106                 2.5949
 Frc consts  --      1.1587                 0.7714                 1.1184
 IR Inten    --      7.3657                 1.8763                33.0505

                     34                     35                     36
                      A                      A                      A
 Frequencies --    878.7211               917.8550               928.9803
 Red. masses --      2.0906                 2.6368                 2.2821
 Frc consts  --      0.9511                 1.3088                 1.1604
 IR Inten    --      0.8192                 1.0554                11.0354

                     37                     38                     39
                      A                      A                      A
 Frequencies --    932.7757               941.5602               959.5725
 Red. masses --      1.9356                 1.9901                 1.7351
 Frc consts  --      0.9923                 1.0395                 0.9413
 IR Inten    --      1.6802                 0.3137                 8.5288

                     40                     41                     42
                      A                      A                      A
 Frequencies --    968.1302               974.6720               994.5159
 Red. masses --      1.7049                 2.0275                 2.3403
 Frc consts  --      0.9415                 1.1348                 1.3638
 IR Inten    --      9.7495                 6.2038                20.6535

                     43                     44                     45
                      A                      A                      A
 Frequencies --   1036.3593              1037.6386              1058.9894
 Red. masses --      2.0181                 1.6949                 1.8893
 Frc consts  --      1.2771                 1.0752                 1.2483
 IR Inten    --      4.7315                 0.1780                 0.0713

                     46                     47                     48
                      A                      A                      A
 Frequencies --   1078.0382              1087.1563              1105.0731
 Red. masses --      2.3101                 2.1019                 1.5210
 Frc consts  --      1.5818                 1.4637                 1.0944
 IR Inten    --     75.4752                 0.5763                 4.1560

                     49                     50                     51
                      A                      A                      A
 Frequencies --   1117.4709              1145.3555              1165.9651
 Red. masses --      4.1657                 1.5439                 1.5950
 Frc consts  --      3.0648                 1.1933                 1.2776
 IR Inten    --    135.7524                 9.2851                 3.4909

                     52                     53                     54
                      A                      A                      A
 Frequencies --   1181.3186              1193.4929              1204.7802
 Red. masses --      1.0711                 1.4025                 1.4071
 Frc consts  --      0.8807                 1.1770                 1.2034
 IR Inten    --      1.9710                 5.6164                 9.3081

                     55                     56                     57
                      A                      A                      A
 Frequencies --   1219.2264              1251.0189              1271.1278
 Red. masses --      1.6097                 1.3479                 1.3371
 Frc consts  --      1.4098                 1.2429                 1.2729
 IR Inten    --      1.6737                 2.1972                 0.1931

                     58                     59                     60
                      A                      A                      A
 Frequencies --   1274.5964              1297.2137              1317.2208
 Red. masses --      1.4698                 3.1520                 1.2853
 Frc consts  --      1.4069                 3.1251                 1.3140
 IR Inten    --      5.8540               118.7135                 1.7929

                     61                     62                     63
                      A                      A                      A
 Frequencies --   1326.9231              1334.4034              1343.7141
 Red. masses --      1.4033                 1.2857                 1.6677
 Frc consts  --      1.4558                 1.3488                 1.7741
 IR Inten    --      1.5213                 4.3421                65.7442

                     64                     65                     66
                      A                      A                      A
 Frequencies --   1350.0949              1357.6786              1359.9600
 Red. masses --      1.4822                 1.4525                 1.5747
 Frc consts  --      1.5918                 1.5775                 1.7159
 IR Inten    --      5.6235                17.9855                 3.6785

                     67                     68                     69
                      A                      A                      A
 Frequencies --   1365.8842              1373.4169              1383.4040
 Red. masses --      1.3278                 1.6812                 1.3825
 Frc consts  --      1.4595                 1.8684                 1.5589
 IR Inten    --      4.5976                42.7476                 1.1599

                     70                     71                     72
                      A                      A                      A
 Frequencies --   1394.9354              1400.0969              1420.6717
 Red. masses --      1.3769                 1.9184                 1.3781
 Frc consts  --      1.5786                 2.2156                 1.6387
 IR Inten    --      3.1739                 6.8393                22.4643

                     73                     74                     75
                      A                      A                      A
 Frequencies --   1468.2230              1482.6027              1503.2693
 Red. masses --      1.0930                 1.0910                 1.0883
 Frc consts  --      1.3881                 1.4129                 1.4490
 IR Inten    --      6.6082                15.2991                 8.4362

                     76                     77                     78
                      A                      A                      A
 Frequencies --   1517.9109              1520.3515              1521.6012
 Red. masses --      1.0886                 1.0897                 1.0896
 Frc consts  --      1.4778                 1.4840                 1.4864
 IR Inten    --      2.1042                 1.0367                 1.9822

                     79                     80                     81
                      A                      A                      A
 Frequencies --   1530.1064              1546.2571              1658.5776
 Red. masses --      1.0840                 1.1118                 1.2416
 Frc consts  --      1.4952                 1.5662                 2.0123
 IR Inten    --      4.8309                 2.2691                76.0222

                     82                     83                     84
                      A                      A                      A
 Frequencies --   1734.6490              2998.1955              3034.5499
 Red. masses --      6.1429                 1.0823                 1.0713
 Frc consts  --     10.8904                 5.7323                 5.8125
 IR Inten    --    446.9751                44.8883                21.4613

                     85                     86                     87
                      A                      A                      A
 Frequencies --   3048.3302              3061.2798              3065.4439
 Red. masses --      1.0653                 1.0609                 1.0622
 Frc consts  --      5.8325                 5.8580                 5.8807
 IR Inten    --     36.9241                26.7696                28.4076

                     88                     89                     90
                      A                      A                      A
 Frequencies --   3067.2322              3073.6814              3096.3010
 Red. masses --      1.0622                 1.0608                 1.0614
 Frc consts  --      5.8879                 5.9049                 5.9955
 IR Inten    --     29.2081                15.5723                 3.1349

                     91                     92                     93
                      A                      A                      A
 Frequencies --   3098.7339              3098.7619              3104.2716
 Red. masses --      1.0626                 1.0969                 1.0941
 Frc consts  --      6.0118                 6.2056                 6.2121
 IR Inten    --      7.5672                22.6805                27.4571

                     94                     95                     96
                      A                      A                      A
 Frequencies --   3107.5131              3109.9553              3113.1120
 Red. masses --      1.1007                 1.1023                 1.1024
 Frc consts  --      6.2627                 6.2816                 6.2950
 IR Inten    --     18.2210                44.2604                17.6007

                     97                     98                     99
                      A                      A                      A
 Frequencies --   3115.2459              3132.7263              3160.4159
 Red. masses --      1.1006                 1.0921                 1.1067
 Frc consts  --      6.2930                 6.3146                 6.5129
 IR Inten    --      7.2441                43.1064                 2.1017

                    100                    101                    102
                      A                      A                      A
 Frequencies --   3165.2050              3562.4950              3676.2744
 Red. masses --      1.1063                 1.0468                 1.0996
 Frc consts  --      6.5299                 7.8274                 8.7556
 IR Inten    --      3.0968                15.2887                16.3696

 - Thermochemistry -
 -------------------
 Temperature   298.150 Kelvin.  Pressure   1.00000 Atm.
 Atom     1 has atomic number  6 and mass  12.00000

 Molecular mass:   244.12455 amu.
 Principal axes and moments of inertia in atomic units:
                           1         2         3
     Eigenvalues --  1430.099958557.796008726.89751
           X            0.99997   0.00657   0.00350
           Y           -0.00672   0.99902   0.04376
           Z           -0.00321  -0.04379   0.99904
 This molecule is an asymmetric top.
 Rotational symmetry number  1.
 Warning -- assumption of classical behavior for rotation
           may cause significant error
 Rotational temperatures (Kelvin)      0.06056     0.01012     0.00992
 Rotational constants (GHZ):           1.26197     0.21089     0.20680
 Zero-point vibrational energy     827570.3 (Joules/Mol)
                                  197.79404 (Kcal/Mol)
 Warning -- explicit consideration of  24 degrees of freedom as
           vibrations may cause significant error
 Vibrational temperatures:     32.26    42.04    74.14    95.59   141.57
          (Kelvin)            221.60   238.15   306.61   319.35   373.67
                              416.96   437.39   456.99   488.06   547.90
                              580.23   596.96   606.05   658.31   730.54
                              750.65   770.92   802.15   847.75   916.53
                              940.03   981.73  1008.81  1037.80  1115.62
                             1203.86  1223.44  1230.55  1264.28  1320.59
                             1336.60  1342.06  1354.70  1380.61  1392.92
                             1402.34  1430.89  1491.09  1492.93  1523.65
                             1551.06  1564.18  1589.95  1607.79  1647.91
                             1677.56  1699.65  1717.17  1733.41  1754.19
                             1799.94  1828.87  1833.86  1866.40  1895.19
                             1909.15  1919.91  1933.30  1942.49  1953.40
                             1956.68  1965.20  1976.04  1990.41  2007.00
                             2014.43  2044.03  2112.45  2133.13  2162.87
                             2183.94  2187.45  2189.24  2201.48  2224.72
                             2386.32  2495.77  4313.73  4366.04  4385.87
                             4404.50  4410.49  4413.06  4422.34  4454.89
                             4458.39  4458.43  4466.35  4471.02  4474.53
                             4479.07  4482.14  4507.29  4547.13  4554.02
                             5125.64  5289.34

 Zero-point correction=                           0.315205 (Hartree/Particle)
 Thermal correction to Energy=                    0.330862
 Thermal correction to Enthalpy=                  0.331806
 Thermal correction to Gibbs Free Energy=         0.270779
 Sum of electronic and zero-point Energies=          -1089.059670
 Sum of electronic and thermal Energies=             -1089.044013
 Sum of electronic and thermal Enthalpies=           -1089.043068
 Sum of electronic and thermal Free Energies=        -1089.104096

                     E (Thermal)             CV                S
                      KCal/Mol        Cal/Mol-Kelvin    Cal/Mol-Kelvin
 Total                  207.619             61.599            128.443
 Electronic               0.000              0.000              0.000
 Translational            0.889              2.981             42.378
 Rotational               0.889              2.981             33.035
 Vibrational            205.842             55.638             53.030
 Vibration     1          0.593              1.985              6.407
 Vibration     2          0.593              1.984              5.882
 Vibration     3          0.596              1.977              4.758
 Vibration     4          0.598              1.970              4.256
 Vibration     5          0.604              1.950              3.486
 Vibration     6          0.620              1.898              2.622
 Vibration     7          0.624              1.885              2.486
 Vibration     8          0.644              1.821              2.017
 Vibration     9          0.648              1.808              1.943
 Vibration    10          0.668              1.746              1.664
 Vibration    11          0.686              1.693              1.475
 Vibration    12          0.695              1.666              1.395
 Vibration    13          0.704              1.640              1.322
 Vibration    14          0.719              1.597              1.216
 Vibration    15          0.751              1.511              1.036
 Vibration    16          0.769              1.463              0.951
 Vibration    17          0.778              1.438              0.909
 Vibration    18          0.784              1.424              0.888
 Vibration    19          0.816              1.344              0.773
 Vibration    20          0.863              1.233              0.639
 Vibration    21          0.877              1.202              0.606
 Vibration    22          0.891              1.171              0.574
 Vibration    23          0.913              1.123              0.529
 Vibration    24          0.946              1.055              0.469

 Optimization completed.
    -- Stationary point found.
 Normal termination of Gaussian 16 at Fri Dec 11 01:26:28 2020.

 ----------------------------------------------------------------------
 # B3LYP/6-311++G(d,p) empiricaldispersion=gd3bj scf=xqc pop=npa geom=c
 heck
 ----------------------------------------------------------------------

 --------------------------------------
 CID_63175984_JID_6917_Energie_neutraal
 --------------------------------------
 Structure from the checkpoint file:  "JID_6917.chk"
 Charge =  0 Multiplicity = 1

 SCF Done:  E(RB3LYP) =  -1089.60098946     A.U. after   15 cycles
 Normal termination of Gaussian 16 at Fri Dec 11 01:34:00 2020.

 ----------------------------------------------------------------------
 # B3LYP/6-311++G(d,p) empiricaldispersion=gd3bj scf=xqc pop=npa geom=c
 heck
 ----------------------------------------------------------------------

 ------------------------------------
 CID_63175984_JID_6917_Energie_kation
 ------------------------------------
 Structure from the checkpoint file:  "JID_6917.chk"
 Charge =  1 Multiplicity = 2

 SCF Done:  E(UB3LYP) =  -1089.28587398     A.U. after   28 cycles
 Normal termination of Gaussian 16 at Fri Dec 11 01:54:17 2020.
 Gaussian 16:  ES64L-G16RevA.03 25-Dec-2016

 ----------------------------------------------------------------------
 # B3LYP/6-311++G(d,p) empiricaldispersion=gd3bj scf=xqc pop=npa geom=c
 heck
 ----------------------------------------------------------------------

 -----------------------------------
 CID_63175984_JID_6917_Energie_anion
 -----------------------------------
 Structure from the checkpoint file:  "JID_6917.chk"
 Charge = -1 Multiplicity = 2

                         Standard orientation:
 ---------------------------------------------------------------------
 Center     Atomic      Atomic             Coordinates (Angstroms)
 Number     Number       Type             X           Y           Z
 ---------------------------------------------------------------------
      1          6           0        4.505993    1.374801    0.045211
      2          6           0        4.933607   -0.098841    0.044622
      3          6           0        3.804079   -0.792977   -0.738808
      4          6           0        2.503871    0.020210   -0.423831
      5          6           0        2.995601    1.302467    0.322061
      6          6           0        1.478216   -0.749839    0.390997
      7          7           0        0.224428   -0.890048    0.160527
      8          6           0       -0.433341   -0.247817   -0.964256
      9          6           0       -0.898725    1.173434   -0.575464
     10          6           0       -1.842517    1.175556    0.629550
     11         16           0       -3.346553    0.234685    0.259063
     12          8           0       -4.110415    0.033918    1.501467
     13          8           0       -3.984474    0.859355   -0.916924
     14          6           0       -2.635484   -1.344421   -0.269626
     15          6           0       -1.620681   -1.132215   -1.394958
     16          7           0        1.976212   -1.289788    1.568457
     17          1           0        4.691531    1.813599   -0.944039
     18          1           0        5.042237    1.982586    0.781132
     19          1           0        5.920640   -0.268593   -0.397156
     20          1           0        4.973126   -0.468543    1.078712
     21          1           0        3.705998   -1.858812   -0.507130
     22          1           0        4.010413   -0.728634   -1.812576
     23          1           0        2.039235    0.310841   -1.366156
     24          1           0        2.821048    1.188549    1.396812
     25          1           0        2.454802    2.195708   -0.005506
     26          1           0        0.221711   -0.146593   -1.842738
     27          1           0       -1.400956    1.643869   -1.427781
     28          1           0       -0.021592    1.783120   -0.328784
     29          1           0       -2.188194    2.180271    0.889651
     30          1           0       -1.385331    0.708021    1.504442
     31          1           0       -2.162888   -1.786943    0.609620
     32          1           0       -3.488112   -1.955470   -0.579801
     33          1           0       -2.121279   -0.683764   -2.259628
     34          1           0       -1.237834   -2.112586   -1.700131
     35          1           0        2.942318   -1.586814    1.573406
     36          1           0        1.338896   -1.934258    2.020422
 ---------------------------------------------------------------------

 SCF Done:  E(UB3LYP) =  -1089.59602030     A.U. after   30 cycles

 The electronic state is 2-A.
 Alpha  occ. eigenvalues --  -88.95143 -19.02479 -19.02299 -14.22313 -14.18959
 Alpha  occ. eigenvalues --  -10.15144 -10.12107 -10.12008 -10.11888 -10.09719
 Alpha  occ. eigenvalues --  -10.09581 -10.08855 -10.07435 -10.07342 -10.07019
 Alpha  occ. eigenvalues --  -10.06984  -8.01695  -5.97962  -5.97841  -5.97782
 Alpha  occ. eigenvalues --   -1.01475  -0.91183  -0.86122  -0.79085  -0.74325
 Alpha  occ. eigenvalues --   -0.73644  -0.69468  -0.65449  -0.62966  -0.61833
 Alpha  occ. eigenvalues --   -0.56288  -0.54293  -0.51030  -0.48564  -0.48158
 Alpha  occ. eigenvalues --   -0.45009  -0.42841  -0.42333  -0.41069  -0.40367
 Alpha  occ. eigenvalues --   -0.39001  -0.37845  -0.37295  -0.36941  -0.34628
 Alpha  occ. eigenvalues --   -0.34413  -0.33299  -0.32969  -0.32323  -0.30077
 Alpha  occ. eigenvalues --   -0.29899  -0.28664  -0.26943  -0.26664  -0.25888
 Alpha  occ. eigenvalues --   -0.25064  -0.24502  -0.24167  -0.23895  -0.23293
 Alpha  occ. eigenvalues --   -0.23117  -0.22357  -0.21367  -0.19470  -0.15738
 Alpha  occ. eigenvalues --   -0.14527   0.03735
 Alpha virt. eigenvalues --    0.06090   0.06674   0.07061   0.07991   0.08610
 Alpha virt. eigenvalues --    0.08671   0.09155   0.09455   0.10161   0.10636
 Alpha virt. eigenvalues --    0.10705   0.11140   0.11299   0.12111   0.12383

  Beta  occ. eigenvalues --  -88.95143 -19.02478 -19.02297 -14.22265 -14.18945
  Beta  occ. eigenvalues --  -10.15140 -10.12102 -10.12004 -10.11878 -10.09707
  Beta  occ. eigenvalues --  -10.09573 -10.08841 -10.07416 -10.07304 -10.06993
  Beta  occ. eigenvalues --  -10.06951  -8.01695  -5.97962  -5.97841  -5.97782
  Beta  occ. eigenvalues --   -1.01472  -0.91180  -0.86088  -0.79041  -0.74280
  Beta  occ. eigenvalues --   -0.73622  -0.69455  -0.65422  -0.62915  -0.61764
  Beta  occ. eigenvalues --   -0.56267  -0.54263  -0.50983  -0.48520  -0.48063
  Beta  occ. eigenvalues --   -0.44950  -0.42796  -0.42299  -0.41062  -0.40334
  Beta  occ. eigenvalues --   -0.38941  -0.37828  -0.37250  -0.36929  -0.34609
  Beta  occ. eigenvalues --   -0.34399  -0.33283  -0.32930  -0.32279  -0.30054
  Beta  occ. eigenvalues --   -0.29878  -0.28641  -0.26916  -0.26638  -0.25858
  Beta  occ. eigenvalues --   -0.25010  -0.24450  -0.24158  -0.23842  -0.23242
  Beta  occ. eigenvalues --   -0.23114  -0.22310  -0.21362  -0.19462  -0.15679
  Beta  occ. eigenvalues --   -0.14490
  Beta virt. eigenvalues --    0.06067   0.07014   0.07090   0.07585   0.08395
  Beta virt. eigenvalues --    0.08955   0.09086   0.09487   0.09722   0.10384
  Beta virt. eigenvalues --    0.10783   0.11039   0.11384   0.11561   0.12407

 Mulliken charges and spin densities:
               1          2
     1  C    0.698345  -1.249512
     2  C    0.268722  -0.552317
     3  C    0.634867  -1.200746
     4  C    1.155430  -0.315233
     5  C   -0.443104   0.051695
     6  C   -0.606796   0.027493
     7  N    0.113549  -0.133318
     8  C    0.309818  -0.053573
     9  C    0.107205  -0.588758
    10  C   -0.765641  -0.100852
    11  S    0.681275  -0.072310
    12  O   -0.158397   0.008579
    13  O   -0.252163   0.002275
    14  C   -0.704685  -0.051444
    15  C   -0.460702  -0.065220
    16  N   -0.568153   0.316536
    17  H   -0.076510   0.222242
    18  H   -0.131063   0.296627
    19  H   -0.234314   0.410529
    20  H   -0.118835   0.221976
    21  H   -0.438031   0.643373
    22  H   -0.371172   0.527007
    23  H   -0.070170   0.286390
    24  H   -0.073392   0.274698
    25  H   -0.241509   0.365515
    26  H   -0.267105   0.470749
    27  H    0.051640   0.154866
    28  H    0.139822  -0.002867
    29  H    0.164599   0.075851
    30  H    0.206584   0.059621
    31  H    0.228466   0.020770
    32  H    0.221906   0.024141
    33  H    0.208874  -0.023442
    34  H   -0.066796   0.261782
    35  H   -0.070135   0.346283
    36  H   -0.072429   0.340591
 Sum of Mulliken charges =  -1.00000   1.00000

 Dipole moment (field-independent basis, Debye):
    X=             -5.0869    Y=              0.4278    Z=              0.0790  Tot=              5.1055
 Quadrupole moment (field-independent basis, Debye-Ang):
   XX=           -219.6859   YY=           -140.5601   ZZ=           -146.5192
   XY=              9.7413   XZ=              6.6336   YZ=              4.2453

 Summary of Natural Population Analysis:

                                       Natural Population
                Natural  -----------------------------------------------
    Atom  No    Charge         Core      Valence    Rydberg      Total
 -----------------------------------------------------------------------
      C    1   -0.18887      0.99963     2.18233    0.00691     3.18887
      C    2   -0.19099      0.99964     2.18327    0.00809     3.19099
      C    3   -0.19104      0.99963     2.18209    0.00932     3.19104
      C    4   -0.14558      0.99955     2.13445    0.01158     3.14558
      C    5   -0.18666      0.99962     2.17830    0.00874     3.18666
      C    6    0.25072      0.99955     1.73313    0.01659     2.74928
      N    7   -0.30630      0.99962     2.79331    0.01337     3.80630
      C    8   -0.01809      0.99957     2.00457    0.01394     3.01809
      C    9   -0.20397      0.99960     2.19475    0.00963     3.20397
      C   10   -0.29242      0.99958     2.28005    0.01278     3.29242
      S   11    1.01801      4.99925     1.88863    0.09411     6.98199
      O   12   -0.47026      0.99991     3.46523    0.00512     4.47026
      O   13   -0.47652      0.99991     3.47100    0.00561     4.47652
      C   14   -0.29095      0.99958     2.28104    0.01033     3.29095
      C   15   -0.19944      0.99960     2.18839    0.01144     3.19944
      N   16   -0.39992      0.99970     2.89061    0.00961     3.89992
      H   17    0.09532      0.00000     0.40308    0.00160     0.40468
      H   18    0.10046      0.00000     0.39844    0.00110     0.39954
      H   19    0.10269      0.00000     0.39597    0.00134     0.39731
      H   20    0.09237      0.00000     0.40563    0.00200     0.40763
      H   21    0.10305      0.00000     0.39447    0.00247     0.39695
      H   22    0.10352      0.00000     0.39461    0.00187     0.39648
      H   23    0.10706      0.00000     0.39042    0.00252     0.39294
      H   24    0.10170      0.00000     0.39632    0.00198     0.39830
      H   25    0.10068      0.00000     0.39809    0.00123     0.39932
      H   26    0.09439      0.00000     0.40323    0.00238     0.40561
      H   27    0.10763      0.00000     0.39124    0.00113     0.39237
      H   28    0.10934      0.00000     0.38936    0.00129     0.39066
      H   29    0.11621      0.00000     0.38268    0.00111     0.38379
      H   30    0.12119      0.00000     0.37750    0.00131     0.37881
      H   31    0.12343      0.00000     0.37497    0.00160     0.37657
      H   32    0.11482      0.00000     0.38401    0.00117     0.38518
      H   33    0.10603      0.00000     0.39294    0.00103     0.39397
      H   34    0.10894      0.00000     0.38993    0.00113     0.39106
      H   35    0.19187      0.00000     0.30497    0.00316     0.30813
      H   36    0.19157      0.00000     0.30617    0.00226     0.30843
 =======================================================================
   * Total *    0.00000     19.99396    45.72519    0.28085    66.00000

 Normal termination of Gaussian 16 at Fri Dec 11 02:15:40 2020.
