 Gaussian 16, Revision A.03,

 -----------------------------------------------------------
 # opt freq B3LYP/6-31G(d) empiricaldispersion=gd3bj scf=xqc
 -----------------------------------------------------------

 ------------------------------
 CID_98014253_JID_6554_neutraal
 ------------------------------
 Symbolic Z-matrix:
 Charge =  0 Multiplicity = 1

 SCF Done:  E(RB3LYP) =  -692.228585873     A.U. after   15 cycles
 SCF Done:  E(RB3LYP) =  -692.233448809     A.U. after   13 cycles
 SCF Done:  E(RB3LYP) =  -692.234696017     A.U. after   13 cycles
 SCF Done:  E(RB3LYP) =  -692.234920813     A.U. after   13 cycles
 SCF Done:  E(RB3LYP) =  -692.235078185     A.U. after   12 cycles
 SCF Done:  E(RB3LYP) =  -692.235244342     A.U. after   11 cycles
 SCF Done:  E(RB3LYP) =  -692.235309802     A.U. after   12 cycles
 SCF Done:  E(RB3LYP) =  -692.235320935     A.U. after   10 cycles
 SCF Done:  E(RB3LYP) =  -692.235324701     A.U. after    8 cycles
 SCF Done:  E(RB3LYP) =  -692.235325114     A.U. after    8 cycles
 SCF Done:  E(RB3LYP) =  -692.235325324     A.U. after    7 cycles
 Optimization completed.
    -- Stationary point found.
 Normal termination of Gaussian 16 at Thu Dec 10 23:29:35 2020.

 --------------------------------------------------------------------
 #N Geom=AllCheck Guess=TCheck SCRF=Check GenChk RB3LYP/6-31G(d) Freq
 --------------------------------------------------------------------

 Structure from the checkpoint file:  "JID_6554.chk"
 ------------------------------
 CID_98014253_JID_6554_neutraal
 ------------------------------
 Charge =  0 Multiplicity = 1

 SCF Done:  E(RB3LYP) =  -692.235325324     A.U. after    1 cycles

  Exact polarizability: 234.567  -7.953 153.193 -13.769  -9.538  98.483
 Approx polarizability: 323.671  -3.551 250.883 -28.373 -21.462 145.299

                      1                      2                      3
                      A                      A                      A
 Frequencies --     24.3565                31.1203                53.4272
 Red. masses --      4.2051                 3.5807                 3.5698
 Frc consts  --      0.0015                 0.0020                 0.0060
 IR Inten    --      0.1956                 0.4248                 0.5454

                      4                      5                      6
                      A                      A                      A
 Frequencies --     68.8661                90.0795               108.6596
 Red. masses --      3.8122                 3.2970                 3.2503
 Frc consts  --      0.0107                 0.0158                 0.0226
 IR Inten    --      4.3949                 0.2291                 0.1500

                      7                      8                      9
                      A                      A                      A
 Frequencies --    145.7281               158.8892               169.4809
 Red. masses --      2.5309                 1.0380                 3.1150
 Frc consts  --      0.0317                 0.0154                 0.0527
 IR Inten    --      3.7657                 0.2768                 1.5839

                     10                     11                     12
                      A                      A                      A
 Frequencies --    207.7068               214.6394               227.0184
 Red. masses --      2.9383                 3.2074                 1.5283
 Frc consts  --      0.0747                 0.0871                 0.0464
 IR Inten    --      6.4361                 1.9032                 1.0300

                     13                     14                     15
                      A                      A                      A
 Frequencies --    287.3348               295.7155               311.6499
 Red. masses --      1.6337                 2.5592                 1.7925
 Frc consts  --      0.0795                 0.1319                 0.1026
 IR Inten    --      0.3430                 0.7426                 4.3638

                     16                     17                     18
                      A                      A                      A
 Frequencies --    329.0951               338.4997               350.6452
 Red. masses --      3.4567                 2.5679                 2.5555
 Frc consts  --      0.2206                 0.1734                 0.1851
 IR Inten    --      5.5315                 6.1865                 0.7455

                     19                     20                     21
                      A                      A                      A
 Frequencies --    407.4478               458.3313               462.5595
 Red. masses --      2.1990                 3.0107                 3.4833
 Frc consts  --      0.2151                 0.3726                 0.4391
 IR Inten    --      5.0933                 9.6803                 1.3985

                     22                     23                     24
                      A                      A                      A
 Frequencies --    530.7069               536.1775               543.3813
 Red. masses --      3.2414                 3.3472                 3.3447
 Frc consts  --      0.5379                 0.5670                 0.5819
 IR Inten    --      8.1638                 0.9852                 1.4791

                     25                     26                     27
                      A                      A                      A
 Frequencies --    571.5840               604.9908               642.9235
 Red. masses --      4.4999                 3.8841                 2.6164
 Frc consts  --      0.8662                 0.8376                 0.6372
 IR Inten    --      3.7215                72.5279                17.6146

                     28                     29                     30
                      A                      A                      A
 Frequencies --    662.5713               714.7493               734.7088
 Red. masses --      1.5585                 3.7045                 3.2055
 Frc consts  --      0.4031                 1.1150                 1.0195
 IR Inten    --    138.4265                42.8617                13.9521

                     31                     32                     33
                      A                      A                      A
 Frequencies --    743.1975               786.3520               814.7116
 Red. masses --      1.2863                 1.8648                 1.4390
 Frc consts  --      0.4186                 0.6794                 0.5628
 IR Inten    --      3.0617                 0.4904                65.9672

                     34                     35                     36
                      A                      A                      A
 Frequencies --    829.5991               851.4992               865.2173
 Red. masses --      2.3371                 1.7380                 1.6216
 Frc consts  --      0.9477                 0.7425                 0.7152
 IR Inten    --    126.6182                57.4546                59.2865

                     37                     38                     39
                      A                      A                      A
 Frequencies --    911.6699               912.9777               923.5503
 Red. masses --      2.2920                 1.8805                 1.6946
 Frc consts  --      1.1224                 0.9235                 0.8516
 IR Inten    --     10.8562                 3.4320                17.8038

                     40                     41                     42
                      A                      A                      A
 Frequencies --    924.2262               950.8665               995.5803
 Red. masses --      1.3162                 1.7412                 1.9833
 Frc consts  --      0.6624                 0.9276                 1.1582
 IR Inten    --     11.3903                 5.0878                30.4403

                     43                     44                     45
                      A                      A                      A
 Frequencies --   1019.0121              1035.9141              1053.7164
 Red. masses --      1.5463                 1.4830                 1.8366
 Frc consts  --      0.9461                 0.9377                 1.2015
 IR Inten    --      2.4284                 2.6242                 1.7485

                     46                     47                     48
                      A                      A                      A
 Frequencies --   1069.5921              1098.1275              1125.2085
 Red. masses --      2.0902                 1.9426                 2.2087
 Frc consts  --      1.4089                 1.3802                 1.6476
 IR Inten    --      3.3375                 8.2970                 3.7644

                     49                     50                     51
                      A                      A                      A
 Frequencies --   1139.3269              1153.9581              1165.2949
 Red. masses --      1.7071                 1.7247                 2.0365
 Frc consts  --      1.3056                 1.3532                 1.6293
 IR Inten    --      1.6915                11.0293                 5.4318

                     52                     53                     54
                      A                      A                      A
 Frequencies --   1188.8140              1238.2948              1250.9883
 Red. masses --      1.3888                 1.4697                 2.0141
 Frc consts  --      1.1564                 1.3278                 1.8571
 IR Inten    --     61.9697                 1.4019               126.9159

                     55                     56                     57
                      A                      A                      A
 Frequencies --   1262.8864              1293.8628              1308.1454
 Red. masses --      1.3183                 2.0343                 1.2057
 Frc consts  --      1.2387                 2.0066                 1.2157
 IR Inten    --      8.0406                10.8615                29.1996

                     58                     59                     60
                      A                      A                      A
 Frequencies --   1330.9972              1343.4117              1346.3183
 Red. masses --      2.4911                 1.5316                 1.3322
 Frc consts  --      2.6001                 1.6286                 1.4228
 IR Inten    --    249.2689                66.2225                82.9786

                     61                     62                     63
                      A                      A                      A
 Frequencies --   1385.3783              1397.3272              1405.5739
 Red. masses --      1.4056                 1.5225                 1.5940
 Frc consts  --      1.5894                 1.7515                 1.8555
 IR Inten    --     12.7974                 2.0412                59.3236

                     64                     65                     66
                      A                      A                      A
 Frequencies --   1411.3004              1418.7644              1426.0955
 Red. masses --      2.2980                 1.4000                 1.6467
 Frc consts  --      2.6967                 1.6603                 1.9732
 IR Inten    --     13.8915                 1.8734                 3.9408

                     67                     68                     69
                      A                      A                      A
 Frequencies --   1444.6461              1491.1053              1501.7413
 Red. masses --      1.2757                 3.3256                 1.0620
 Frc consts  --      1.5686                 4.3565                 1.4112
 IR Inten    --      4.1582                80.2920                 9.3302

                     70                     71                     72
                      A                      A                      A
 Frequencies --   1507.7072              1508.7908              1513.3826
 Red. masses --      1.1655                 1.0486                 1.3359
 Frc consts  --      1.5610                 1.4064                 1.8027
 IR Inten    --     22.6608                 8.3653                39.8003

                     73                     74                     75
                      A                      A                      A
 Frequencies --   1521.9878              1527.4198              1534.6343
 Red. masses --      1.0952                 1.1645                 1.0664
 Frc consts  --      1.4947                 1.6006                 1.4798
 IR Inten    --      5.0719                12.2937                11.7957

                     76                     77                     78
                      A                      A                      A
 Frequencies --   1540.1090              1555.0988              1576.3865
 Red. masses --      1.0715                 1.0920                 2.8874
 Frc consts  --      1.4974                 1.5560                 4.2274
 IR Inten    --      5.8051                48.7994               132.2657

                     79                     80                     81
                      A                      A                      A
 Frequencies --   1634.5902              1655.9901              1693.1125
 Red. masses --      4.7383                 2.6236                 1.5142
 Frc consts  --      7.4592                 4.2389                 2.5574
 IR Inten    --      6.0977               180.8346               150.7158

                     82                     83                     84
                      A                      A                      A
 Frequencies --   1763.9007              2981.5198              3029.4557
 Red. masses --     10.3042                 1.0733                 1.0663
 Frc consts  --     18.8892                 5.6213                 5.7660
 IR Inten    --    185.4532                54.0534                15.4799

                     85                     86                     87
                      A                      A                      A
 Frequencies --   3039.2382              3044.4743              3045.4427
 Red. masses --      1.0602                 1.0515                 1.0539
 Frc consts  --      5.7700                 5.7420                 5.7589
 IR Inten    --     40.8540                27.9340                19.0752

                     88                     89                     90
                      A                      A                      A
 Frequencies --   3054.0915              3069.0390              3070.0367
 Red. masses --      1.0379                 1.0943                 1.0945
 Frc consts  --      5.7040                 6.0730                 6.0779
 IR Inten    --      3.5470                 6.0483                28.2556

                     91                     92                     93
                      A                      A                      A
 Frequencies --   3079.3402              3091.3471              3109.6766
 Red. masses --      1.0962                 1.0976                 1.1019
 Frc consts  --      6.1243                 6.1799                 6.2779
 IR Inten    --     28.3527               100.1782                64.3716

                     94                     95                     96
                      A                      A                      A
 Frequencies --   3113.7632              3115.4318              3168.8726
 Red. masses --      1.1000                 1.1015                 1.1014
 Frc consts  --      6.2838                 6.2992                 6.5162
 IR Inten    --     11.7078                41.8834                17.0332

                     97                     98                     99
                      A                      A                      A
 Frequencies --   3203.0284              3206.4221              3223.6067
 Red. masses --      1.0898                 1.0866                 1.0931
 Frc consts  --      6.5874                 6.5820                 6.6928
 IR Inten    --      5.7284                12.5013                14.2352

                    100                    101                    102
                      A                      A                      A
 Frequencies --   3481.0083              3519.4392              3594.8511
 Red. masses --      1.0524                 1.0747                 1.0915
 Frc consts  --      7.5132                 7.8433                 8.3106
 IR Inten    --      1.8254                18.2294                 8.3360

 - Thermochemistry -
 -------------------
 Temperature   298.150 Kelvin.  Pressure   1.00000 Atm.
 Atom     1 has atomic number  6 and mass  12.00000

 Molecular mass:   220.15756 amu.
 Principal axes and moments of inertia in atomic units:
                           1         2         3
     Eigenvalues --  1494.432838892.276829653.17424
           X            0.99999  -0.00313   0.00405
           Y            0.00316   0.99998  -0.00556
           Z           -0.00403   0.00557   0.99998
 This molecule is an asymmetric top.
 Rotational symmetry number  1.
 Warning -- assumption of classical behavior for rotation
           may cause significant error
 Rotational temperatures (Kelvin)      0.05796     0.00974     0.00897
 Rotational constants (GHZ):           1.20764     0.20296     0.18696
 Zero-point vibrational energy     830636.0 (Joules/Mol)
                                  198.52676 (Kcal/Mol)
 Warning -- explicit consideration of  26 degrees of freedom as
           vibrations may cause significant error
 Vibrational temperatures:     35.04    44.78    76.87    99.08   129.60
          (Kelvin)            156.34   209.67   228.61   243.85   298.84
                              308.82   326.63   413.41   425.47   448.39
                              473.49   487.03   504.50   586.23   659.44
                              665.52   763.57   771.44   781.80   822.38
                              870.45   925.02   953.29  1028.36  1057.08
                             1069.30  1131.39  1172.19  1193.61  1225.12
                             1244.85  1311.69  1313.57  1328.78  1329.76
                             1368.08  1432.42  1466.13  1490.45  1516.06
                             1538.90  1579.96  1618.92  1639.24  1660.29
                             1676.60  1710.44  1781.63  1799.89  1817.01
                             1861.58  1882.13  1915.01  1932.87  1937.05
                             1993.25  2010.44  2022.31  2030.55  2041.29
                             2051.83  2078.52  2145.37  2160.67  2169.25
                             2170.81  2177.42  2189.80  2197.62  2208.00
                             2215.87  2237.44  2268.07  2351.81  2382.60
                             2436.01  2537.86  4289.74  4358.71  4372.79
                             4380.32  4381.71  4394.16  4415.66  4417.10
                             4430.48  4447.76  4474.13  4480.01  4482.41
                             4559.30  4608.44  4613.33  4638.05  5008.39
                             5063.69  5172.19

 Zero-point correction=                           0.316373 (Hartree/Particle)
 Thermal correction to Energy=                    0.333345
 Thermal correction to Enthalpy=                  0.334289
 Thermal correction to Gibbs Free Energy=         0.270534
 Sum of electronic and zero-point Energies=           -691.918953
 Sum of electronic and thermal Energies=              -691.901980
 Sum of electronic and thermal Enthalpies=            -691.901036
 Sum of electronic and thermal Free Energies=         -691.964791

                     E (Thermal)             CV                S
                      KCal/Mol        Cal/Mol-Kelvin    Cal/Mol-Kelvin
 Total                  209.177             63.996            134.184
 Electronic               0.000              0.000              0.000
 Translational            0.889              2.981             42.070
 Rotational               0.889              2.981             33.217
 Vibrational            207.400             58.034             58.897
 Vibration     1          0.593              1.985              6.243
 Vibration     2          0.594              1.983              5.757
 Vibration     3          0.596              1.976              4.686
 Vibration     4          0.598              1.969              4.186
 Vibration     5          0.602              1.956              3.658
 Vibration     6          0.606              1.942              3.293
 Vibration     7          0.617              1.907              2.727
 Vibration     8          0.621              1.893              2.563
 Vibration     9          0.625              1.880              2.441
 Vibration    10          0.641              1.829              2.064
 Vibration    11          0.645              1.819              2.004
 Vibration    12          0.651              1.800              1.902
 Vibration    13          0.685              1.697              1.490
 Vibration    14          0.690              1.682              1.441
 Vibration    15          0.700              1.651              1.354
 Vibration    16          0.712              1.617              1.265
 Vibration    17          0.719              1.599              1.219
 Vibration    18          0.728              1.574              1.163
 Vibration    19          0.772              1.454              0.936
 Vibration    20          0.816              1.342              0.771
 Vibration    21          0.820              1.333              0.759
 Vibration    22          0.886              1.182              0.586
 Vibration    23          0.891              1.170              0.574
 Vibration    24          0.899              1.154              0.558
 Vibration    25          0.928              1.093              0.501
 Vibration    26          0.964              1.021              0.441

                           ! Non-Optimized Parameters !
 Normal termination of Gaussian 16 at Thu Dec 10 23:39:36 2020.

 ----------------------------------------------------------------------
 # B3LYP/6-311++G(d,p) empiricaldispersion=gd3bj scf=xqc pop=npa geom=c
 heck
 ----------------------------------------------------------------------

 --------------------------------------
 CID_98014253_JID_6554_Energie_neutraal
 --------------------------------------
 Structure from the checkpoint file:  "JID_6554.chk"
 Charge =  0 Multiplicity = 1

 SCF Done:  E(RB3LYP) =  -692.435005962     A.U. after   15 cycles
 Normal termination of Gaussian 16 at Thu Dec 10 23:44:19 2020.

 ----------------------------------------------------------------------
 # B3LYP/6-311++G(d,p) empiricaldispersion=gd3bj scf=xqc pop=npa geom=c
 heck
 ----------------------------------------------------------------------

 ------------------------------------
 CID_98014253_JID_6554_Energie_kation
 ------------------------------------
 Structure from the checkpoint file:  "JID_6554.chk"
 Charge =  1 Multiplicity = 2

 SCF Done:  E(UB3LYP) =  -692.164816964     A.U. after   24 cycles
 Normal termination of Gaussian 16 at Thu Dec 10 23:54:15 2020.
 Gaussian 16:  ES64L-G16RevA.03 25-Dec-2016

 ----------------------------------------------------------------------
 # B3LYP/6-311++G(d,p) empiricaldispersion=gd3bj scf=xqc pop=npa geom=c
 heck
 ----------------------------------------------------------------------

 -----------------------------------
 CID_98014253_JID_6554_Energie_anion
 -----------------------------------
 Structure from the checkpoint file:  "JID_6554.chk"
 Charge = -1 Multiplicity = 2

                         Standard orientation:
 ---------------------------------------------------------------------
 Center     Atomic      Atomic             Coordinates (Angstroms)
 Number     Number       Type             X           Y           Z
 ---------------------------------------------------------------------
      1          6           0       -5.048468   -1.593009   -0.960319
      2          6           0       -4.230834   -0.335438   -1.269381
      3          6           0       -4.192715    0.684284   -0.122143
      4          6           0       -3.603911    0.156618    1.196135
      5          6           0       -2.196892   -0.430218    1.071945
      6          7           0       -1.278159    0.546135    0.508233
      7          6           0        0.066060    0.251900    0.333997
      8          6           0        0.921362    1.326269   -0.037877
      9          6           0        2.274289    1.095731   -0.210350
     10          6           0        2.826241   -0.187854   -0.041249
     11          6           0        1.973988   -1.247146    0.289031
     12          6           0        0.610448   -1.030848    0.478165
     13          6           0        4.287515   -0.354233   -0.244800
     14          8           0        5.000834    0.597838   -0.538438
     15          6           0        4.892768   -1.740728   -0.081855
     16          7           0        0.330086    2.605991   -0.158777
     17          1           0       -4.610553   -2.173503   -0.140199
     18          1           0       -5.104541   -2.251929   -1.833668
     19          1           0       -6.074489   -1.334720   -0.670078
     20          1           0       -3.205377   -0.616060   -1.541581
     21          1           0       -4.651678    0.158367   -2.154764
     22          1           0       -3.614575    1.556750   -0.450176
     23          1           0       -5.211544    1.044483    0.075752
     24          1           0       -3.587865    0.971889    1.933383
     25          1           0       -4.254824   -0.617487    1.619270
     26          1           0       -1.855192   -0.789283    2.057464
     27          1           0       -2.215475   -1.302839    0.409077
     28          1           0       -1.415076    1.492253    0.854304
     29          1           0        2.943057    1.904299   -0.491228
     30          1           0        2.366633   -2.250465    0.415999
     31          1           0       -0.030074   -1.859407    0.758364
     32          1           0        4.715402   -2.131737    0.926827
     33          1           0        4.448320   -2.449931   -0.789878
     34          1           0        5.967049   -1.675719   -0.261322
     35          1           0        0.999377    3.307260   -0.459690
     36          1           0       -0.457830    2.598211   -0.804344
 ---------------------------------------------------------------------

 SCF Done:  E(UB3LYP) =  -692.432380058     A.U. after   33 cycles
 SCF Done:  E(UB3LYP) =  -692.432380058     a.u. after    1 cycles

 The electronic state is 2-A.
 Alpha  occ. eigenvalues --  -18.95452 -14.21788 -14.21594 -10.10319 -10.10311
 Alpha  occ. eigenvalues --  -10.09244 -10.09045 -10.07687 -10.07168 -10.07095
 Alpha  occ. eigenvalues --  -10.06714 -10.05412 -10.05266 -10.05161 -10.04459
 Alpha  occ. eigenvalues --  -10.04185  -0.89181  -0.84293  -0.80091  -0.72424
 Alpha  occ. eigenvalues --   -0.70783  -0.65810  -0.63044  -0.62134  -0.60255
 Alpha  occ. eigenvalues --   -0.57996  -0.53535  -0.50065  -0.49409  -0.46192
 Alpha  occ. eigenvalues --   -0.43312  -0.42000  -0.40724  -0.38684  -0.37095
 Alpha  occ. eigenvalues --   -0.36289  -0.35764  -0.34202  -0.33465  -0.32144
 Alpha  occ. eigenvalues --   -0.32016  -0.31819  -0.30805  -0.29590  -0.28535
 Alpha  occ. eigenvalues --   -0.28104  -0.27848  -0.27428  -0.26352  -0.25184
 Alpha  occ. eigenvalues --   -0.23673  -0.23644  -0.23067  -0.22910  -0.22606
 Alpha  occ. eigenvalues --   -0.20290  -0.18316  -0.12230  -0.11480  -0.09043
 Alpha  occ. eigenvalues --    0.04064
 Alpha virt. eigenvalues --    0.05450   0.06733   0.07244   0.07558   0.08212
 Alpha virt. eigenvalues --    0.08881   0.09718   0.10203   0.10426   0.10757
 Alpha virt. eigenvalues --    0.11086   0.11364   0.11892   0.12235   0.12849

  Beta  occ. eigenvalues --  -18.95129 -14.21787 -14.21568 -10.10313 -10.10060
  Beta  occ. eigenvalues --  -10.09304 -10.08861 -10.07673 -10.07157 -10.07077
  Beta  occ. eigenvalues --  -10.06687 -10.05463 -10.05288 -10.05066 -10.04336
  Beta  occ. eigenvalues --  -10.04142  -0.88572  -0.84192  -0.80070  -0.72284
  Beta  occ. eigenvalues --   -0.70718  -0.65704  -0.62808  -0.61984  -0.60151
  Beta  occ. eigenvalues --   -0.57926  -0.53462  -0.49747  -0.49309  -0.46132
  Beta  occ. eigenvalues --   -0.43173  -0.41811  -0.40637  -0.38618  -0.37031
  Beta  occ. eigenvalues --   -0.36142  -0.35711  -0.34086  -0.33385  -0.32041
  Beta  occ. eigenvalues --   -0.31760  -0.31498  -0.30759  -0.29503  -0.28396
  Beta  occ. eigenvalues --   -0.28046  -0.27656  -0.27285  -0.26253  -0.24939
  Beta  occ. eigenvalues --   -0.23620  -0.23323  -0.22893  -0.22600  -0.22088
  Beta  occ. eigenvalues --   -0.20083  -0.17647  -0.11776  -0.11188  -0.08476
  Beta virt. eigenvalues --    0.06052   0.06889   0.07603   0.07668   0.08355
  Beta virt. eigenvalues --    0.08422   0.09036   0.09913   0.10340   0.10536
  Beta virt. eigenvalues --    0.10906   0.11175   0.11466   0.12021   0.12336

 Mulliken charges and spin densities:
               1          2
     1  C    0.687718  -1.301426
     2  C   -0.644677   0.526414
     3  C    0.244006  -0.435570
     4  C   -0.161903  -0.238964
     5  C    0.097164  -0.309257
     6  N   -0.028130   0.022911
     7  C   -0.333716  -0.064843
     8  C    0.064215   0.000831
     9  C   -0.161997   0.167874
    10  C    1.687659  -0.120982
    11  C   -1.125033   0.144056
    12  C   -0.569331   0.008659
    13  C   -0.278271   0.089522
    14  O   -0.369263   0.116592
    15  C   -0.432349  -0.029271
    16  N   -0.424471  -0.011529
    17  H   -0.120439   0.258285
    18  H   -0.076792   0.205814
    19  H   -0.179542   0.320496
    20  H    0.141459   0.010481
    21  H   -0.234834   0.390279
    22  H    0.002223   0.100222
    23  H   -0.280624   0.442745
    24  H   -0.064333   0.229005
    25  H   -0.103593   0.257321
    26  H    0.103953   0.064956
    27  H    0.175885  -0.050793
    28  H    0.306298  -0.040047
    29  H    0.148777  -0.003585
    30  H    0.101039   0.012626
    31  H    0.031449   0.111511
    32  H    0.126113   0.005285
    33  H    0.093447   0.040211
    34  H    0.166456  -0.000353
    35  H    0.217211   0.034457
    36  H    0.194227   0.046064
 Sum of Mulliken charges =  -1.00000   1.00000

 Dipole moment (field-independent basis, Debye):
    X=             -0.2891    Y=             -0.0664    Z=              0.9343  Tot=              0.9803
 Quadrupole moment (field-independent basis, Debye-Ang):
   XX=           -224.4959   YY=           -116.9508   ZZ=           -121.3413
   XY=            -10.2834   XZ=              1.4231   YZ=             -3.0542

 Summary of Natural Population Analysis:

                                       Natural Population
                Natural  -----------------------------------------------
    Atom  No    Charge         Core      Valence    Rydberg      Total
 -----------------------------------------------------------------------
      C    1   -0.28843      0.99967     2.28366    0.00511     3.28843
      C    2   -0.19474      0.99964     2.18613    0.00897     3.19474
      C    3   -0.18942      0.99963     2.18065    0.00914     3.18942
      C    4   -0.19409      0.99963     2.18555    0.00892     3.19409
      C    5   -0.08963      0.99963     2.07826    0.01174     3.08963
      N    6   -0.31609      0.99967     2.80749    0.00894     3.81609
      C    7    0.11398      0.99947     1.87676    0.00979     2.88602
      C    8    0.04757      0.99946     1.94313    0.00985     2.95243
      C    9   -0.07243      0.99949     2.06406    0.00888     3.07243
      C   10   -0.07899      0.99948     2.06848    0.01103     3.07899
      C   11   -0.07277      0.99955     2.06495    0.00826     3.07277
      C   12   -0.14805      0.99955     2.14064    0.00786     3.14805
      C   13    0.30149      0.99964     1.67924    0.01963     2.69851
      O   14   -0.27806      0.99988     3.27151    0.00667     4.27806
      C   15   -0.33138      0.99964     2.32776    0.00398     3.33138
      N   16   -0.41681      0.99973     2.90704    0.01005     3.91681
      H   17    0.09496      0.00000     0.40404    0.00101     0.40504
      H   18    0.09826      0.00000     0.40090    0.00083     0.40174
      H   19    0.09667      0.00000     0.40215    0.00118     0.40333
      H   20    0.09728      0.00000     0.40146    0.00126     0.40272
      H   21    0.09573      0.00000     0.40321    0.00106     0.40427
      H   22    0.09743      0.00000     0.40123    0.00134     0.40257
      H   23    0.09600      0.00000     0.40268    0.00132     0.40400
      H   24    0.09529      0.00000     0.40358    0.00113     0.40471
      H   25    0.10025      0.00000     0.39866    0.00109     0.39975
      H   26    0.08800      0.00000     0.41059    0.00141     0.41200
      H   27    0.09245      0.00000     0.40587    0.00169     0.40755
      H   28    0.18626      0.00000     0.31057    0.00317     0.31374
      H   29    0.10600      0.00000     0.39271    0.00129     0.39400
      H   30    0.09522      0.00000     0.40373    0.00105     0.40478
      H   31    0.09795      0.00000     0.40062    0.00143     0.40205
      H   32    0.10225      0.00000     0.39683    0.00091     0.39775
      H   33    0.10200      0.00000     0.39598    0.00202     0.39800
      H   34    0.10365      0.00000     0.39516    0.00119     0.39635
      H   35    0.18173      0.00000     0.31697    0.00130     0.31827
      H   36    0.18050      0.00000     0.31739    0.00211     0.31950
 =======================================================================
   * Total *   -0.00000     15.99375    43.82963    0.17662    60.00000

 Normal termination of Gaussian 16 at Fri Dec 11 00:08:10 2020.
