 Gaussian 16, Revision A.03,

 -----------------------------------------------------------
 # opt freq B3LYP/6-31G(d) empiricaldispersion=gd3bj scf=xqc
 -----------------------------------------------------------

 ---------------------------
 CID_435108_JID_814_neutraal
 ---------------------------
 Symbolic Z-matrix:
 Charge =  0 Multiplicity = 1

 SCF Done:  E(RB3LYP) =  -409.188930598     A.U. after   13 cycles
 SCF Done:  E(RB3LYP) =  -409.190964233     A.U. after   10 cycles
 SCF Done:  E(RB3LYP) =  -409.190668344     A.U. after   11 cycles
 SCF Done:  E(RB3LYP) =  -409.191450968     A.U. after   10 cycles
 SCF Done:  E(RB3LYP) =  -409.191479844     A.U. after    9 cycles
 SCF Done:  E(RB3LYP) =  -409.191484939     A.U. after    8 cycles
 SCF Done:  E(RB3LYP) =  -409.191487805     A.U. after    7 cycles
 Optimization completed.
    -- Stationary point found.

 1\1\GINC-NODE110\FOpt\RB3LYP\6-31G(d)\C9H19N1\VSC10255\08-Dec-2020\0\\
 # opt freq B3LYP/6-31G(d) empiricaldispersion=gd3bj scf=xqc\\CID_43510
 8_JID_814_neutraal\\0,1\C,0.9322312801,-0.0159879301,0.0070190279\C,0.
 401953938,-1.2704752569,-0.7035753997\C,1.4215154802,-1.9544488152,-1.
 6380930933\C,2.4206417752,-2.9093910679,-0.9437437982\N,1.7667104741,-
 3.8638907782,-0.0228281164\C,0.7912448119,-3.2772941364,0.9211963061\C
 ,-0.2173908471,-2.3245442023,0.2377163861\C,1.4650619396,-2.6941009244
 ,2.1715024761\C,1.2119079876,-5.0106313246,-0.7337726796\C,3.624446500

 Normal termination of Gaussian 16 at Tue Dec  8 12:41:13 2020.

 --------------------------------------------------------------------
 #N Geom=AllCheck Guess=TCheck SCRF=Check GenChk RB3LYP/6-31G(d) Freq
 --------------------------------------------------------------------

 Structure from the checkpoint file:  "JID_814.chk"
 ---------------------------
 CID_435108_JID_814_neutraal
 ---------------------------
 Charge =  0 Multiplicity = 1

 SCF Done:  E(RB3LYP) =  -409.191487805     A.U. after    1 cycles

  Exact polarizability: 102.242  -0.000  99.534  -1.531  -0.000  92.571
 Approx polarizability: 136.415  -0.000 138.645  -2.480  -0.000 132.012

                      1                      2                      3
                      A                      A                      A
 Frequencies --     96.9131               128.4914               131.2380
 Red. masses --      2.5104                 1.5493                 1.3207
 Frc consts  --      0.0139                 0.0151                 0.0134
 IR Inten    --      0.3550                 0.0688                 0.0000

                      4                      5                      6
                      A                      A                      A
 Frequencies --    196.8557               210.0380               240.5056
 Red. masses --      2.2743                 1.1405                 2.0783
 Frc consts  --      0.0519                 0.0296                 0.0708
 IR Inten    --      0.3686                 0.0013                 0.1231

                      7                      8                      9
                      A                      A                      A
 Frequencies --    251.3865               287.3547               293.0236
 Red. masses --      1.1583                 1.9023                 1.4289
 Frc consts  --      0.0431                 0.0925                 0.0723
 IR Inten    --      0.3045                 0.0811                 0.2354

                     10                     11                     12
                      A                      A                      A
 Frequencies --    310.8690               343.7480               374.4406
 Red. masses --      2.8458                 2.3968                 1.9119
 Frc consts  --      0.1620                 0.1669                 0.1579
 IR Inten    --      2.2462                 1.3778                 0.0034

                     13                     14                     15
                      A                      A                      A
 Frequencies --    391.5581               441.1604               504.8133
 Red. masses --      1.8205                 2.3613                 3.4019
 Frc consts  --      0.1645                 0.2708                 0.5108
 IR Inten    --      0.3451                 0.0542                 5.8460

                     16                     17                     18
                      A                      A                      A
 Frequencies --    539.0552               582.8294               691.1793
 Red. masses --      3.0783                 3.0191                 3.6503
 Frc consts  --      0.5270                 0.6042                 1.0275
 IR Inten    --      4.7521                 0.6505                 3.9733

                     19                     20                     21
                      A                      A                      A
 Frequencies --    759.2925               792.1418               796.4431
 Red. masses --      2.6461                 1.9028                 2.5575
 Frc consts  --      0.8988                 0.7035                 0.9558
 IR Inten    --      9.3560                 0.4924                 0.1560

                     22                     23                     24
                      A                      A                      A
 Frequencies --    884.8458               903.2048               935.3989
 Red. masses --      1.5435                 2.1694                 2.0532
 Frc consts  --      0.7120                 1.0427                 1.0585
 IR Inten    --      0.0809                 2.2386                 0.8023

                     25                     26                     27
                      A                      A                      A
 Frequencies --    944.0883               981.6180              1022.1333
 Red. masses --      1.7235                 1.6433                 1.9237
 Frc consts  --      0.9051                 0.9329                 1.1842
 IR Inten    --      0.4631                 5.2343                 1.1625

                     28                     29                     30
                      A                      A                      A
 Frequencies --   1053.2828              1054.7957              1085.2658
 Red. masses --      1.7990                 1.4720                 1.5355
 Frc consts  --      1.1759                 0.9650                 1.0655
 IR Inten    --      9.7819                 3.5290                 0.9054

                     31                     32                     33
                      A                      A                      A
 Frequencies --   1096.4501              1120.3380              1133.4327
 Red. masses --      1.9455                 2.1310                 1.5669
 Frc consts  --      1.3780                 1.5759                 1.1860
 IR Inten    --     17.6503                18.1130                12.1878

                     34                     35                     36
                      A                      A                      A
 Frequencies --   1163.8549              1171.0025              1180.3491
 Red. masses --      1.4040                 1.2501                 2.3129
 Frc consts  --      1.1205                 1.0100                 1.8986
 IR Inten    --     15.8568                 3.1647                 3.2574

                     37                     38                     39
                      A                      A                      A
 Frequencies --   1218.0866              1228.6698              1287.0463
 Red. masses --      2.6371                 2.1947                 1.9575
 Frc consts  --      2.3053                 1.9520                 1.9105
 IR Inten    --     20.7206                 1.1071                34.5455

                     40                     41                     42
                      A                      A                      A
 Frequencies --   1309.6882              1327.7944              1360.8942
 Red. masses --      1.4684                 1.1521                 1.7315
 Frc consts  --      1.4840                 1.1967                 1.8894
 IR Inten    --      2.6088                 1.1356                17.5912

                     43                     44                     45
                      A                      A                      A
 Frequencies --   1389.7697              1395.5322              1403.4691
 Red. masses --      1.3474                 1.4102                 1.3465
 Frc consts  --      1.5333                 1.6181                 1.5627
 IR Inten    --      0.3610                 0.7701                 2.4833

                     46                     47                     48
                      A                      A                      A
 Frequencies --   1410.5497              1412.3603              1434.2539
 Red. masses --      1.2088                 1.3133                 1.2880
 Frc consts  --      1.4170                 1.5434                 1.5610
 IR Inten    --      0.0025                 4.0752                 7.1510

                     49                     50                     51
                      A                      A                      A
 Frequencies --   1436.9078              1445.1170              1450.2944
 Red. masses --      1.2549                 1.2299                 1.3478
 Frc consts  --      1.5265                 1.5133                 1.6703
 IR Inten    --      8.6700                17.7100                 9.2774

                     52                     53                     54
                      A                      A                      A
 Frequencies --   1496.9657              1506.1077              1512.8920
 Red. masses --      1.1956                 1.0751                 1.0675
 Frc consts  --      1.5785                 1.4368                 1.4396
 IR Inten    --      1.6549                 1.5560                 6.6386

                     55                     56                     57
                      A                      A                      A
 Frequencies --   1514.2510              1517.3944              1519.2920
 Red. masses --      1.0571                 1.0492                 1.0542
 Frc consts  --      1.4281                 1.4234                 1.4337
 IR Inten    --      4.7539                 1.7068                 0.7748

                     58                     59                     60
                      A                      A                      A
 Frequencies --   1528.0209              1540.9501              1543.0296
 Red. masses --      1.0728                 1.0555                 1.0507
 Frc consts  --      1.4758                 1.4767                 1.4740
 IR Inten    --     13.4734                 5.4522                 5.2120

                     61                     62                     63
                      A                      A                      A
 Frequencies --   1544.7015              1547.6622              2946.9815
 Red. masses --      1.0507                 1.0582                 1.0613
 Frc consts  --      1.4772                 1.4934                 5.4303
 IR Inten    --      2.1156                 2.6616                68.5290

                     64                     65                     66
                      A                      A                      A
 Frequencies --   3005.8567              3026.2784              3032.0057
 Red. masses --      1.0813                 1.0688                 1.0736
 Frc consts  --      5.7562                 5.7673                 5.8149
 IR Inten    --     15.5547                 2.0104                32.3010

                     67                     68                     69
                      A                      A                      A
 Frequencies --   3040.1213              3045.2392              3051.2055
 Red. masses --      1.0754                 1.0690                 1.0448
 Frc consts  --      5.8557                 5.8407                 5.7310
 IR Inten    --     50.9364                64.3009                29.2440

                     70                     71                     72
                      A                      A                      A
 Frequencies --   3058.9046              3062.0781              3067.8579
 Red. masses --      1.0455                 1.0515                 1.0999
 Frc consts  --      5.7638                 5.8091                 6.0994
 IR Inten    --     34.9849                 3.0729                31.2318

                     73                     74                     75
                      A                      A                      A
 Frequencies --   3069.3689              3073.0098              3104.0837
 Red. masses --      1.0929                 1.0763                 1.1020
 Frc consts  --      6.0664                 5.9886                 6.2559
 IR Inten    --    105.3631                26.0385                36.3615

                     76                     77                     78
                      A                      A                      A
 Frequencies --   3114.6541              3122.9932              3125.2660
 Red. masses --      1.1033                 1.0995                 1.0990
 Frc consts  --      6.3060                 6.3179                 6.3242
 IR Inten    --     32.5281                33.4666                30.7370

                     79                     80                     81
                      A                      A                      A
 Frequencies --   3153.1277              3162.5131              3187.3538
 Red. masses --      1.0962                 1.0978                 1.0909
 Frc consts  --      6.4214                 6.4688                 6.5300
 IR Inten    --     50.8793                29.6002                30.4955

 - Thermochemistry -
 -------------------
 Temperature   298.150 Kelvin.  Pressure   1.00000 Atm.
 Atom     1 has atomic number  6 and mass  12.00000

 Molecular mass:   141.15175 amu.
 Principal axes and moments of inertia in atomic units:
                           1         2         3
     Eigenvalues --  1172.635421484.375011655.52843
           X            0.99946  -0.00000  -0.03278
           Y            0.00000   1.00000   0.00000
           Z            0.03278  -0.00000   0.99946
 This molecule is an asymmetric top.
 Rotational symmetry number  1.
 Warning -- assumption of classical behavior for rotation
           may cause significant error
 Rotational temperatures (Kelvin)      0.07386     0.05835     0.05232
 Rotational constants (GHZ):           1.53905     1.21583     1.09013
 Zero-point vibrational energy     716706.7 (Joules/Mol)
                                  171.29701 (Kcal/Mol)
 Warning -- explicit consideration of  17 degrees of freedom as
           vibrations may cause significant error
 Vibrational temperatures:    139.44   184.87   188.82   283.23   302.20
          (Kelvin)            346.03   361.69   413.44   421.60   447.27
                              494.58   538.74   563.36   634.73   726.31
                              775.58   838.56   994.45  1092.45  1139.72
                             1145.90  1273.10  1299.51  1345.83  1358.33
                             1412.33  1470.62  1515.44  1517.62  1561.46
                             1577.55  1611.92  1630.76  1674.53  1684.81
                             1698.26  1752.55  1767.78  1851.77  1884.35
                             1910.40  1958.02  1999.57  2007.86  2019.28
                             2029.47  2032.07  2063.57  2067.39  2079.20
                             2086.65  2153.80  2166.95  2176.71  2178.67
                             2183.19  2185.92  2198.48  2217.08  2220.08
                             2222.48  2226.74  4240.05  4324.76  4354.14
                             4362.38  4374.06  4381.42  4390.00  4401.08
                             4405.65  4413.96  4416.14  4421.38  4466.08
                             4481.29  4493.29  4496.56  4536.65  4550.15
                             4585.89

 Zero-point correction=                           0.272979 (Hartree/Particle)
 Thermal correction to Energy=                    0.284196
 Thermal correction to Enthalpy=                  0.285141
 Thermal correction to Gibbs Free Energy=         0.237596
 Sum of electronic and zero-point Energies=           -408.918509
 Sum of electronic and thermal Energies=              -408.907291
 Sum of electronic and thermal Enthalpies=            -408.906347
 Sum of electronic and thermal Free Energies=         -408.953892

                     E (Thermal)             CV                S
                      KCal/Mol        Cal/Mol-Kelvin    Cal/Mol-Kelvin
 Total                  178.336             44.002            100.066
 Electronic               0.000              0.000              0.000
 Translational            0.889              2.981             40.745
 Rotational               0.889              2.981             29.445
 Vibrational            176.558             38.040             29.876
 Vibration     1          0.603              1.951              3.515
 Vibration     2          0.611              1.925              2.969
 Vibration     3          0.612              1.922              2.928
 Vibration     4          0.636              1.844              2.162
 Vibration     5          0.642              1.825              2.043
 Vibration     6          0.658              1.778              1.799
 Vibration     7          0.663              1.760              1.721
 Vibration     8          0.685              1.697              1.489
 Vibration     9          0.688              1.687              1.456
 Vibration    10          0.700              1.653              1.358
 Vibration    11          0.722              1.588              1.195
 Vibration    12          0.746              1.525              1.062
 Vibration    13          0.759              1.488              0.994
 Vibration    14          0.801              1.380              0.823
 Vibration    15          0.860              1.239              0.646
 Vibration    16          0.894              1.164              0.567
 Vibration    17          0.940              1.068              0.480

                           ! Non-Optimized Parameters !

 1\1\GINC-NODE110\Freq\RB3LYP\6-31G(d)\C9H19N1\VSC10255\08-Dec-2020\0\\
 #N Geom=AllCheck Guess=TCheck SCRF=Check GenChk RB3LYP/6-31G(d) Freq\\
 CID_435108_JID_814_neutraal\\0,1\C,0.9322312801,-0.0159879301,0.007019
 0279\C,0.401953938,-1.2704752569,-0.7035753997\C,1.4215154802,-1.95444
 88152,-1.6380930933\C,2.4206417752,-2.9093910679,-0.9437437982\N,1.766
 7104741,-3.8638907782,-0.0228281164\C,0.7912448119,-3.2772941364,0.921
 1963061\C,-0.2173908471,-2.3245442023,0.2377163861\C,1.4650619396,-2.6
 941009244,2.1715024761\C,1.2119079876,-5.0106313246,-0.7337726796\C,3.

 Normal termination of Gaussian 16 at Tue Dec  8 13:04:27 2020.

 ----------------------------------------------------------------------
 # B3LYP/6-311++G(d,p) empiricaldispersion=gd3bj scf=xqc pop=npa geom=c
 heck
 ----------------------------------------------------------------------

 -----------------------------------
 CID_435108_JID_814_Energie_neutraal
 -----------------------------------
 Structure from the checkpoint file:  "JID_814.chk"
 Charge =  0 Multiplicity = 1

 SCF Done:  E(RB3LYP) =  -409.304068558     A.U. after   13 cycles
 Normal termination of Gaussian 16 at Tue Dec  8 13:08:57 2020.

 ----------------------------------------------------------------------
 # B3LYP/6-311++G(d,p) empiricaldispersion=gd3bj scf=xqc pop=npa geom=c
 heck
 ----------------------------------------------------------------------

 ---------------------------------
 CID_435108_JID_814_Energie_kation
 ---------------------------------
 Structure from the checkpoint file:  "JID_814.chk"
 Charge =  1 Multiplicity = 2

 SCF Done:  E(UB3LYP) =  -409.025432065     A.U. after   16 cycles
 Normal termination of Gaussian 16 at Tue Dec  8 13:17:18 2020.
 Gaussian 16:  ES64L-G16RevA.03 25-Dec-2016

 --------------------------------
 CID_435108_JID_814_Energie_anion
 --------------------------------
 Structure from the checkpoint file:  "JID_814.chk"
 Charge = -1 Multiplicity = 2

                         Standard orientation:
 ---------------------------------------------------------------------
 Center     Atomic      Atomic             Coordinates (Angstroms)
 Number     Number       Type             X           Y           Z
 ---------------------------------------------------------------------
      1          6           0       -2.563339    0.000169    0.082202
      2          6           0       -1.432469   -0.000026   -0.957515
      3          6           0       -0.541060    1.259098   -0.932149
      4          6           0        0.586665    1.251815    0.126374
      5          7           0        1.373867   -0.000021    0.127040
      6          6           0        0.586618   -1.251840    0.126461
      7          6           0       -0.541063   -1.259164   -0.932078
      8          6           0        0.133916   -1.658896    1.535991
      9          6           0        2.394272   -0.000082   -0.915570
     10          6           0        0.134255    1.658918    1.535973
     11          1           0       -3.196829   -0.885975   -0.044224
     12          1           0       -3.197657    0.885520   -0.045633
     13          1           0       -2.208215    0.001214    1.113871
     14          1           0       -1.938074   -0.000098   -1.933714
     15          1           0       -0.067240    1.347572   -1.918834
     16          1           0       -1.157754    2.158605   -0.807039
     17          1           0        1.296629    2.030648   -0.178033
     18          1           0        1.296624   -2.030688   -0.177800
     19          1           0       -1.157777   -2.158655   -0.806950
     20          1           0       -0.067261   -1.347654   -1.918771
     21          1           0       -0.263001   -2.680856    1.516099
     22          1           0        0.989915   -1.629318    2.216947
     23          1           0       -0.644082   -1.016817    1.949025
     24          1           0        2.005094   -0.000076   -1.951162
     25          1           0        3.030852    0.883935   -0.801677
     26          1           0        3.030778   -0.884150   -0.801659
     27          1           0        0.990724    1.630733    2.216404
     28          1           0       -0.264023    2.680344    1.515939
     29          1           0       -0.642537    1.015906    1.949811
 ---------------------------------------------------------------------

 SCF Done:  E(UB3LYP) =  -409.287176920     A.U. after   24 cycles

 The electronic state is 2-A.
 Alpha  occ. eigenvalues --  -14.18540 -10.08486 -10.08485 -10.07180 -10.05912
 Alpha  occ. eigenvalues --  -10.04726 -10.04725 -10.04675 -10.04675 -10.04588
 Alpha  occ. eigenvalues --   -0.81021  -0.69216  -0.66881  -0.62902  -0.58048
 Alpha  occ. eigenvalues --   -0.56567  -0.54810  -0.49534  -0.47620  -0.39933
 Alpha  occ. eigenvalues --   -0.38677  -0.34531  -0.34363  -0.33262  -0.32637
 Alpha  occ. eigenvalues --   -0.30921  -0.30499  -0.29639  -0.28914  -0.28558
 Alpha  occ. eigenvalues --   -0.26759  -0.26650  -0.24257  -0.23933  -0.22908
 Alpha  occ. eigenvalues --   -0.22307  -0.20377  -0.19469  -0.19135  -0.09605
 Alpha  occ. eigenvalues --    0.04853
 Alpha virt. eigenvalues --    0.07565   0.07585   0.08160   0.09757   0.09975
 Alpha virt. eigenvalues --    0.10255   0.10518   0.10730   0.12370   0.12447
 Alpha virt. eigenvalues --    0.12932   0.13140   0.13772   0.13867   0.14844

  Beta  occ. eigenvalues --  -14.18535 -10.08476 -10.08475 -10.07144 -10.05900
  Beta  occ. eigenvalues --  -10.04701 -10.04700 -10.04658 -10.04658 -10.04560
  Beta  occ. eigenvalues --   -0.81002  -0.69176  -0.66850  -0.62868  -0.57996
  Beta  occ. eigenvalues --   -0.56515  -0.54735  -0.49489  -0.47566  -0.39893
  Beta  occ. eigenvalues --   -0.38585  -0.34503  -0.34318  -0.33209  -0.32600
  Beta  occ. eigenvalues --   -0.30888  -0.30472  -0.29610  -0.28884  -0.28525
  Beta  occ. eigenvalues --   -0.26725  -0.26615  -0.24215  -0.23903  -0.22876
  Beta  occ. eigenvalues --   -0.22272  -0.20328  -0.19425  -0.19095  -0.09577
  Beta virt. eigenvalues --    0.07133   0.08340   0.08380   0.08769   0.10227
  Beta virt. eigenvalues --    0.10686   0.10811   0.10928   0.11189   0.12907
  Beta virt. eigenvalues --    0.12917   0.13477   0.13546   0.14000   0.14208

 Mulliken charges and spin densities:
               1          2
     1  C    1.079279  -1.721311
     2  C   -0.865583   1.310852
     3  C    0.920618  -1.552324
     4  C   -0.713352   0.704192
     5  N    0.039196   0.136981
     6  C   -0.714319   0.704998
     7  C    0.922183  -1.554004
     8  C    0.147176  -0.742846
     9  C    0.886899  -1.159837
    10  C    0.146994  -0.742752
    11  H   -0.218337   0.353998
    12  H   -0.218537   0.354205
    13  H    0.038861   0.072102
    14  H   -0.562500   0.774675
    15  H   -0.107936   0.260902
    16  H   -0.325531   0.490075
    17  H   -0.108195   0.287938
    18  H   -0.108324   0.288092
    19  H   -0.325507   0.490056
    20  H   -0.107920   0.260887
    21  H   -0.092534   0.220315
    22  H   -0.037733   0.188064
    23  H    0.068393   0.042243
    24  H   -0.143247   0.280325
    25  H   -0.269165   0.400908
    26  H   -0.269213   0.400962
    27  H   -0.038205   0.188534
    28  H   -0.092037   0.219841
    29  H    0.068577   0.041927
 Sum of Mulliken charges =  -1.00000   1.00000

 Dipole moment (field-independent basis, Debye):
    X=              0.6693    Y=              0.0010    Z=              3.3490  Tot=              3.4153
 Quadrupole moment (field-independent basis, Debye-Ang):
   XX=           -115.9987   YY=           -108.5782   ZZ=           -105.2402
   XY=             -0.0001   XZ=             -2.9525   YZ=              0.0010

 Summary of Natural Population Analysis:

                                       Natural Population
                Natural  -----------------------------------------------
    Atom  No    Charge         Core      Valence    Rydberg      Total
 -----------------------------------------------------------------------
      C    1   -0.28117      0.99964     2.27541    0.00613     3.28117
      C    2   -0.11392      0.99959     2.10209    0.01223     3.11392
      C    3   -0.19617      0.99959     2.18608    0.01051     3.19617
      C    4   -0.00442      0.99958     1.99092    0.01393     3.00442
      N    5   -0.28907      0.99971     2.77457    0.01479     3.78907
      C    6   -0.00443      0.99958     1.99092    0.01393     3.00443
      C    7   -0.19617      0.99959     2.18608    0.01051     3.19617
      C    8   -0.28456      0.99963     2.27899    0.00593     3.28456
      C    9   -0.17275      0.99963     2.16453    0.00859     3.17275
      C   10   -0.28455      0.99963     2.27898    0.00593     3.28455
      H   11    0.09812      0.00000     0.40080    0.00108     0.40188
      H   12    0.09812      0.00000     0.40079    0.00108     0.40188
      H   13    0.09185      0.00000     0.40697    0.00119     0.40815
      H   14    0.09746      0.00000     0.40010    0.00244     0.40254
      H   15    0.10179      0.00000     0.39633    0.00187     0.39821
      H   16    0.10002      0.00000     0.39861    0.00137     0.39998
      H   17    0.09401      0.00000     0.40403    0.00196     0.40599
      H   18    0.09401      0.00000     0.40403    0.00196     0.40599
      H   19    0.10002      0.00000     0.39861    0.00137     0.39998
      H   20    0.10179      0.00000     0.39633    0.00187     0.39821
      H   21    0.09659      0.00000     0.40256    0.00085     0.40341
      H   22    0.10067      0.00000     0.39804    0.00129     0.39933
      H   23    0.09381      0.00000     0.40492    0.00128     0.40619
      H   24    0.08142      0.00000     0.41689    0.00170     0.41858
      H   25    0.09323      0.00000     0.40545    0.00132     0.40677
      H   26    0.09323      0.00000     0.40545    0.00132     0.40677
      H   27    0.10066      0.00000     0.39805    0.00129     0.39934
      H   28    0.09659      0.00000     0.40256    0.00085     0.40341
      H   29    0.09381      0.00000     0.40491    0.00128     0.40619
 =======================================================================
   * Total *   -0.00000      9.99616    29.87400    0.12985    40.00000

 Normal termination of Gaussian 16 at Tue Dec  8 13:31:44 2020.
