 Gaussian 16, Revision A.03,

 -----------------------------------------------------------
 # opt freq B3LYP/6-31G(d) empiricaldispersion=gd3bj scf=xqc
 -----------------------------------------------------------

 -----------------------------
 CID_58787247_JID_860_neutraal
 -----------------------------
 Symbolic Z-matrix:
 Charge =  0 Multiplicity = 1

 SCF Done:  E(RB3LYP) =  -425.187667843     A.U. after   13 cycles
 SCF Done:  E(RB3LYP) =  -425.190742270     A.U. after   11 cycles
 SCF Done:  E(RB3LYP) =  -425.191684495     A.U. after   11 cycles
 SCF Done:  E(RB3LYP) =  -425.192037734     A.U. after   11 cycles
 SCF Done:  E(RB3LYP) =  -425.191929143     A.U. after   10 cycles
 SCF Done:  E(RB3LYP) =  -425.192046569     A.U. after   10 cycles
 SCF Done:  E(RB3LYP) =  -425.192064342     A.U. after    8 cycles
 SCF Done:  E(RB3LYP) =  -425.192064559     A.U. after    7 cycles
 SCF Done:  E(RB3LYP) =  -425.192064622     A.U. after    6 cycles
 SCF Done:  E(RB3LYP) =  -425.192064652     A.U. after    6 cycles
 Optimization completed.
    -- Stationary point found.

 1\1\GINC-NODE101\FOpt\RB3LYP\6-31G(d)\C8H18N2\VSC10255\08-Dec-2020\0\\
 # opt freq B3LYP/6-31G(d) empiricaldispersion=gd3bj scf=xqc\\CID_58787
 247_JID_860_neutraal\\0,1\C,-2.5228094511,0.0038871211,-0.1544473365\C
 ,-1.0668801602,-0.0029600064,0.3137420036\C,-0.308241324,1.2502272128,
 -0.1522551533\C,1.1753226937,1.1721778567,0.2321045151\N,1.8764506583,
 -0.0164074526,-0.2958493678\C,1.1643805485,-1.1987217824,0.2314658709\
 C,-0.3198646835,-1.2628780531,-0.1528841373\N,1.8052027833,-0.01558303
 42,-1.7830517233\C,2.5125077756,1.16713057,-2.2739961325\C,2.500570744

 Normal termination of Gaussian 16 at Tue Dec  8 12:42:04 2020.

 --------------------------------------------------------------------
 #N Geom=AllCheck Guess=TCheck SCRF=Check GenChk RB3LYP/6-31G(d) Freq
 --------------------------------------------------------------------

 Structure from the checkpoint file:  "JID_860.chk"
 -----------------------------
 CID_58787247_JID_860_neutraal
 -----------------------------
 Charge =  0 Multiplicity = 1

 SCF Done:  E(RB3LYP) =  -425.192064652     A.U. after    1 cycles

  Exact polarizability: 110.115  -0.001  96.049  -3.941  -0.001  85.924
 Approx polarizability: 135.910  -0.002 135.138  -8.088  -0.000 130.422

                      1                      2                      3
                      A                      A                      A
 Frequencies --     37.1079                89.6252               177.5000
 Red. masses --      2.7095                 3.0984                 2.0167
 Frc consts  --      0.0022                 0.0147                 0.0374
 IR Inten    --      0.7377                 0.1190                 0.0494

                      4                      5                      6
                      A                      A                      A
 Frequencies --    214.4326               242.8990               252.8742
 Red. masses --      2.8036                 1.0720                 1.1323
 Frc consts  --      0.0760                 0.0373                 0.0427
 IR Inten    --      1.0197                 0.0035                 0.0103

                      7                      8                      9
                      A                      A                      A
 Frequencies --    257.7602               301.2221               368.5344
 Red. masses --      1.1625                 2.3700                 3.1525
 Frc consts  --      0.0455                 0.1267                 0.2523
 IR Inten    --      0.5240                 0.0097                 6.8556

                     10                     11                     12
                      A                      A                      A
 Frequencies --    405.6501               430.1985               442.1173
 Red. masses --      2.4508                 1.8241                 2.0144
 Frc consts  --      0.2376                 0.1989                 0.2320
 IR Inten    --      0.0457                 0.8296                 0.7102

                     13                     14                     15
                      A                      A                      A
 Frequencies --    464.5385               502.6659               525.6285
 Red. masses --      2.6740                 2.0356                 2.3419
 Frc consts  --      0.3400                 0.3030                 0.3812
 IR Inten    --      2.6034                 1.2527                 0.3271

                     16                     17                     18
                      A                      A                      A
 Frequencies --    536.3060               664.5835               747.9052
 Red. masses --      2.9159                 2.2690                 3.8091
 Frc consts  --      0.4941                 0.5904                 1.2554
 IR Inten    --      0.0112                 5.5351                 0.8075

                     19                     20                     21
                      A                      A                      A
 Frequencies --    792.1521               813.6038               889.0350
 Red. masses --      2.3901                 1.5700                 2.7003
 Frc consts  --      0.8836                 0.6123                 1.2575
 IR Inten    --      1.6712                 0.0195                22.5288

                     22                     23                     24
                      A                      A                      A
 Frequencies --    891.3933               968.2036               979.8985
 Red. masses --      2.1545                 2.4273                 1.4242
 Frc consts  --      1.0087                 1.3406                 0.8057
 IR Inten    --      0.3124                16.8942                 4.1061

                     25                     26                     27
                      A                      A                      A
 Frequencies --    993.0071              1005.1807              1009.6392
 Red. masses --      1.5187                 2.2328                 1.6196
 Frc consts  --      0.8823                 1.3292                 0.9727
 IR Inten    --      7.5033                 3.3997                 0.4369

                     28                     29                     30
                      A                      A                      A
 Frequencies --   1026.3426              1053.8903              1102.3254
 Red. masses --      2.5051                 1.6672                 2.0873
 Frc consts  --      1.5547                 1.0910                 1.4943
 IR Inten    --      5.2842                17.1040                 8.8771

                     31                     32                     33
                      A                      A                      A
 Frequencies --   1116.7978              1125.5036              1184.8540
 Red. masses --      2.6878                 1.3611                 1.5048
 Frc consts  --      1.9752                 1.0159                 1.2447
 IR Inten    --      4.7916                 6.6372                 4.8631

                     34                     35                     36
                      A                      A                      A
 Frequencies --   1194.3563              1199.1113              1207.5964
 Red. masses --      1.9595                 1.9269                 1.7706
 Frc consts  --      1.6469                 1.6324                 1.5213
 IR Inten    --      2.4985                11.2549                 1.6339

                     37                     38                     39
                      A                      A                      A
 Frequencies --   1255.9377              1265.0366              1306.4061
 Red. masses --      1.7084                 1.6685                 1.2755
 Frc consts  --      1.5877                 1.5732                 1.2826
 IR Inten    --      1.0870                 7.4429                 2.5180

                     40                     41                     42
                      A                      A                      A
 Frequencies --   1318.0401              1323.9966              1353.3934
 Red. masses --      1.9853                 1.3705                 1.2939
 Frc consts  --      2.0320                 1.4154                 1.3964
 IR Inten    --      0.2956                 0.1662                 0.1775

                     43                     44                     45
                      A                      A                      A
 Frequencies --   1370.6449              1386.5758              1404.5084
 Red. masses --      1.2257                 1.3296                 1.4313
 Frc consts  --      1.3567                 1.5062                 1.6635
 IR Inten    --      3.5835                 4.3594                 1.4253

                     46                     47                     48
                      A                      A                      A
 Frequencies --   1409.1761              1422.2356              1438.7991
 Red. masses --      1.3479                 1.5472                 1.2417
 Frc consts  --      1.5770                 1.8439                 1.5145
 IR Inten    --     27.3285                 1.5543                 2.3786

                     49                     50                     51
                      A                      A                      A
 Frequencies --   1451.5693              1485.2647              1497.9590
 Red. masses --      1.1660                 1.1655                 1.0889
 Frc consts  --      1.4475                 1.5148                 1.4396
 IR Inten    --      1.9820                 1.0697                 1.1700

                     52                     53                     54
                      A                      A                      A
 Frequencies --   1504.5006              1514.4767              1522.1080
 Red. masses --      1.0632                 1.0962                 1.0683
 Frc consts  --      1.4179                 1.4813                 1.4582
 IR Inten    --      0.4390                10.2140                 9.6496

                     55                     56                     57
                      A                      A                      A
 Frequencies --   1525.1089              1527.4911              1530.5110
 Red. masses --      1.0568                 1.0453                 1.0560
 Frc consts  --      1.4482                 1.4369                 1.4575
 IR Inten    --      2.0049                 5.8443                 2.6243

                     58                     59                     60
                      A                      A                      A
 Frequencies --   1541.4610              1544.0385              1565.4842
 Red. masses --      1.0712                 1.0574                 1.0578
 Frc consts  --      1.4997                 1.4853                 1.5273
 IR Inten    --     13.1191                 9.1537                 2.5937

                     61                     62                     63
                      A                      A                      A
 Frequencies --   2978.5938              2986.9102              2987.7709
 Red. masses --      1.0555                 1.0813                 1.0582
 Frc consts  --      5.5174                 5.6838                 5.5658
 IR Inten    --     38.0226                32.5080               102.0003

                     64                     65                     66
                      A                      A                      A
 Frequencies --   3035.2100              3039.2057              3042.7529
 Red. masses --      1.0396                 1.0611                 1.0581
 Frc consts  --      5.6427                 5.7745                 5.7717
 IR Inten    --     11.4389                53.1331                46.4856

                     67                     68                     69
                      A                      A                      A
 Frequencies --   3053.2622              3063.3057              3086.0883
 Red. masses --      1.0716                 1.0729                 1.0997
 Frc consts  --      5.8856                 5.9317                 6.1707
 IR Inten    --      7.7674                32.6848                15.8039

                     70                     71                     72
                      A                      A                      A
 Frequencies --   3089.5610              3103.7956              3104.6845
 Red. masses --      1.0970                 1.1010                 1.0860
 Frc consts  --      6.1697                 6.2494                 6.1673
 IR Inten    --     52.0074                68.0881                 2.2305

                     73                     74                     75
                      A                      A                      A
 Frequencies --   3104.9293              3109.0931              3117.9919
 Red. masses --      1.0964                 1.0829                 1.0939
 Frc consts  --      6.2274                 6.1672                 6.2660
 IR Inten    --     37.6621                29.8339                40.0793

                     76                     77                     78
                      A                      A                      A
 Frequencies --   3123.4468              3140.7484              3146.1794
 Red. masses --      1.0911                 1.1007                 1.1018
 Frc consts  --      6.2716                 6.3973                 6.4254
 IR Inten    --     44.5135                54.4436                30.3259

 - Thermochemistry -
 -------------------
 Temperature   298.150 Kelvin.  Pressure   1.00000 Atm.
 Atom     1 has atomic number  6 and mass  12.00000

 Molecular mass:   142.14700 amu.
 Principal axes and moments of inertia in atomic units:
                           1         2         3
     Eigenvalues --   824.550031948.452802166.50016
           X            1.00000  -0.00000  -0.00063
           Y            0.00000   1.00000   0.00000
           Z            0.00063  -0.00000   1.00000
 This molecule is an asymmetric top.
 Rotational symmetry number  1.
 Warning -- assumption of classical behavior for rotation
           may cause significant error
 Rotational temperatures (Kelvin)      0.10504     0.04445     0.03998
 Rotational constants (GHZ):           2.18876     0.92624     0.83302
 Zero-point vibrational energy     687809.0 (Joules/Mol)
                                  164.39031 (Kcal/Mol)
 Warning -- explicit consideration of  16 degrees of freedom as
           vibrations may cause significant error
 Vibrational temperatures:     53.39   128.95   255.38   308.52   349.48
          (Kelvin)            363.83   370.86   433.39   530.24   583.64
                              618.96   636.11   668.37   723.22   756.26
                              771.62   956.19  1076.07  1139.73  1170.59
                             1279.12  1282.52  1393.03  1409.86  1428.72
                             1446.23  1452.65  1476.68  1516.31  1586.00
                             1606.82  1619.35  1704.74  1718.41  1725.25
                             1737.46  1807.01  1820.11  1879.63  1896.37
                             1904.94  1947.23  1972.05  1994.97  2020.77
                             2027.49  2046.28  2070.11  2088.48  2136.96
                             2155.23  2164.64  2178.99  2189.97  2194.29
                             2197.72  2202.06  2217.82  2221.53  2252.38
                             4285.53  4297.50  4298.74  4366.99  4372.74
                             4377.84  4392.96  4407.41  4440.19  4445.19
                             4465.67  4466.95  4467.30  4473.29  4486.09
                             4493.94  4518.84  4526.65

 Zero-point correction=                           0.261973 (Hartree/Particle)
 Thermal correction to Energy=                    0.272554
 Thermal correction to Enthalpy=                  0.273498
 Thermal correction to Gibbs Free Energy=         0.226275
 Sum of electronic and zero-point Energies=           -424.930092
 Sum of electronic and thermal Energies=              -424.919511
 Sum of electronic and thermal Enthalpies=            -424.918566
 Sum of electronic and thermal Free Energies=         -424.965790

                     E (Thermal)             CV                S
                      KCal/Mol        Cal/Mol-Kelvin    Cal/Mol-Kelvin
 Total                  171.030             41.813             99.391
 Electronic               0.000              0.000              0.000
 Translational            0.889              2.981             40.766
 Rotational               0.889              2.981             29.633
 Vibrational            169.253             35.852             28.992
 Vibration     1          0.594              1.982              5.408
 Vibration     2          0.602              1.957              3.668
 Vibration     3          0.628              1.870              2.355
 Vibration     4          0.644              1.819              2.006
 Vibration     5          0.659              1.774              1.782
 Vibration     6          0.664              1.758              1.710
 Vibration     7          0.667              1.750              1.677
 Vibration     8          0.693              1.671              1.410
 Vibration     9          0.741              1.537              1.086
 Vibration    10          0.771              1.458              0.942
 Vibration    11          0.791              1.404              0.858
 Vibration    12          0.802              1.378              0.820
 Vibration    13          0.822              1.329              0.753
 Vibration    14          0.858              1.244              0.651
 Vibration    15          0.881              1.193              0.597
 Vibration    16          0.891              1.170              0.573

 Optimization completed.
    -- Stationary point found.

 1\1\GINC-NODE101\Freq\RB3LYP\6-31G(d)\C8H18N2\VSC10255\08-Dec-2020\0\\
 #N Geom=AllCheck Guess=TCheck SCRF=Check GenChk RB3LYP/6-31G(d) Freq\\
 CID_58787247_JID_860_neutraal\\0,1\C,-2.5228094511,0.0038871211,-0.154
 4473365\C,-1.0668801602,-0.0029600064,0.3137420036\C,-0.308241324,1.25
 02272128,-0.1522551533\C,1.1753226937,1.1721778567,0.2321045151\N,1.87
 64506583,-0.0164074526,-0.2958493678\C,1.1643805485,-1.1987217824,0.23
 14658709\C,-0.3198646835,-1.2628780531,-0.1528841373\N,1.8052027833,-0
 .0155830342,-1.7830517233\C,2.5125077756,1.16713057,-2.2739961325\C,2.

 Normal termination of Gaussian 16 at Tue Dec  8 12:52:02 2020.

 ----------------------------------------------------------------------
 # B3LYP/6-311++G(d,p) empiricaldispersion=gd3bj scf=xqc pop=npa geom=c
 heck
 ----------------------------------------------------------------------

 -------------------------------------
 CID_58787247_JID_860_Energie_neutraal
 -------------------------------------
 Structure from the checkpoint file:  "JID_860.chk"
 Charge =  0 Multiplicity = 1

 SCF Done:  E(RB3LYP) =  -425.310035360     A.U. after   13 cycles
 Normal termination of Gaussian 16 at Tue Dec  8 13:08:24 2020.

 ----------------------------------------------------------------------
 # B3LYP/6-311++G(d,p) empiricaldispersion=gd3bj scf=xqc pop=npa geom=c
 heck
 ----------------------------------------------------------------------

 -----------------------------------
 CID_58787247_JID_860_Energie_kation
 -----------------------------------
 Structure from the checkpoint file:  "JID_860.chk"
 Charge =  1 Multiplicity = 2

 SCF Done:  E(UB3LYP) =  -425.047403990     A.U. after   17 cycles
 Normal termination of Gaussian 16 at Tue Dec  8 13:17:14 2020.
 Gaussian 16:  ES64L-G16RevA.03 25-Dec-2016

 ----------------------------------
 CID_58787247_JID_860_Energie_anion
 ----------------------------------
 Structure from the checkpoint file:  "JID_860.chk"
 Charge = -1 Multiplicity = 2

                         Standard orientation:
 ---------------------------------------------------------------------
 Center     Atomic      Atomic             Coordinates (Angstroms)
 Number     Number       Type             X           Y           Z
 ---------------------------------------------------------------------
      1          6           0       -3.092736   -0.000142   -0.982598
      2          6           0       -2.002382    0.000095    0.089832
      3          6           0       -1.120257    1.256612    0.011172
      4          6           0        0.032733    1.185737    1.021309
      5          7           0        0.901049    0.000207    0.867694
      6          6           0        0.032695   -1.185188    1.021876
      7          6           0       -1.120342   -1.256520    0.011805
      8          7           0        1.505598   -0.000033   -0.492956
      9          6           0        2.353352    1.185756   -0.616788
     10          6           0        2.352552   -1.186356   -0.616908
     11          1           0       -3.732394    0.886905   -0.900806
     12          1           0       -2.648379   -0.000387   -1.985860
     13          1           0       -3.732425   -0.887128   -0.900384
     14          1           0       -2.490898    0.000360    1.078242
     15          1           0       -0.706819    1.344915   -1.000881
     16          1           0       -1.722496    2.155649    0.198753
     17          1           0       -0.367974    1.123143    2.040458
     18          1           0        0.642505    2.091465    0.991865
     19          1           0       -0.368023   -1.122074    2.040990
     20          1           0        0.642413   -2.090968    0.992890
     21          1           0       -1.722623   -2.155423    0.199899
     22          1           0       -0.706987   -1.345401   -1.000235
     23          1           0        3.039415    1.304917    0.239629
     24          1           0        2.940430    1.089980   -1.533798
     25          1           0        1.748568    2.090401   -0.713731
     26          1           0        3.038618   -1.306068    0.239443
     27          1           0        1.747181   -2.090601   -0.713913
     28          1           0        2.939664   -1.090868   -1.533926
 ---------------------------------------------------------------------

 SCF Done:  E(UB3LYP) =  -425.290418376     A.U. after   26 cycles

 The electronic state is 2-A.
 Alpha  occ. eigenvalues --  -14.22303 -14.22125 -10.08102 -10.08101 -10.07667
 Alpha  occ. eigenvalues --  -10.07666 -10.06374 -10.05155 -10.05115 -10.05115
 Alpha  occ. eigenvalues --   -0.86781  -0.74801  -0.68835  -0.64646  -0.59466
 Alpha  occ. eigenvalues --   -0.59015  -0.53388  -0.51379  -0.47455  -0.44252
 Alpha  occ. eigenvalues --   -0.39555  -0.36573  -0.35743  -0.34405  -0.33603
 Alpha  occ. eigenvalues --   -0.32523  -0.30493  -0.30378  -0.28791  -0.28311
 Alpha  occ. eigenvalues --   -0.27861  -0.25908  -0.24834  -0.24697  -0.24026
 Alpha  occ. eigenvalues --   -0.23829  -0.21441  -0.19840  -0.16812  -0.08432
 Alpha  occ. eigenvalues --    0.04947
 Alpha virt. eigenvalues --    0.06977   0.07428   0.07952   0.09233   0.09462
 Alpha virt. eigenvalues --    0.10191   0.10758   0.10917   0.12041   0.12303
 Alpha virt. eigenvalues --    0.12402   0.12986   0.14128   0.14352   0.14584

  Beta  occ. eigenvalues --  -14.22293 -14.22128 -10.08086 -10.08085 -10.07635
  Beta  occ. eigenvalues --  -10.07634 -10.06364 -10.05129 -10.05098 -10.05097
  Beta  occ. eigenvalues --   -0.86766  -0.74775  -0.68806  -0.64613  -0.59410
  Beta  occ. eigenvalues --   -0.58973  -0.53323  -0.51324  -0.47401  -0.44195
  Beta  occ. eigenvalues --   -0.39520  -0.36535  -0.35701  -0.34351  -0.33558
  Beta  occ. eigenvalues --   -0.32500  -0.30465  -0.30350  -0.28751  -0.28277
  Beta  occ. eigenvalues --   -0.27832  -0.25865  -0.24804  -0.24656  -0.23988
  Beta  occ. eigenvalues --   -0.23797  -0.21401  -0.19810  -0.16775  -0.08411
  Beta virt. eigenvalues --    0.07200   0.07924   0.08369   0.08458   0.10025
  Beta virt. eigenvalues --    0.10249   0.10623   0.11178   0.11208   0.12663
  Beta virt. eigenvalues --    0.12725   0.12993   0.13492   0.14477   0.14606

 Mulliken charges and spin densities:
               1          2
     1  C    0.304072  -0.939472
     2  C    0.320660   0.108360
     3  C   -0.142695  -0.232853
     4  C    0.022817  -0.573627
     5  N    0.187508   0.209240
     6  C    0.022580  -0.573586
     7  C   -0.142324  -0.232983
     8  N   -0.372736   0.186946
     9  C    0.728376  -1.103279
    10  C    0.728909  -1.103807
    11  H   -0.244793   0.377477
    12  H    0.014094   0.114364
    13  H   -0.244898   0.377587
    14  H    0.026118   0.121748
    15  H    0.108623   0.040805
    16  H   -0.318137   0.472088
    17  H   -0.095946   0.236313
    18  H   -0.058543   0.247258
    19  H   -0.096057   0.236442
    20  H   -0.058675   0.247467
    21  H   -0.318318   0.472285
    22  H    0.108539   0.040831
    23  H   -0.174878   0.300253
    24  H   -0.224758   0.359383
    25  H   -0.339740   0.475335
    26  H   -0.175189   0.300549
    27  H   -0.339993   0.475603
    28  H   -0.224616   0.359274
 Sum of Mulliken charges =  -1.00000   1.00000

 Dipole moment (field-independent basis, Debye):
    X=             -0.6613    Y=              0.0021    Z=              0.7261  Tot=              0.9821
 Quadrupole moment (field-independent basis, Debye-Ang):
   XX=           -127.6179   YY=           -110.6742   ZZ=            -96.8080
   XY=              0.0006   XZ=              2.4356   YZ=              0.0023

 Summary of Natural Population Analysis:

                                       Natural Population
                Natural  -----------------------------------------------
    Atom  No    Charge         Core      Valence    Rydberg      Total
 -----------------------------------------------------------------------
      C    1   -0.27973      0.99965     2.27514    0.00494     3.27973
      C    2   -0.11072      0.99960     2.10111    0.01001     3.11072
      C    3   -0.20127      0.99960     2.19219    0.00947     3.20127
      C    4   -0.09036      0.99960     2.07832    0.01244     3.09036
      N    5   -0.18923      0.99975     2.67604    0.01344     3.68923
      C    6   -0.09037      0.99960     2.07832    0.01244     3.09037
      C    7   -0.20127      0.99960     2.19219    0.00947     3.20127
      N    8   -0.19925      0.99974     2.68517    0.01434     3.69925
      C    9   -0.18262      0.99964     2.17337    0.00962     3.18262
      C   10   -0.18263      0.99964     2.17338    0.00962     3.18263
      H   11    0.09794      0.00000     0.40084    0.00122     0.40206
      H   12    0.09576      0.00000     0.40311    0.00112     0.40424
      H   13    0.09794      0.00000     0.40084    0.00122     0.40206
      H   14    0.08874      0.00000     0.40921    0.00206     0.41126
      H   15    0.10103      0.00000     0.39718    0.00179     0.39897
      H   16    0.09968      0.00000     0.39887    0.00146     0.40032
      H   17    0.09495      0.00000     0.40368    0.00136     0.40505
      H   18    0.09876      0.00000     0.40001    0.00123     0.40124
      H   19    0.09496      0.00000     0.40368    0.00136     0.40504
      H   20    0.09877      0.00000     0.40000    0.00123     0.40123
      H   21    0.09968      0.00000     0.39886    0.00146     0.40032
      H   22    0.10102      0.00000     0.39719    0.00179     0.39898
      H   23    0.08580      0.00000     0.41202    0.00217     0.41420
      H   24    0.09761      0.00000     0.40111    0.00128     0.40239
      H   25    0.09569      0.00000     0.40282    0.00149     0.40431
      H   26    0.08580      0.00000     0.41203    0.00217     0.41420
      H   27    0.09569      0.00000     0.40282    0.00149     0.40431
      H   28    0.09762      0.00000     0.40111    0.00128     0.40238
 =======================================================================
   * Total *   -0.00000      9.99642    29.87061    0.13297    40.00000

 Normal termination of Gaussian 16 at Tue Dec  8 13:27:00 2020.
