 Gaussian 16, Revision A.03,

 -----------------------------------------------------------
 # opt freq B3LYP/6-31G(d) empiricaldispersion=gd3bj scf=xqc
 -----------------------------------------------------------

 ------------------------------
 CID_24860900_JID_4542_neutraal
 ------------------------------
 Symbolic Z-matrix:
 Charge =  0 Multiplicity = 1

 SCF Done:  E(RB3LYP) =  -921.715731831     A.U. after   15 cycles
 SCF Done:  E(RB3LYP) =  -921.719113292     A.U. after   12 cycles
 SCF Done:  E(RB3LYP) =  -921.719493153     A.U. after   11 cycles
 SCF Done:  E(RB3LYP) =  -921.719617074     A.U. after   11 cycles
 SCF Done:  E(RB3LYP) =  -921.719677674     A.U. after   11 cycles
 SCF Done:  E(RB3LYP) =  -921.719683208     A.U. after   10 cycles
 SCF Done:  E(RB3LYP) =  -921.719697892     A.U. after   10 cycles
 SCF Done:  E(RB3LYP) =  -921.719700259     A.U. after   10 cycles
 SCF Done:  E(RB3LYP) =  -921.719700830     A.U. after    8 cycles
 SCF Done:  E(RB3LYP) =  -921.719700951     A.U. after    7 cycles
 SCF Done:  E(RB3LYP) =  -921.719700982     A.U. after    7 cycles
 Optimization completed.
    -- Stationary point found.
 Normal termination of Gaussian 16 at Thu Dec 10 10:02:55 2020.

 --------------------------------------------------------------------
 #N Geom=AllCheck Guess=TCheck SCRF=Check GenChk RB3LYP/6-31G(d) Freq
 --------------------------------------------------------------------

 Structure from the checkpoint file:  "JID_4542.chk"
 ------------------------------
 CID_24860900_JID_4542_neutraal
 ------------------------------
 Charge =  0 Multiplicity = 1

 SCF Done:  E(RB3LYP) =  -921.719700982     A.U. after    1 cycles

  Exact polarizability: 171.091   5.710 120.049   0.842 -12.732 130.882
 Approx polarizability: 240.184  13.957 191.082   5.376 -34.713 215.748

                      1                      2                      3
                      A                      A                      A
 Frequencies --     32.5153                59.3454                97.1275
 Red. masses --      4.7506                 2.6832                 3.5521
 Frc consts  --      0.0030                 0.0056                 0.0197
 IR Inten    --      0.0257                 0.3037                 0.2594

                      4                      5                      6
                      A                      A                      A
 Frequencies --    137.8650               153.0849               199.0257
 Red. masses --      3.4237                 3.9193                 2.6932
 Frc consts  --      0.0383                 0.0541                 0.0629
 IR Inten    --      0.2267                 0.0373                 0.2081

                      7                      8                      9
                      A                      A                      A
 Frequencies --    226.3608               259.8397               280.6134
 Red. masses --      1.1740                 2.8195                 4.7919
 Frc consts  --      0.0354                 0.1122                 0.2223
 IR Inten    --      0.1464                 1.2786                 1.6775

                     10                     11                     12
                      A                      A                      A
 Frequencies --    304.8123               316.8382               323.6353
 Red. masses --      1.8735                 2.3471                 1.9673
 Frc consts  --      0.1026                 0.1388                 0.1214
 IR Inten    --      9.4129                 2.6052                 9.2918

                     13                     14                     15
                      A                      A                      A
 Frequencies --    347.8901               407.3877               423.1695
 Red. masses --      2.2538                 1.8911                 2.9048
 Frc consts  --      0.1607                 0.1849                 0.3065
 IR Inten    --      5.3191                 0.7353                 1.6966

                     16                     17                     18
                      A                      A                      A
 Frequencies --    448.5275               483.7745               505.5788
 Red. masses --      2.7275                 2.8404                 3.2807
 Frc consts  --      0.3233                 0.3917                 0.4941
 IR Inten    --      6.2113                 4.2415                 2.4832

                     19                     20                     21
                      A                      A                      A
 Frequencies --    515.2637               555.7680               610.6820
 Red. masses --      1.9395                 3.1362                 2.7182
 Frc consts  --      0.3034                 0.5707                 0.5973
 IR Inten    --      2.5472                 1.2197                 2.3861

                     22                     23                     24
                      A                      A                      A
 Frequencies --    626.9854               658.2039               700.8054
 Red. masses --      3.6039                 4.9857                 1.2015
 Frc consts  --      0.8347                 1.2726                 0.3477
 IR Inten    --      1.2157                 6.1500                54.0039

                     25                     26                     27
                      A                      A                      A
 Frequencies --    746.4426               801.5347               811.8445
 Red. masses --      6.9257                 1.4798                 2.0367
 Frc consts  --      2.2735                 0.5601                 0.7909
 IR Inten    --      0.0474                 4.3436                 3.8423

                     28                     29                     30
                      A                      A                      A
 Frequencies --    824.6545               838.2573               863.7049
 Red. masses --      2.6294                 1.5002                 3.1910
 Frc consts  --      1.0535                 0.6211                 1.4025
 IR Inten    --      3.1965                14.4039                 4.8731

                     31                     32                     33
                      A                      A                      A
 Frequencies --    877.3998               895.2381               906.3334
 Red. masses --      1.8110                 1.9408                 1.3627
 Frc consts  --      0.8214                 0.9164                 0.6595
 IR Inten    --    168.7584               100.1379                 0.3741

                     34                     35                     36
                      A                      A                      A
 Frequencies --    916.1430               925.5594               953.8313
 Red. masses --      1.7917                 2.3278                 1.8515
 Frc consts  --      0.8860                 1.1749                 0.9925
 IR Inten    --      1.8709                 7.7641                 2.9080

                     37                     38                     39
                      A                      A                      A
 Frequencies --    957.3452              1012.9335              1024.3328
 Red. masses --      1.3933                 2.4937                 1.4783
 Frc consts  --      0.7523                 1.5075                 0.9139
 IR Inten    --      1.6194                 6.9640                 0.2611

                     40                     41                     42
                      A                      A                      A
 Frequencies --   1053.9467              1068.4631              1088.8249
 Red. masses --      1.8749                 1.6378                 1.7609
 Frc consts  --      1.2271                 1.1016                 1.2300
 IR Inten    --      0.7193                28.5679                 2.8844

                     43                     44                     45
                      A                      A                      A
 Frequencies --   1089.5986              1110.8462              1117.1677
 Red. masses --      1.6529                 2.3832                 1.1897
 Frc consts  --      1.1562                 1.7327                 0.8748
 IR Inten    --      3.5078                 0.1674                 8.1467

                     46                     47                     48
                      A                      A                      A
 Frequencies --   1139.7367              1166.7482              1194.2759
 Red. masses --      1.4395                 2.7070                 1.6584
 Frc consts  --      1.1017                 2.1712                 1.3936
 IR Inten    --      4.1514                 9.6147                 0.7019

                     49                     50                     51
                      A                      A                      A
 Frequencies --   1197.7861              1229.4623              1274.4098
 Red. masses --      2.6021                 1.7347                 1.4544
 Frc consts  --      2.1995                 1.5449                 1.3918
 IR Inten    --      4.5445                 1.3256                16.1455

                     52                     53                     54
                      A                      A                      A
 Frequencies --   1282.5220              1303.6783              1318.7619
 Red. masses --      1.5943                 1.3732                 1.3268
 Frc consts  --      1.5451                 1.3751                 1.3596
 IR Inten    --      3.4299                 0.1979                 0.4638

                     55                     56                     57
                      A                      A                      A
 Frequencies --   1321.3860              1364.9795              1368.9073
 Red. masses --      1.2067                 1.3600                 1.3403
 Frc consts  --      1.2414                 1.4929                 1.4798
 IR Inten    --      3.6462                17.6447                 4.0130

                     58                     59                     60
                      A                      A                      A
 Frequencies --   1388.0817              1395.3464              1404.1572
 Red. masses --      1.4281                 2.0967                 1.4528
 Frc consts  --      1.6212                 2.4052                 1.6877
 IR Inten    --      0.4036                 0.2764                 0.1323

                     61                     62                     63
                      A                      A                      A
 Frequencies --   1407.4737              1410.9410              1426.5174
 Red. masses --      1.5414                 1.4416                 1.2230
 Frc consts  --      1.7991                 1.6909                 1.4663
 IR Inten    --      1.8727                 3.0613                 5.9328

                     64                     65                     66
                      A                      A                      A
 Frequencies --   1445.6779              1501.6355              1514.7344
 Red. masses --      1.3323                 6.5216                 1.0766
 Frc consts  --      1.6405                 8.6643                 1.4554
 IR Inten    --     10.7627                 9.0612                 0.4564

                     67                     68                     69
                      A                      A                      A
 Frequencies --   1515.9327              1522.7152              1525.3956
 Red. masses --      1.0886                 1.0830                 1.0592
 Frc consts  --      1.4739                 1.4795                 1.4521
 IR Inten    --      1.3278                 2.5379                 7.5565

                     70                     71                     72
                      A                      A                      A
 Frequencies --   1527.3215              1534.3516              1545.1203
 Red. masses --      1.0672                 1.0772                 1.0861
 Frc consts  --      1.4668                 1.4941                 1.5277
 IR Inten    --      3.4340                 3.3682                 2.8859

                     73                     74                     75
                      A                      A                      A
 Frequencies --   1595.2650              1698.9465              3024.7597
 Red. masses --      5.0361                 1.0924                 1.0676
 Frc consts  --      7.5511                 1.8578                 5.7552
 IR Inten    --      1.4879                16.2445                20.8809

                     76                     77                     78
                      A                      A                      A
 Frequencies --   3037.5410              3039.5826              3043.1771
 Red. masses --      1.0641                 1.0687                 1.0608
 Frc consts  --      5.7848                 5.8172                 5.7881
 IR Inten    --     20.2082                11.8613                14.1671

                     79                     80                     81
                      A                      A                      A
 Frequencies --   3046.3681              3063.9891              3073.6572
 Red. masses --      1.0645                 1.0379                 1.0892
 Frc consts  --      5.8206                 5.7407                 6.0625
 IR Inten    --     31.5119                11.5818                86.1867

                     82                     83                     84
                      A                      A                      A
 Frequencies --   3075.9569              3076.6553              3083.1255
 Red. masses --      1.0972                 1.0954                 1.0998
 Frc consts  --      6.1165                 6.1091                 6.1594
 IR Inten    --     35.7166                26.6633                17.6245

                     85                     86                     87
                      A                      A                      A
 Frequencies --   3090.7232              3100.7158              3133.2255
 Red. masses --      1.0952                 1.0965                 1.0997
 Frc consts  --      6.1640                 6.2111                 6.3609
 IR Inten    --     74.6935                46.2803                37.1504

                     88                     89                     90
                      A                      A                      A
 Frequencies --   3144.4159              3218.2799              3237.3360
 Red. masses --      1.1024                 1.0887                 1.0942
 Frc consts  --      6.4221                 6.6437                 6.7563
 IR Inten    --     22.2838                10.4508                 6.4925

                     91                     92                     93
                      A                      A                      A
 Frequencies --   3270.7588              3477.9491              3570.4500
 Red. masses --      1.0972                 1.0488                 1.0923
 Frc consts  --      6.9155                 7.4745                 8.2041
 IR Inten    --      1.5893                 0.7731                 1.0321

 - Thermochemistry -
 -------------------
 Temperature   298.150 Kelvin.  Pressure   1.00000 Atm.
 Atom     1 has atomic number  6 and mass  12.00000

 Molecular mass:   209.12382 amu.
 Principal axes and moments of inertia in atomic units:
                           1         2         3
     Eigenvalues --  1815.070354038.445094160.98330
           X            0.99989  -0.00670  -0.01295
           Y            0.00715   0.99938   0.03456
           Z            0.01271  -0.03465   0.99932
 This molecule is an asymmetric top.
 Rotational symmetry number  1.
 Warning -- assumption of classical behavior for rotation
           may cause significant error
 Rotational temperatures (Kelvin)      0.04772     0.02145     0.02082
 Rotational constants (GHZ):           0.99431     0.44689     0.43373
 Zero-point vibrational energy     770936.0 (Joules/Mol)
                                  184.25813 (Kcal/Mol)
 Warning -- explicit consideration of  21 degrees of freedom as
           vibrations may cause significant error
 Vibrational temperatures:     46.78    85.38   139.74   198.36   220.25
          (Kelvin)            286.35   325.68   373.85   403.74   438.56
                              455.86   465.64   500.54   586.14   608.85
                              645.33   696.04   727.42   741.35   799.63
                              878.64   902.09   947.01  1008.30  1073.96
                             1153.23  1168.06  1186.49  1206.07  1242.68
                             1262.38  1288.05  1304.01  1318.13  1331.67
                             1372.35  1377.41  1457.39  1473.79  1516.39
                             1537.28  1566.58  1567.69  1598.26  1607.36
                             1639.83  1678.69  1718.30  1723.35  1768.92
                             1833.59  1845.26  1875.70  1897.40  1901.18
                             1963.90  1969.55  1997.14  2007.59  2020.27
                             2025.04  2030.03  2052.44  2080.01  2160.52
                             2179.37  2181.09  2190.85  2194.70  2197.47
                             2207.59  2223.08  2295.23  2444.41  4351.95
                             4370.34  4373.28  4378.45  4383.04  4408.40
                             4422.31  4425.62  4426.62  4435.93  4446.86
                             4461.24  4508.01  4524.11  4630.39  4657.80
                             4705.89  5003.99  5137.08

 Zero-point correction=                           0.293634 (Hartree/Particle)
 Thermal correction to Energy=                    0.307302
 Thermal correction to Enthalpy=                  0.308246
 Thermal correction to Gibbs Free Energy=         0.253530
 Sum of electronic and zero-point Energies=           -921.426067
 Sum of electronic and thermal Energies=              -921.412399
 Sum of electronic and thermal Enthalpies=            -921.411454
 Sum of electronic and thermal Free Energies=         -921.466171

                     E (Thermal)             CV                S
                      KCal/Mol        Cal/Mol-Kelvin    Cal/Mol-Kelvin
 Total                  192.835             55.104            115.162
 Electronic               0.000              0.000              0.000
 Translational            0.889              2.981             41.917
 Rotational               0.889              2.981             31.789
 Vibrational            191.058             49.142             41.455
 Vibration     1          0.594              1.983              5.670
 Vibration     2          0.597              1.974              4.479
 Vibration     3          0.603              1.951              3.511
 Vibration     4          0.614              1.916              2.833
 Vibration     5          0.619              1.899              2.634
 Vibration     6          0.637              1.841              2.142
 Vibration     7          0.650              1.801              1.908
 Vibration     8          0.668              1.746              1.663
 Vibration     9          0.680              1.709              1.530
 Vibration    10          0.696              1.665              1.390
 Vibration    11          0.704              1.641              1.326
 Vibration    12          0.708              1.628              1.292
 Vibration    13          0.726              1.580              1.176
 Vibration    14          0.772              1.454              0.936
 Vibration    15          0.785              1.420              0.881
 Vibration    16          0.808              1.364              0.800
 Vibration    17          0.840              1.286              0.700
 Vibration    18          0.861              1.238              0.644
 Vibration    19          0.870              1.216              0.621
 Vibration    20          0.911              1.127              0.532
 Vibration    21          0.970              1.009              0.432

 Optimization completed.
    -- Stationary point found.
 Normal termination of Gaussian 16 at Thu Dec 10 10:14:11 2020.

 ----------------------------------------------------------------------
 # B3LYP/6-311++G(d,p) empiricaldispersion=gd3bj scf=xqc pop=npa geom=c
 heck
 ----------------------------------------------------------------------

 --------------------------------------
 CID_24860900_JID_4542_Energie_neutraal
 --------------------------------------
 Structure from the checkpoint file:  "JID_4542.chk"
 Charge =  0 Multiplicity = 1

 SCF Done:  E(RB3LYP) =  -921.893166283     A.U. after   15 cycles
 Normal termination of Gaussian 16 at Thu Dec 10 10:19:01 2020.

 ----------------------------------------------------------------------
 # B3LYP/6-311++G(d,p) empiricaldispersion=gd3bj scf=xqc pop=npa geom=c
 heck
 ----------------------------------------------------------------------

 ------------------------------------
 CID_24860900_JID_4542_Energie_kation
 ------------------------------------
 Structure from the checkpoint file:  "JID_4542.chk"
 Charge =  1 Multiplicity = 2

 SCF Done:  E(UB3LYP) =  -921.601563538     A.U. after   26 cycles
 Normal termination of Gaussian 16 at Thu Dec 10 10:31:01 2020.
 Gaussian 16:  ES64L-G16RevA.03 25-Dec-2016

 ----------------------------------------------------------------------
 # B3LYP/6-311++G(d,p) empiricaldispersion=gd3bj scf=xqc pop=npa geom=c
 heck
 ----------------------------------------------------------------------

 -----------------------------------
 CID_24860900_JID_4542_Energie_anion
 -----------------------------------
 Structure from the checkpoint file:  "JID_4542.chk"
 Charge = -1 Multiplicity = 2

                         Standard orientation:
 ---------------------------------------------------------------------
 Center     Atomic      Atomic             Coordinates (Angstroms)
 Number     Number       Type             X           Y           Z
 ---------------------------------------------------------------------
      1          6           0        0.109983    1.730886    1.936560
      2          6           0        0.702249    1.447394    0.554061
      3          6           0        0.475897   -0.049148    0.078867
      4          6           0        1.039749   -0.257505   -1.353607
      5          6           0        2.564016   -0.110538   -1.444847
      6          6           0        3.270570   -1.076499   -0.486828
      7          6           0        2.755962   -0.910238    0.947625
      8          6           0        1.227452   -1.034710    1.015135
      9          6           0       -0.999765   -0.384189    0.094471
     10          6           0       -1.716047   -1.105180    1.016895
     11          6           0       -3.113508   -1.193207    0.731943
     12          6           0       -3.463417   -0.537777   -0.413514
     13         16           0       -2.082126    0.198206   -1.163545
     14          7           0        0.227207    2.491121   -0.355237
     15          1           0       -0.977638    1.600114    1.930962
     16          1           0        0.330818    2.765170    2.213567
     17          1           0        0.521328    1.071173    2.705713
     18          1           0        1.785487    1.588486    0.622715
     19          1           0        0.759117   -1.267440   -1.679219
     20          1           0        0.553215    0.427960   -2.056801
     21          1           0        2.862383    0.920818   -1.213834
     22          1           0        2.883878   -0.298420   -2.477082
     23          1           0        4.356887   -0.929941   -0.524333
     24          1           0        3.078905   -2.107726   -0.817388
     25          1           0        3.078398    0.060578    1.345243
     26          1           0        3.204333   -1.669791    1.599879
     27          1           0        0.893310   -0.912225    2.049672
     28          1           0        0.946673   -2.054166    0.719342
     29          1           0       -1.260440   -1.567399    1.883978
     30          1           0       -3.821553   -1.728063    1.355595
     31          1           0       -4.440916   -0.445303   -0.866666
     32          1           0        0.634215    2.387825   -1.281475
     33          1           0       -0.783669    2.433467   -0.467058
 ---------------------------------------------------------------------

 SCF Done:  E(UB3LYP) =  -921.878175030     A.U. after   33 cycles
 SCF Done:  E(UB3LYP) =  -921.878175030     a.u. after    1 cycles

 The electronic state is 2-A.
 Alpha  occ. eigenvalues --  -88.77648 -14.19588 -10.10454 -10.10444 -10.09943
 Alpha  occ. eigenvalues --  -10.09643 -10.07963 -10.07439 -10.06998 -10.06807
 Alpha  occ. eigenvalues --  -10.06672 -10.06546 -10.06410 -10.05961  -7.86276
 Alpha  occ. eigenvalues --   -5.82551  -5.82187  -5.81890  -0.80254  -0.77969
 Alpha  occ. eigenvalues --   -0.73618  -0.67463  -0.65078  -0.63422  -0.62947
 Alpha  occ. eigenvalues --   -0.60705  -0.53227  -0.51700  -0.50276  -0.45972
 Alpha  occ. eigenvalues --   -0.45466  -0.42717  -0.41234  -0.39682  -0.38069
 Alpha  occ. eigenvalues --   -0.35612  -0.35251  -0.34076  -0.32326  -0.31352
 Alpha  occ. eigenvalues --   -0.30624  -0.29835  -0.28975  -0.28292  -0.27980
 Alpha  occ. eigenvalues --   -0.27059  -0.26312  -0.25326  -0.24970  -0.24820
 Alpha  occ. eigenvalues --   -0.24049  -0.21882  -0.21255  -0.19996  -0.16174
 Alpha  occ. eigenvalues --   -0.14777  -0.13219   0.04373
 Alpha virt. eigenvalues --    0.06033   0.06938   0.07234   0.07726   0.07887
 Alpha virt. eigenvalues --    0.08320   0.09467   0.09930   0.10368   0.10569
 Alpha virt. eigenvalues --    0.11099   0.12136   0.12161   0.12474   0.12980

  Beta  occ. eigenvalues --  -88.77642 -14.19576 -10.10443 -10.10435 -10.09918
  Beta  occ. eigenvalues --  -10.09645 -10.07951 -10.07425 -10.06988 -10.06794
  Beta  occ. eigenvalues --  -10.06650 -10.06525 -10.06388 -10.05948  -7.86268
  Beta  occ. eigenvalues --   -5.82544  -5.82183  -5.81879  -0.80233  -0.77944
  Beta  occ. eigenvalues --   -0.73590  -0.67429  -0.65043  -0.63387  -0.62917
  Beta  occ. eigenvalues --   -0.60665  -0.53187  -0.51650  -0.50236  -0.45912
  Beta  occ. eigenvalues --   -0.45413  -0.42678  -0.41188  -0.39646  -0.38029
  Beta  occ. eigenvalues --   -0.35584  -0.35221  -0.34043  -0.32301  -0.31321
  Beta  occ. eigenvalues --   -0.30586  -0.29809  -0.28937  -0.28260  -0.27939
  Beta  occ. eigenvalues --   -0.27029  -0.26281  -0.25295  -0.24942  -0.24788
  Beta  occ. eigenvalues --   -0.24019  -0.21852  -0.21217  -0.19963  -0.16139
  Beta  occ. eigenvalues --   -0.14743  -0.13165
  Beta virt. eigenvalues --    0.06472   0.06947   0.07401   0.07766   0.08027
  Beta virt. eigenvalues --    0.08629   0.08937   0.09695   0.10291   0.10591
  Beta virt. eigenvalues --    0.11123   0.11447   0.12194   0.12517   0.12664

 Mulliken charges and spin densities:
               1          2
     1  C    0.181120  -0.870674
     2  C   -0.431655  -0.136914
     3  C    0.756815   0.092054
     4  C   -0.089225  -0.553833
     5  C   -0.504331   0.218385
     6  C    0.793245  -1.328666
     7  C    0.504568  -0.916245
     8  C   -0.767940   0.286986
     9  C    0.289913  -0.078035
    10  C    0.054538   0.034287
    11  C    0.450410  -0.586719
    12  C   -0.070123  -0.283269
    13  S    0.128192  -0.128729
    14  N   -0.355040   0.053797
    15  H    0.192442  -0.025558
    16  H    0.133337   0.026702
    17  H   -0.109098   0.253393
    18  H    0.167289   0.033796
    19  H   -0.070405   0.265194
    20  H    0.071049   0.048462
    21  H   -0.076530   0.203305
    22  H   -0.554392   0.748128
    23  H   -0.503399   0.681309
    24  H    0.197841  -0.072039
    25  H    0.028514   0.101320
    26  H   -0.438536   0.622798
    27  H    0.073666   0.042821
    28  H   -0.080778   0.255218
    29  H   -0.176340   0.340288
    30  H   -0.508920   0.682115
    31  H   -0.499776   0.725279
    32  H    0.104196   0.147237
    33  H    0.109354   0.117809
 Sum of Mulliken charges =  -1.00000   1.00000

 Dipole moment (field-independent basis, Debye):
    X=             -1.6082    Y=              2.1557    Z=             -0.1379  Tot=              2.6930
 Quadrupole moment (field-independent basis, Debye-Ang):
   XX=           -176.0615   YY=           -136.7985   ZZ=           -136.7821
   XY=             -0.6169   XZ=              4.0158   YZ=              4.0537

 Summary of Natural Population Analysis:

                                       Natural Population
                Natural  -----------------------------------------------
    Atom  No    Charge         Core      Valence    Rydberg      Total
 -----------------------------------------------------------------------
      C    1   -0.28868      0.99964     2.28364    0.00540     3.28868
      C    2   -0.01075      0.99957     1.99810    0.01308     3.01075
      C    3   -0.05626      0.99948     2.04121    0.01557     3.05626
      C    4   -0.19118      0.99959     2.18002    0.01158     3.19118
      C    5   -0.19083      0.99962     2.18237    0.00884     3.19083
      C    6   -0.18730      0.99962     2.17980    0.00787     3.18730
      C    7   -0.18882      0.99962     2.18057    0.00863     3.18882
      C    8   -0.18928      0.99960     2.17838    0.01130     3.18928
      C    9   -0.08373      0.99945     2.06777    0.01651     3.08373
      C   10   -0.13124      0.99944     2.12046    0.01135     3.13124
      C   11   -0.12446      0.99953     2.11400    0.01092     3.12446
      C   12   -0.19748      0.99954     2.18595    0.01199     3.19748
      S   13    0.19749      4.99939     2.78336    0.01975     7.80251
      N   14   -0.42384      0.99977     2.91440    0.00967     3.92384
      H   15    0.10104      0.00000     0.39799    0.00097     0.39896
      H   16    0.10310      0.00000     0.39598    0.00091     0.39690
      H   17    0.10033      0.00000     0.39879    0.00087     0.39967
      H   18    0.09460      0.00000     0.40330    0.00210     0.40540
      H   19    0.10217      0.00000     0.39650    0.00133     0.39783
      H   20    0.10019      0.00000     0.39829    0.00152     0.39981
      H   21    0.09268      0.00000     0.40581    0.00151     0.40732
      H   22    0.10188      0.00000     0.39684    0.00128     0.39812
      H   23    0.10022      0.00000     0.39833    0.00146     0.39978
      H   24    0.09222      0.00000     0.40642    0.00136     0.40778
      H   25    0.09275      0.00000     0.40572    0.00153     0.40725
      H   26    0.10206      0.00000     0.39662    0.00132     0.39794
      H   27    0.10213      0.00000     0.39593    0.00194     0.39787
      H   28    0.10108      0.00000     0.39741    0.00151     0.39892
      H   29    0.11141      0.00000     0.38719    0.00140     0.38859
      H   30    0.10734      0.00000     0.39125    0.00141     0.39266
      H   31    0.11049      0.00000     0.38815    0.00136     0.38951
      H   32    0.17572      0.00000     0.32229    0.00199     0.32428
      H   33    0.17492      0.00000     0.32248    0.00260     0.32508
 =======================================================================
   * Total *   -0.00000     17.99385    38.81534    0.19081    57.00000

 Normal termination of Gaussian 16 at Thu Dec 10 10:46:07 2020.
