 Gaussian 16, Revision A.03,

 -----------------------------------------------------------
 # opt freq B3LYP/6-31G(d) empiricaldispersion=gd3bj scf=xqc
 -----------------------------------------------------------

 ------------------------------
 CID_71342903_JID_3606_neutraal
 ------------------------------
 Symbolic Z-matrix:
 Charge =  0 Multiplicity = 1

 SCF Done:  E(RB3LYP) =  -582.918439535     A.U. after   14 cycles
 SCF Done:  E(RB3LYP) =  -582.921378263     A.U. after   13 cycles
 SCF Done:  E(RB3LYP) =  -582.921743882     A.U. after   12 cycles
 SCF Done:  E(RB3LYP) =  -582.922353123     A.U. after   12 cycles
 SCF Done:  E(RB3LYP) =  -582.922495017     A.U. after   12 cycles
 SCF Done:  E(RB3LYP) =  -582.923003941     A.U. after   11 cycles
 SCF Done:  E(RB3LYP) =  -582.923252791     A.U. after   13 cycles
 SCF Done:  E(RB3LYP) =  -582.923419904     A.U. after   12 cycles
 SCF Done:  E(RB3LYP) =  -582.923519506     A.U. after   12 cycles
 SCF Done:  E(RB3LYP) =  -582.923635422     A.U. after   13 cycles
 SCF Done:  E(RB3LYP) =  -582.924186583     A.U. after   11 cycles
 SCF Done:  E(RB3LYP) =  -582.924187811     A.U. after    8 cycles
 SCF Done:  E(RB3LYP) =  -582.924187937     A.U. after    7 cycles
 SCF Done:  E(RB3LYP) =  -582.924187986     A.U. after    7 cycles
 SCF Done:  E(RB3LYP) =  -582.924187888     A.U. after    7 cycles
 Optimization completed.
    -- Stationary point found.
 Normal termination of Gaussian 16 at Sun Dec 13 16:06:59 2020.

 --------------------------------------------------------------------
 #N Geom=AllCheck Guess=TCheck SCRF=Check GenChk RB3LYP/6-31G(d) Freq
 --------------------------------------------------------------------

 Structure from the checkpoint file:  "JID_3606.chk"
 ------------------------------
 CID_71342903_JID_3606_neutraal
 ------------------------------
 Charge =  0 Multiplicity = 1

 SCF Done:  E(RB3LYP) =  -582.924187888     A.U. after    1 cycles

  Exact polarizability: 141.386   0.006 114.159  -1.832   2.041 105.593
 Approx polarizability: 163.057  -3.219 174.642  -3.108   7.308 157.295

                      1                      2                      3
                      A                      A                      A
 Frequencies --     27.1993                36.8248                43.5952
 Red. masses --      3.6640                 3.8580                 3.5874
 Frc consts  --      0.0016                 0.0031                 0.0040
 IR Inten    --      0.1707                 2.5582                 0.6086

                      4                      5                      6
                      A                      A                      A
 Frequencies --     58.5930                69.3148               102.8812
 Red. masses --      3.6873                 3.7919                 3.5813
 Frc consts  --      0.0075                 0.0107                 0.0223
 IR Inten    --      1.2008                 1.3747                 0.9474

                      7                      8                      9
                      A                      A                      A
 Frequencies --    127.5090               144.2232               168.4045
 Red. masses --      1.1083                 2.2022                 2.6419
 Frc consts  --      0.0106                 0.0270                 0.0441
 IR Inten    --      0.2965                 0.8415                 4.2713

                     10                     11                     12
                      A                      A                      A
 Frequencies --    222.9459               237.4921               265.4687
 Red. masses --      1.9598                 1.7473                 2.4163
 Frc consts  --      0.0574                 0.0581                 0.1003
 IR Inten    --      2.0364                 0.4595                 1.6327

                     13                     14                     15
                      A                      A                      A
 Frequencies --    277.1241               294.5057               323.1011
 Red. masses --      2.1961                 1.1568                 2.2910
 Frc consts  --      0.0994                 0.0591                 0.1409
 IR Inten    --      4.0738               100.9630                 2.8983

                     16                     17                     18
                      A                      A                      A
 Frequencies --    346.8522               373.3360               411.0366
 Red. masses --      1.9795                 2.1462                 2.1664
 Frc consts  --      0.1403                 0.1762                 0.2157
 IR Inten    --      3.2100                 3.1112                 3.2041

                     19                     20                     21
                      A                      A                      A
 Frequencies --    429.5326               464.6175               476.7653
 Red. masses --      2.0858                 3.0883                 2.1310
 Frc consts  --      0.2267                 0.3928                 0.2854
 IR Inten    --      2.6633                 3.7139                 2.1514

                     22                     23                     24
                      A                      A                      A
 Frequencies --    511.7469               595.7412               611.8775
 Red. masses --      2.5020                 2.2417                 2.7354
 Frc consts  --      0.3861                 0.4687                 0.6034
 IR Inten    --      3.1613                 8.1900                 4.1538

                     25                     26                     27
                      A                      A                      A
 Frequencies --    706.1688               752.3587               769.3222
 Red. masses --      1.5161                 2.0432                 2.2273
 Frc consts  --      0.4454                 0.6814                 0.7767
 IR Inten    --     16.6431                 2.1529                 3.4443

                     28                     29                     30
                      A                      A                      A
 Frequencies --    788.9653               819.2466               860.0571
 Red. masses --      2.0444                 1.5342                 1.6232
 Frc consts  --      0.7498                 0.6067                 0.7074
 IR Inten    --      6.9153                 1.1192                 4.1022

                     31                     32                     33
                      A                      A                      A
 Frequencies --    871.9024               896.7406               940.2870
 Red. masses --      2.0457                 1.7443                 1.8906
 Frc consts  --      0.9163                 0.8264                 0.9849
 IR Inten    --      3.1284                 2.3212                 8.9584

                     34                     35                     36
                      A                      A                      A
 Frequencies --    964.1874               968.2456              1015.3637
 Red. masses --      1.7226                 1.9043                 1.6684
 Frc consts  --      0.9436                 1.0519                 1.0135
 IR Inten    --     16.3931                 5.2911                 2.4822

                     37                     38                     39
                      A                      A                      A
 Frequencies --   1016.0064              1031.5637              1057.8474
 Red. masses --      1.7206                 1.8303                 2.3751
 Frc consts  --      1.0464                 1.1476                 1.5660
 IR Inten    --      5.8181                14.7505                15.5028

                     40                     41                     42
                      A                      A                      A
 Frequencies --   1074.8774              1082.4849              1096.5758
 Red. masses --      1.8111                 1.5914                 1.7553
 Frc consts  --      1.2329                 1.0987                 1.2436
 IR Inten    --      5.5911                 2.4047                 0.9688

                     43                     44                     45
                      A                      A                      A
 Frequencies --   1134.0007              1147.8797              1154.1611
 Red. masses --      2.2232                 2.0702                 1.9048
 Frc consts  --      1.6844                 1.6072                 1.4950
 IR Inten    --      5.1541                20.0953                16.7530

                     46                     47                     48
                      A                      A                      A
 Frequencies --   1192.1981              1197.0706              1218.0977
 Red. masses --      1.6914                 1.5702                 1.5967
 Frc consts  --      1.4164                 1.3257                 1.3958
 IR Inten    --     30.6347                15.3365                36.5286

                     49                     50                     51
                      A                      A                      A
 Frequencies --   1248.5643              1255.8562              1286.3227
 Red. masses --      1.2916                 1.1761                 1.2770
 Frc consts  --      1.1863                 1.0929                 1.2449
 IR Inten    --     17.6436                18.2377                19.9171

                     52                     53                     54
                      A                      A                      A
 Frequencies --   1301.6301              1323.8948              1353.8658
 Red. masses --      1.2117                 1.1874                 1.1984
 Frc consts  --      1.2096                 1.2262                 1.2942
 IR Inten    --      2.4197                 4.5994                 0.2106

                     55                     56                     57
                      A                      A                      A
 Frequencies --   1356.5299              1383.5304              1388.6853
 Red. masses --      1.1901                 1.3596                 1.5834
 Frc consts  --      1.2903                 1.5334                 1.7991
 IR Inten    --      7.0388                 4.5035                 3.3294

                     58                     59                     60
                      A                      A                      A
 Frequencies --   1403.3887              1409.4408              1414.2555
 Red. masses --      1.3124                 1.3827                 1.5117
 Frc consts  --      1.5229                 1.6183                 1.7815
 IR Inten    --     16.1812                 8.2570                45.5468

                     61                     62                     63
                      A                      A                      A
 Frequencies --   1421.3640              1426.8698              1434.0891
 Red. masses --      1.4825                 1.3881                 1.4502
 Frc consts  --      1.7647                 1.6651                 1.7572
 IR Inten    --      6.7002                 2.4460                 1.5487

                     64                     65                     66
                      A                      A                      A
 Frequencies --   1439.1790              1461.5473              1484.4920
 Red. masses --      1.2759                 1.5047                 1.0837
 Frc consts  --      1.5571                 1.8938                 1.4071
 IR Inten    --      0.9693                22.7960                 7.9116

                     67                     68                     69
                      A                      A                      A
 Frequencies --   1495.0216              1504.0441              1505.7208
 Red. masses --      1.0559                 1.0709                 1.0621
 Frc consts  --      1.3904                 1.4274                 1.4188
 IR Inten    --     11.7333                11.5822                 3.9962

                     70                     71                     72
                      A                      A                      A
 Frequencies --   1512.1176              1518.9514              1522.5386
 Red. masses --      1.0945                 1.0736                 1.0793
 Frc consts  --      1.4745                 1.4594                 1.4741
 IR Inten    --      2.0142                 7.2653                 8.6073

                     73                     74                     75
                      A                      A                      A
 Frequencies --   1531.3921              1535.6364              1540.2810
 Red. masses --      1.0463                 1.0614                 1.0825
 Frc consts  --      1.4457                 1.4747                 1.5131
 IR Inten    --      6.2274                 0.6447                 8.8329

                     76                     77                     78
                      A                      A                      A
 Frequencies --   1544.2292              1815.7677              2956.4365
 Red. masses --      1.0896                10.0274                 1.0832
 Frc consts  --      1.5308                19.4786                 5.5784
 IR Inten    --      0.3259               116.4461                71.8795

                     79                     80                     81
                      A                      A                      A
 Frequencies --   3017.6480              3018.2216              3021.1498
 Red. masses --      1.0677                 1.0701                 1.0705
 Frc consts  --      5.7283                 5.7435                 5.7569
 IR Inten    --     28.8642                29.2654                37.7470

                     82                     83                     84
                      A                      A                      A
 Frequencies --   3033.6826              3047.0554              3048.0935
 Red. masses --      1.0642                 1.0396                 1.0435
 Frc consts  --      5.7704                 5.6869                 5.7121
 IR Inten    --     51.0661                 3.0002                 4.0257

                     85                     86                     87
                      A                      A                      A
 Frequencies --   3052.2263              3052.4514              3060.4403
 Red. masses --      1.0724                 1.0617                 1.0870
 Frc consts  --      5.8861                 5.8284                 5.9986
 IR Inten    --     46.3362                 8.0050                50.6875

                     88                     89                     90
                      A                      A                      A
 Frequencies --   3066.5170              3070.5634              3083.8048
 Red. masses --      1.0767                 1.0766                 1.0916
 Frc consts  --      5.9651                 5.9807                 6.1160
 IR Inten    --     12.9292                 7.5111                19.6667

                     91                     92                     93
                      A                      A                      A
 Frequencies --   3090.6132              3098.7620              3104.5765
 Red. masses --      1.0997                 1.0950                 1.0926
 Frc consts  --      6.1888                 6.1949                 6.2048
 IR Inten    --     55.3171                41.6934                44.0638

                     94                     95                     96
                      A                      A                      A
 Frequencies --   3105.7549              3110.1219              3114.5062
 Red. masses --      1.0985                 1.1027                 1.1005
 Frc consts  --      6.2427                 6.2844                 6.2894
 IR Inten    --      7.6379                37.0427                46.1422

                     97                     98                     99
                      A                      A                      A
 Frequencies --   3123.2875              3164.8049              3737.8796
 Red. masses --      1.1025                 1.1021                 1.0660
 Frc consts  --      6.3364                 6.5035                 8.7753
 IR Inten    --     38.4361                12.8970                 6.9806

 - Thermochemistry -
 -------------------
 Temperature   298.150 Kelvin.  Pressure   1.00000 Atm.
 Atom     1 has atomic number  6 and mass  12.00000

 Molecular mass:   186.16198 amu.
 Principal axes and moments of inertia in atomic units:
                           1         2         3
     Eigenvalues --  1018.489166408.253636726.19615
           X            1.00000   0.00281   0.00096
           Y           -0.00278   0.99965  -0.02615
           Z           -0.00104   0.02615   0.99966
 This molecule is an asymmetric top.
 Rotational symmetry number  1.
 Warning -- assumption of classical behavior for rotation
           may cause significant error
 Rotational temperatures (Kelvin)      0.08504     0.01352     0.01288
 Rotational constants (GHZ):           1.77198     0.28163     0.26832
 Zero-point vibrational energy     839623.6 (Joules/Mol)
                                  200.67485 (Kcal/Mol)
 Warning -- explicit consideration of  24 degrees of freedom as
           vibrations may cause significant error
 Vibrational temperatures:     39.13    52.98    62.72    84.30    99.73
          (Kelvin)            148.02   183.46   207.51   242.30   320.77
                              341.70   381.95   398.72   423.73   464.87
                              499.04   537.15   591.39   618.00   668.48
                              685.96   736.29   857.14   880.36  1016.02
                             1082.48  1106.88  1135.15  1178.71  1237.43
                             1254.47  1290.21  1352.86  1387.25  1393.09
                             1460.88  1461.81  1484.19  1522.01  1546.51
                             1557.45  1577.73  1631.57  1651.54  1660.58
                             1715.31  1722.32  1752.57  1796.41  1806.90
                             1850.73  1872.76  1904.79  1947.91  1951.74
                             1990.59  1998.01  2019.16  2027.87  2034.80
                             2045.03  2052.95  2063.33  2070.66  2102.84
                             2135.85  2151.00  2163.98  2166.40  2175.60
                             2185.43  2190.59  2203.33  2209.44  2216.12
                             2221.80  2612.48  4253.65  4341.72  4342.55
                             4346.76  4364.79  4384.03  4385.53  4391.47
                             4391.80  4403.29  4412.03  4417.86  4436.91
                             4446.70  4458.43  4466.79  4468.49  4474.77
                             4481.08  4493.71  4553.45  5377.98

 Zero-point correction=                           0.319796 (Hartree/Particle)
 Thermal correction to Energy=                    0.335859
 Thermal correction to Enthalpy=                  0.336803
 Thermal correction to Gibbs Free Energy=         0.274805
 Sum of electronic and zero-point Energies=           -582.604392
 Sum of electronic and thermal Energies=              -582.588329
 Sum of electronic and thermal Enthalpies=            -582.587385
 Sum of electronic and thermal Free Energies=         -582.649383

                     E (Thermal)             CV                S
                      KCal/Mol        Cal/Mol-Kelvin    Cal/Mol-Kelvin
 Total                  210.755             58.587            130.486
 Electronic               0.000              0.000              0.000
 Translational            0.889              2.981             41.570
 Rotational               0.889              2.981             32.151
 Vibrational            208.977             52.625             56.765
 Vibration     1          0.593              1.984              6.024
 Vibration     2          0.594              1.982              5.423
 Vibration     3          0.595              1.980              5.089
 Vibration     4          0.596              1.974              4.504
 Vibration     5          0.598              1.969              4.173
 Vibration     6          0.605              1.947              3.399
 Vibration     7          0.611              1.926              2.983
 Vibration     8          0.616              1.909              2.747
 Vibration     9          0.625              1.881              2.453
 Vibration    10          0.649              1.806              1.935
 Vibration    11          0.656              1.783              1.822
 Vibration    12          0.671              1.736              1.626
 Vibration    13          0.678              1.716              1.551
 Vibration    14          0.689              1.684              1.448
 Vibration    15          0.708              1.629              1.294
 Vibration    16          0.725              1.582              1.180
 Vibration    17          0.745              1.527              1.066
 Vibration    18          0.775              1.446              0.923
 Vibration    19          0.791              1.406              0.860
 Vibration    20          0.822              1.329              0.753
 Vibration    21          0.833              1.302              0.719
 Vibration    22          0.867              1.224              0.629
 Vibration    23          0.954              1.041              0.457
 Vibration    24          0.971              1.007              0.430

 Optimization completed.
    -- Stationary point found.
 Normal termination of Gaussian 16 at Sun Dec 13 16:15:42 2020.

 ----------------------------------------------------------------------
 # B3LYP/6-311++G(d,p) empiricaldispersion=gd3bj scf=xqc pop=npa geom=c
 heck
 ----------------------------------------------------------------------

 --------------------------------------
 CID_71342903_JID_3606_Energie_neutraal
 --------------------------------------
 Structure from the checkpoint file:  "JID_3606.chk"
 Charge =  0 Multiplicity = 1

 SCF Done:  E(RB3LYP) =  -583.103351581     A.U. after   13 cycles
 Normal termination of Gaussian 16 at Sun Dec 13 16:19:34 2020.

 ----------------------------------------------------------------------
 # B3LYP/6-311++G(d,p) empiricaldispersion=gd3bj scf=xqc pop=npa geom=c
 heck
 ----------------------------------------------------------------------

 ------------------------------------
 CID_71342903_JID_3606_Energie_kation
 ------------------------------------
 Structure from the checkpoint file:  "JID_3606.chk"
 Charge =  1 Multiplicity = 2

 SCF Done:  E(UB3LYP) =  -582.781877160     A.U. after   29 cycles
 Normal termination of Gaussian 16 at Sun Dec 13 16:30:25 2020.
 Gaussian 16:  ES64L-G16RevA.03 25-Dec-2016

 ----------------------------------------------------------------------
 # B3LYP/6-311++G(d,p) empiricaldispersion=gd3bj scf=xqc pop=npa geom=c
 heck
 ----------------------------------------------------------------------

 -----------------------------------
 CID_71342903_JID_3606_Energie_anion
 -----------------------------------
 Structure from the checkpoint file:  "JID_3606.chk"
 Charge = -1 Multiplicity = 2

                         Standard orientation:
 ---------------------------------------------------------------------
 Center     Atomic      Atomic             Coordinates (Angstroms)
 Number     Number       Type             X           Y           Z
 ---------------------------------------------------------------------
      1          6           0        4.488573   -1.439872    0.063483
      2          6           0        3.743102   -0.302267    0.765704
      3          6           0        3.020181    0.650732   -0.194050
      4          6           0        1.942470   -0.010623   -1.060451
      5          6           0        0.905181   -0.886361   -0.338445
      6          6           0        0.001231   -0.173271    0.680489
      7          6           0       -0.809918    1.006030    0.122372
      8          6           0       -1.684615    0.686678   -1.100045
      9          6           0       -2.689199   -0.447279   -0.877951
     10          6           0       -3.776823   -0.126032    0.139644
     11          8           0       -4.036365    1.015173    0.472810
     12          6           0       -4.534754   -1.312627    0.708554
     13          8           0        2.394233    1.718279    0.526338
     14          1           0        3.797090   -2.117041   -0.449028
     15          1           0        5.064221   -2.034123    0.780844
     16          1           0        5.189185   -1.050959   -0.685577
     17          1           0        3.019019   -0.704861    1.483529
     18          1           0        4.461860    0.289143    1.352890
     19          1           0        3.774011    1.073998   -0.881581
     20          1           0        1.438767    0.789230   -1.615453
     21          1           0        2.453128   -0.626799   -1.811350
     22          1           0        0.280629   -1.357394   -1.109577
     23          1           0        1.417296   -1.716204    0.166409
     24          1           0       -0.678730   -0.921547    1.112863
     25          1           0        0.612600    0.201853    1.506914
     26          1           0       -1.452644    1.397861    0.918697
     27          1           0       -0.118643    1.814426   -0.137763
     28          1           0       -2.238588    1.589203   -1.379645
     29          1           0       -1.052412    0.425948   -1.958074
     30          1           0       -3.211007   -0.682331   -1.819108
     31          1           0       -2.191260   -1.381058   -0.586712
     32          1           0       -4.847427   -2.000348   -0.086215
     33          1           0       -3.874015   -1.878580    1.378273
     34          1           0       -5.404593   -0.967962    1.271160
     35          1           0        3.065996    2.119277    1.099492
 ---------------------------------------------------------------------

 SCF Done:  E(UB3LYP) =  -583.092711227     A.U. after   33 cycles
 SCF Done:  E(UB3LYP) =  -583.092711227     a.u. after    1 cycles

 The electronic state is 2-A.
 Alpha  occ. eigenvalues --  -19.02279 -19.01582 -10.16396 -10.12140 -10.07924
 Alpha  occ. eigenvalues --  -10.07742 -10.07060 -10.06730 -10.06650 -10.06591
 Alpha  occ. eigenvalues --  -10.06483 -10.05812 -10.05433  -0.94851  -0.92484
 Alpha  occ. eigenvalues --   -0.71611  -0.69802  -0.67305  -0.65043  -0.62128
 Alpha  occ. eigenvalues --   -0.58296  -0.55073  -0.52141  -0.47943  -0.44345
 Alpha  occ. eigenvalues --   -0.42307  -0.42042  -0.39231  -0.37892  -0.37530
 Alpha  occ. eigenvalues --   -0.35121  -0.34460  -0.34076  -0.33113  -0.32080
 Alpha  occ. eigenvalues --   -0.31573  -0.31013  -0.29225  -0.29156  -0.28603
 Alpha  occ. eigenvalues --   -0.27244  -0.26488  -0.25813  -0.25524  -0.24768
 Alpha  occ. eigenvalues --   -0.24385  -0.22556  -0.21929  -0.21239  -0.20600
 Alpha  occ. eigenvalues --   -0.17395  -0.15618   0.03979
 Alpha virt. eigenvalues --    0.05335   0.06608   0.06996   0.07568   0.08214
 Alpha virt. eigenvalues --    0.08907   0.09302   0.09983   0.10276   0.10719
 Alpha virt. eigenvalues --    0.11135   0.11171   0.11795   0.12220   0.12806

  Beta  occ. eigenvalues --  -19.02259 -19.01554 -10.16360 -10.12128 -10.07892
  Beta  occ. eigenvalues --  -10.07719 -10.07033 -10.06699 -10.06641 -10.06584
  Beta  occ. eigenvalues --  -10.06468 -10.05803 -10.05431  -0.94790  -0.92443
  Beta  occ. eigenvalues --   -0.71585  -0.69760  -0.67255  -0.64994  -0.62087
  Beta  occ. eigenvalues --   -0.58249  -0.55016  -0.52080  -0.47890  -0.44288
  Beta  occ. eigenvalues --   -0.42252  -0.41965  -0.39197  -0.37820  -0.37477
  Beta  occ. eigenvalues --   -0.35081  -0.34418  -0.34029  -0.33073  -0.32047
  Beta  occ. eigenvalues --   -0.31534  -0.30976  -0.29195  -0.29121  -0.28572
  Beta  occ. eigenvalues --   -0.27198  -0.26436  -0.25784  -0.25421  -0.24737
  Beta  occ. eigenvalues --   -0.24345  -0.22532  -0.21906  -0.21218  -0.20575
  Beta  occ. eigenvalues --   -0.17365  -0.15586
  Beta virt. eigenvalues --    0.06171   0.06607   0.06907   0.07610   0.07977
  Beta virt. eigenvalues --    0.08601   0.09366   0.09604   0.10312   0.10563
  Beta virt. eigenvalues --    0.11024   0.11355   0.11440   0.12114   0.12387

 Mulliken charges and spin densities:
               1          2
     1  C    1.074917  -1.735944
     2  C   -0.993217   0.880769
     3  C    0.827895  -1.160869
     4  C   -0.697319   0.348168
     5  C    0.631116  -0.790951
     6  C   -0.185907  -0.006657
     7  C   -0.363964   0.068258
     8  C   -0.058130  -0.212051
     9  C    0.536124  -0.821223
    10  C   -0.884309   1.045826
    11  O   -0.269823   0.011457
    12  C    0.897389  -1.560018
    13  O   -0.241306   0.038600
    14  H   -0.085581   0.221982
    15  H   -0.245267   0.384693
    16  H   -0.143317   0.284970
    17  H    0.117484   0.047595
    18  H   -0.559055   0.691032
    19  H   -0.214809   0.394653
    20  H    0.092147   0.090463
    21  H   -0.086526   0.243366
    22  H    0.046880   0.114462
    23  H   -0.097243   0.242375
    24  H    0.064501   0.111485
    25  H    0.188314  -0.044458
    26  H    0.090715   0.067677
    27  H    0.228372  -0.047631
    28  H    0.138440   0.043651
    29  H   -0.031397   0.177501
    30  H   -0.364928   0.562724
    31  H    0.077625   0.094645
    32  H   -0.453339   0.624873
    33  H   -0.024992   0.179881
    34  H   -0.018882   0.171850
    35  H    0.007392   0.236843
 Sum of Mulliken charges =  -1.00000   1.00000

 Dipole moment (field-independent basis, Debye):
    X=             -0.7587    Y=              0.6324    Z=              0.5285  Tot=              1.1202
 Quadrupole moment (field-independent basis, Debye-Ang):
   XX=           -196.9918   YY=           -122.5494   ZZ=           -113.2295
   XY=             -4.9672   XZ=             -7.6358   YZ=             -5.1657

 Summary of Natural Population Analysis:

                                       Natural Population
                Natural  -----------------------------------------------
    Atom  No    Charge         Core      Valence    Rydberg      Total
 -----------------------------------------------------------------------
      C    1   -0.28733      0.99966     2.28226    0.00541     3.28733
      C    2   -0.20353      0.99962     2.19442    0.00949     3.20353
      C    3    0.06642      0.99955     1.91946    0.01456     2.93358
      C    4   -0.19939      0.99960     2.19045    0.00933     3.19939
      C    5   -0.19404      0.99962     2.18577    0.00864     3.19404
      C    6   -0.19265      0.99962     2.18488    0.00815     3.19265
      C    7   -0.19556      0.99962     2.18880    0.00714     3.19556
      C    8   -0.19391      0.99963     2.18444    0.00984     3.19391
      C    9   -0.24141      0.99958     2.23306    0.00878     3.24141
      C   10    0.29939      0.99969     1.67979    0.02113     2.70061
      O   11   -0.28962      0.99987     3.28323    0.00652     4.28962
      C   12   -0.33468      0.99962     2.32946    0.00560     3.33468
      O   13   -0.37590      0.99989     3.36924    0.00676     4.37590
      H   14    0.09727      0.00000     0.40167    0.00105     0.40273
      H   15    0.10019      0.00000     0.39891    0.00090     0.39981
      H   16    0.09789      0.00000     0.40086    0.00126     0.40211
      H   17    0.09754      0.00000     0.40118    0.00128     0.40246
      H   18    0.09661      0.00000     0.40118    0.00222     0.40339
      H   19    0.07621      0.00000     0.42223    0.00156     0.42379
      H   20    0.10186      0.00000     0.39682    0.00132     0.39814
      H   21    0.10124      0.00000     0.39773    0.00104     0.39876
      H   22    0.09632      0.00000     0.40250    0.00118     0.40368
      H   23    0.09625      0.00000     0.40261    0.00114     0.40375
      H   24    0.09038      0.00000     0.40854    0.00108     0.40962
      H   25    0.10408      0.00000     0.39455    0.00137     0.39592
      H   26    0.10121      0.00000     0.39772    0.00107     0.39879
      H   27    0.10511      0.00000     0.39357    0.00131     0.39489
      H   28    0.10374      0.00000     0.39526    0.00101     0.39626
      H   29    0.09652      0.00000     0.40242    0.00105     0.40348
      H   30    0.11586      0.00000     0.38211    0.00203     0.38414
      H   31    0.10572      0.00000     0.39301    0.00127     0.39428
      H   32    0.11161      0.00000     0.38602    0.00238     0.38839
      H   33    0.11010      0.00000     0.38887    0.00103     0.38990
      H   34    0.10739      0.00000     0.39163    0.00098     0.39261
      H   35    0.22909      0.00000     0.26771    0.00320     0.27091
 =======================================================================
   * Total *    0.00000     12.99558    38.85237    0.15205    52.00000

 Normal termination of Gaussian 16 at Sun Dec 13 16:42:45 2020.
