 Gaussian 16, Revision A.03,

 -----------------------------------------------------------
 # opt freq B3LYP/6-31G(d) empiricaldispersion=gd3bj scf=xqc
 -----------------------------------------------------------

 -------------------------------
 CID_115013993_JID_2496_neutraal
 -------------------------------
 Symbolic Z-matrix:
 Charge =  0 Multiplicity = 1

 SCF Done:  E(RB3LYP) =  -578.265806562     A.U. after   14 cycles
 SCF Done:  E(RB3LYP) =  -578.269692762     A.U. after   12 cycles
 SCF Done:  E(RB3LYP) =  -578.264443121     A.U. after   15 cycles
 SCF Done:  E(RB3LYP) =  -578.266958632     A.U. after   13 cycles
 SCF Done:  E(RB3LYP) =  -578.270503515     A.U. after    9 cycles
 SCF Done:  E(RB3LYP) =  -578.269864457     A.U. after   13 cycles
 SCF Done:  E(RB3LYP) =  -578.270554276     A.U. after   13 cycles
 SCF Done:  E(RB3LYP) =  -578.271121806     A.U. after   13 cycles
 SCF Done:  E(RB3LYP) =  -578.271178368     A.U. after   12 cycles
 SCF Done:  E(RB3LYP) =  -578.271217803     A.U. after   11 cycles
 SCF Done:  E(RB3LYP) =  -578.271310363     A.U. after   10 cycles
 SCF Done:  E(RB3LYP) =  -578.271312450     A.U. after    9 cycles
 SCF Done:  E(RB3LYP) =  -578.271313399     A.U. after    8 cycles
 SCF Done:  E(RB3LYP) =  -578.271314245     A.U. after    8 cycles
 SCF Done:  E(RB3LYP) =  -578.271314415     A.U. after    7 cycles
 Optimization completed.
    -- Stationary point found.

 1\1\GINC-NODE308\FOpt\RB3LYP\6-31G(d)\C9H16O3\VSC10255\09-Dec-2020\0\\
 # opt freq B3LYP/6-31G(d) empiricaldispersion=gd3bj scf=xqc\\CID_11501
 3993_JID_2496_neutraal\\0,1\C,0.9503740842,-0.0099280558,-0.0588490395
 \C,0.5601008358,0.6757885764,1.2538822386\C,1.2493233872,2.0434003272,
 1.3667177471\C,-0.9648712868,0.825839566,1.3133814865\O,1.1499890086,-
 0.1918291348,2.2648302853\C,0.5676194814,-0.495645867,3.5089257781\C,0
 .2712214149,0.706558773,4.4386486486\C,1.5978110707,0.8805423598,5.178
 0360827\O,1.9999300222,-0.452540207,5.4651680048\C,1.7026237046,-1.232

 Normal termination of Gaussian 16 at Wed Dec  9 17:30:58 2020.

 --------------------------------------------------------------------
 #N Geom=AllCheck Guess=TCheck SCRF=Check GenChk RB3LYP/6-31G(d) Freq
 --------------------------------------------------------------------

 Structure from the checkpoint file:  "JID_2496.chk"
 -------------------------------
 CID_115013993_JID_2496_neutraal
 -------------------------------
 Charge =  0 Multiplicity = 1

 SCF Done:  E(RB3LYP) =  -578.271314415     A.U. after    1 cycles

  Exact polarizability: 113.011   1.475 100.021  -3.539  -0.749  88.176
 Approx polarizability: 153.719   7.568 142.284  -4.776  -2.462 130.863

                      1                      2                      3
                      A                      A                      A
 Frequencies --     28.0488                74.0750                95.0102
 Red. masses --      3.3462                 3.6651                 3.0516
 Frc consts  --      0.0016                 0.0118                 0.0162
 IR Inten    --      0.7489                 6.1499                 0.9986

                      4                      5                      6
                      A                      A                      A
 Frequencies --    129.5628               168.1907               217.1330
 Red. masses --      4.8704                 2.9903                 1.5928
 Frc consts  --      0.0482                 0.0498                 0.0442
 IR Inten    --      6.8992                 0.6053                 1.9057

                      7                      8                      9
                      A                      A                      A
 Frequencies --    228.5770               232.6010               272.5360
 Red. masses --      1.6404                 2.1594                 1.2592
 Frc consts  --      0.0505                 0.0688                 0.0551
 IR Inten    --      2.5871                 2.4696                 0.8828

                     10                     11                     12
                      A                      A                      A
 Frequencies --    287.1307               306.0289               333.5645
 Red. masses --      1.1520                 2.6263                 1.9739
 Frc consts  --      0.0560                 0.1449                 0.1294
 IR Inten    --      0.8269                 0.1837                 0.4762

                     13                     14                     15
                      A                      A                      A
 Frequencies --    352.4723               359.1400               396.8622
 Red. masses --      2.3697                 2.4890                 2.4410
 Frc consts  --      0.1735                 0.1891                 0.2265
 IR Inten    --      3.2977                 0.5080                 0.9765

                     16                     17                     18
                      A                      A                      A
 Frequencies --    429.0886               452.5429               474.2979
 Red. masses --      4.3304                 2.8270                 2.7126
 Frc consts  --      0.4698                 0.3411                 0.3595
 IR Inten    --      0.5829                 1.7718                 3.8311

                     19                     20                     21
                      A                      A                      A
 Frequencies --    542.5416               643.4480               720.7116
 Red. masses --      2.6594                 2.6682                 4.6606
 Frc consts  --      0.4612                 0.6509                 1.4263
 IR Inten    --      5.2753                 7.7252                 1.9024

                     22                     23                     24
                      A                      A                      A
 Frequencies --    744.5038               815.6952               857.8168
 Red. masses --      4.1833                 3.2512                 2.3371
 Frc consts  --      1.3662                 1.2745                 1.0132
 IR Inten    --     25.9978                17.2901                 3.3240

                     25                     26                     27
                      A                      A                      A
 Frequencies --    890.8536               925.8748               931.5169
 Red. masses --      2.2686                 1.7062                 1.6548
 Frc consts  --      1.0608                 0.8617                 0.8460
 IR Inten    --     26.4877                 2.7752                 3.4239

                     28                     29                     30
                      A                      A                      A
 Frequencies --    938.9395               965.6279               973.8629
 Red. masses --      2.3238                 3.0827                 1.5782
 Frc consts  --      1.2071                 1.6936                 0.8819
 IR Inten    --     14.5661                21.9536                16.3699

                     31                     32                     33
                      A                      A                      A
 Frequencies --    980.4813              1004.4201              1058.9400
 Red. masses --      1.7569                 2.0934                 1.4597
 Frc consts  --      0.9951                 1.2443                 0.9644
 IR Inten    --     14.1788                 9.6412                 3.0599

                     34                     35                     36
                      A                      A                      A
 Frequencies --   1061.6008              1072.7502              1089.9757
 Red. masses --      1.4466                 1.5694                 3.3279
 Frc consts  --      0.9605                 1.0641                 2.3294
 IR Inten    --      2.5962                 0.9870                48.1971

                     37                     38                     39
                      A                      A                      A
 Frequencies --   1122.6422              1140.7068              1195.0590
 Red. masses --      4.2283                 5.4944                 1.6359
 Frc consts  --      3.1398                 4.2123                 1.3765
 IR Inten    --     56.3140                55.6721                40.0867

                     40                     41                     42
                      A                      A                      A
 Frequencies --   1230.8296              1245.9770              1269.7469
 Red. masses --      2.2172                 1.3630                 1.3155
 Frc consts  --      1.9791                 1.2467                 1.2496
 IR Inten    --    122.3767                14.2961                 7.3267

                     43                     44                     45
                      A                      A                      A
 Frequencies --   1275.5792              1294.4514              1304.9843
 Red. masses --      2.6029                 2.6989                 1.8151
 Frc consts  --      2.4953                 2.6645                 1.8212
 IR Inten    --     16.4324                18.7743                42.1944

                     46                     47                     48
                      A                      A                      A
 Frequencies --   1344.6784              1375.1645              1413.3423
 Red. masses --      1.3883                 1.2846                 1.3455
 Frc consts  --      1.4790                 1.4313                 1.5835
 IR Inten    --      4.5493                 1.0688                 3.0127

                     49                     50                     51
                      A                      A                      A
 Frequencies --   1424.8091              1428.4374              1430.9799
 Red. masses --      1.2769                 1.2492                 1.2226
 Frc consts  --      1.5273                 1.5018                 1.4750
 IR Inten    --     12.1637                17.2657                 2.1655

                     52                     53                     54
                      A                      A                      A
 Frequencies --   1455.2273              1499.7880              1508.1433
 Red. masses --      1.2252                 1.0718                 1.0695
 Frc consts  --      1.5287                 1.4205                 1.4332
 IR Inten    --     21.4542                 2.5136                 1.6826

                     55                     56                     57
                      A                      A                      A
 Frequencies --   1516.2705              1522.7015              1526.1210
 Red. masses --      1.0468                 1.0487                 1.0826
 Frc consts  --      1.4179                 1.4326                 1.4855
 IR Inten    --      0.2940                 0.7219                 2.7608

                     58                     59                     60
                      A                      A                      A
 Frequencies --   1530.1298              1535.3287              1547.6067
 Red. masses --      1.0626                 1.0577                 1.1001
 Frc consts  --      1.4658                 1.4690                 1.5524
 IR Inten    --      3.7252                 6.9430                 2.2410

                     61                     62                     63
                      A                      A                      A
 Frequencies --   1554.4859              1834.9590              2884.9453
 Red. masses --      1.0559                10.7581                 1.0839
 Frc consts  --      1.5033                21.3421                 5.3151
 IR Inten    --      5.4221               165.0063               113.1423

                     64                     65                     66
                      A                      A                      A
 Frequencies --   3012.8740              3053.7744              3054.7529
 Red. masses --      1.0706                 1.0570                 1.0353
 Frc consts  --      5.7257                 5.8076                 5.6919
 IR Inten    --     51.7922                23.9916                20.3287

                     67                     68                     69
                      A                      A                      A
 Frequencies --   3059.8713              3070.9264              3072.8110
 Red. masses --      1.0357                 1.0576                 1.0522
 Frc consts  --      5.7131                 5.8764                 5.8534
 IR Inten    --     19.3551                10.8915                21.4287

                     70                     71                     72
                      A                      A                      A
 Frequencies --   3102.9631              3121.3450              3126.1879
 Red. masses --      1.1095                 1.1012                 1.1012
 Frc consts  --      6.2938                 6.3211                 6.3406
 IR Inten    --     27.1420                11.0404                15.0460

                     73                     74                     75
                      A                      A                      A
 Frequencies --   3128.0009              3130.2247              3135.8537
 Red. masses --      1.0957                 1.1017                 1.1025
 Frc consts  --      6.3164                 6.3602                 6.3874
 IR Inten    --     38.0223                63.0128                41.0601

                     76                     77                     78
                      A                      A                      A
 Frequencies --   3146.7110              3176.1975              3181.4066
 Red. masses --      1.1032                 1.0953                 1.0969
 Frc consts  --      6.4361                 6.5104                 6.5409
 IR Inten    --     18.3252                 4.9642                14.8919

 - Thermochemistry -
 -------------------
 Temperature   298.150 Kelvin.  Pressure   1.00000 Atm.
 Atom     1 has atomic number  6 and mass  12.00000

 Molecular mass:   172.10994 amu.
 Principal axes and moments of inertia in atomic units:
                           1         2         3
     Eigenvalues --  1349.105992362.923692933.88994
           X            0.99969  -0.02355  -0.00842
           Y            0.02345   0.99966  -0.01151
           Z            0.00869   0.01131   0.99990
 This molecule is an asymmetric top.
 Rotational symmetry number  1.
 Warning -- assumption of classical behavior for rotation
           may cause significant error
 Rotational temperatures (Kelvin)      0.06420     0.03666     0.02952
 Rotational constants (GHZ):           1.33773     0.76377     0.61514
 Zero-point vibrational energy     640261.8 (Joules/Mol)
                                  153.02625 (Kcal/Mol)
 Warning -- explicit consideration of  19 degrees of freedom as
           vibrations may cause significant error
 Vibrational temperatures:     40.36   106.58   136.70   186.41   241.99
          (Kelvin)            312.41   328.87   334.66   392.12   413.12
                              440.31   479.92   507.13   516.72   571.00
                              617.36   651.11   682.41   780.60   925.78
                             1036.94  1071.17  1173.60  1234.21  1281.74
                             1332.13  1340.25  1350.92  1389.32  1401.17
                             1410.69  1445.14  1523.58  1527.41  1543.45
                             1568.23  1615.23  1641.22  1719.42  1770.89
                             1792.68  1826.88  1835.27  1862.43  1877.58
                             1934.69  1978.55  2033.48  2049.98  2055.20
                             2058.86  2093.75  2157.86  2169.88  2181.58
                             2190.83  2195.75  2201.52  2209.00  2226.66
                             2236.56  2640.10  4150.79  4334.85  4393.70
                             4395.11  4402.47  4418.38  4421.09  4464.47
                             4490.92  4497.89  4500.50  4503.70  4511.79
                             4527.42  4569.84  4577.33

 Zero-point correction=                           0.243863 (Hartree/Particle)
 Thermal correction to Energy=                    0.256825
 Thermal correction to Enthalpy=                  0.257769
 Thermal correction to Gibbs Free Energy=         0.204756
 Sum of electronic and zero-point Energies=           -578.027452
 Sum of electronic and thermal Energies=              -578.014490
 Sum of electronic and thermal Enthalpies=            -578.013545
 Sum of electronic and thermal Free Energies=         -578.066559

                     E (Thermal)             CV                S
                      KCal/Mol        Cal/Mol-Kelvin    Cal/Mol-Kelvin
 Total                  161.160             49.020            111.576
 Electronic               0.000              0.000              0.000
 Translational            0.889              2.981             41.336
 Rotational               0.889              2.981             30.615
 Vibrational            159.383             43.059             39.624
 Vibration     1          0.593              1.984              5.963
 Vibration     2          0.599              1.966              4.042
 Vibration     3          0.603              1.953              3.554
 Vibration     4          0.612              1.924              2.953
 Vibration     5          0.625              1.882              2.456
 Vibration     6          0.646              1.815              1.983
 Vibration     7          0.651              1.797              1.890
 Vibration     8          0.653              1.791              1.859
 Vibration     9          0.676              1.724              1.580
 Vibration    10          0.684              1.698              1.491
 Vibration    11          0.696              1.662              1.384
 Vibration    12          0.715              1.608              1.243
 Vibration    13          0.729              1.570              1.155
 Vibration    14          0.734              1.556              1.126
 Vibration    15          0.763              1.477              0.974
 Vibration    16          0.790              1.407              0.862
 Vibration    17          0.811              1.355              0.788
 Vibration    18          0.831              1.307              0.726
 Vibration    19          0.898              1.156              0.560

 Optimization completed.
    -- Stationary point found.

 1\1\GINC-NODE308\Freq\RB3LYP\6-31G(d)\C9H16O3\VSC10255\09-Dec-2020\0\\
 #N Geom=AllCheck Guess=TCheck SCRF=Check GenChk RB3LYP/6-31G(d) Freq\\
 CID_115013993_JID_2496_neutraal\\0,1\C,0.9503740842,-0.0099280558,-0.0
 588490395\C,0.5601008358,0.6757885764,1.2538822386\C,1.2493233872,2.04
 34003272,1.3667177471\C,-0.9648712868,0.825839566,1.3133814865\O,1.149
 9890086,-0.1918291348,2.2648302853\C,0.5676194814,-0.495645867,3.50892
 57781\C,0.2712214149,0.706558773,4.4386486486\C,1.5978110707,0.8805423
 598,5.1780360827\O,1.9999300222,-0.452540207,5.4651680048\C,1.70262370

 Normal termination of Gaussian 16 at Wed Dec  9 17:38:39 2020.

 ----------------------------------------------------------------------
 # B3LYP/6-311++G(d,p) empiricaldispersion=gd3bj scf=xqc pop=npa geom=c
 heck
 ----------------------------------------------------------------------

 ---------------------------------------
 CID_115013993_JID_2496_Energie_neutraal
 ---------------------------------------
 Structure from the checkpoint file:  "JID_2496.chk"
 Charge =  0 Multiplicity = 1

 SCF Done:  E(RB3LYP) =  -578.440903229     A.U. after   14 cycles
 Normal termination of Gaussian 16 at Wed Dec  9 17:41:39 2020.

 ----------------------------------------------------------------------
 # B3LYP/6-311++G(d,p) empiricaldispersion=gd3bj scf=xqc pop=npa geom=c
 heck
 ----------------------------------------------------------------------

 -------------------------------------
 CID_115013993_JID_2496_Energie_kation
 -------------------------------------
 Structure from the checkpoint file:  "JID_2496.chk"
 Charge =  1 Multiplicity = 2

 SCF Done:  E(UB3LYP) =  -578.111195151     A.U. after   24 cycles
 Normal termination of Gaussian 16 at Wed Dec  9 17:48:46 2020.
 Gaussian 16:  ES64L-G16RevA.03 25-Dec-2016

 ------------------------------------
 CID_115013993_JID_2496_Energie_anion
 ------------------------------------
 Structure from the checkpoint file:  "JID_2496.chk"
 Charge = -1 Multiplicity = 2

                         Standard orientation:
 ---------------------------------------------------------------------
 Center     Atomic      Atomic             Coordinates (Angstroms)
 Number     Number       Type             X           Y           Z
 ---------------------------------------------------------------------
      1          6           0        2.705919   -0.050357   -1.137697
      2          6           0        1.682290   -0.469685   -0.078390
      3          6           0        1.687315   -1.995631    0.093612
      4          6           0        2.008117    0.230615    1.246378
      5          8           0        0.410603   -0.106361   -0.689580
      6          6           0       -0.699950    0.411248    0.001784
      7          6           0       -1.277849   -0.475613    1.131848
      8          6           0       -2.254214   -1.374168    0.372826
      9          8           0       -2.885672   -0.487417   -0.541607
     10          6           0       -1.881303    0.377371   -1.043324
     11          6           0       -0.528830    1.867317    0.410351
     12          8           0        0.394154    2.581937    0.096285
     13          1           0        3.721715   -0.319914   -0.828708
     14          1           0        2.650962    1.031328   -1.287513
     15          1           0        2.487822   -0.544142   -2.089892
     16          1           0        2.685240   -2.349286    0.375907
     17          1           0        0.985875   -2.320165    0.868980
     18          1           0        1.402221   -2.475850   -0.847406
     19          1           0        2.097281    1.308716    1.112017
     20          1           0        1.266267    0.035040    2.026180
     21          1           0        2.966792   -0.153341    1.611191
     22          1           0       -1.833541    0.143957    1.845442
     23          1           0       -0.509527   -1.022037    1.676559
     24          1           0       -1.712228   -2.172131   -0.158091
     25          1           0       -3.030978   -1.822883    0.996924
     26          1           0       -2.342953    1.354630   -1.221548
     27          1           0       -1.444995    0.010151   -1.980048
     28          1           0       -1.391593    2.264069    0.994895
 ---------------------------------------------------------------------

 SCF Done:  E(UB3LYP) =  -578.428388193     A.U. after   33 cycles
 SCF Done:  E(UB3LYP) =  -578.428388193     a.u. after    1 cycles

 The electronic state is 2-A.
 Alpha  occ. eigenvalues --  -19.02429 -19.01039 -18.98818 -10.12778 -10.12520
 Alpha  occ. eigenvalues --  -10.11933 -10.11534 -10.11102 -10.06400 -10.05013
 Alpha  occ. eigenvalues --  -10.04874 -10.04479  -0.94898  -0.93032  -0.91113
 Alpha  occ. eigenvalues --   -0.70815  -0.66572  -0.63694  -0.58346  -0.58132
 Alpha  occ. eigenvalues --   -0.52545  -0.51043  -0.48311  -0.42116  -0.39548
 Alpha  occ. eigenvalues --   -0.39055  -0.37325  -0.35427  -0.34647  -0.33675
 Alpha  occ. eigenvalues --   -0.32911  -0.30956  -0.30590  -0.29223  -0.28814
 Alpha  occ. eigenvalues --   -0.28122  -0.26626  -0.26308  -0.25718  -0.25402
 Alpha  occ. eigenvalues --   -0.24188  -0.23546  -0.21864  -0.19255  -0.16257
 Alpha  occ. eigenvalues --   -0.15909  -0.12756   0.05022
 Alpha virt. eigenvalues --    0.07041   0.07578   0.08904   0.09110   0.09863
 Alpha virt. eigenvalues --    0.10347   0.10609   0.11348   0.11886   0.12830
 Alpha virt. eigenvalues --    0.13610   0.13710   0.13881   0.14307   0.15234

  Beta  occ. eigenvalues --  -19.02421 -19.01030 -18.98563 -10.12796 -10.12518
  Beta  occ. eigenvalues --  -10.11695 -10.11519 -10.11079 -10.06342 -10.04984
  Beta  occ. eigenvalues --  -10.04856 -10.04450  -0.94856  -0.92818  -0.90842
  Beta  occ. eigenvalues --   -0.70766  -0.66498  -0.63613  -0.58296  -0.58083
  Beta  occ. eigenvalues --   -0.52224  -0.50942  -0.48132  -0.42017  -0.39414
  Beta  occ. eigenvalues --   -0.38991  -0.37232  -0.35370  -0.34585  -0.33621
  Beta  occ. eigenvalues --   -0.32691  -0.30681  -0.30483  -0.29146  -0.28774
  Beta  occ. eigenvalues --   -0.28030  -0.26327  -0.26226  -0.25609  -0.24847
  Beta  occ. eigenvalues --   -0.24055  -0.23505  -0.21674  -0.19167  -0.16205
  Beta  occ. eigenvalues --   -0.15807  -0.12587
  Beta virt. eigenvalues --    0.07475   0.08448   0.09048   0.09234   0.09903
  Beta virt. eigenvalues --    0.10346   0.10952   0.11093   0.11766   0.11998
  Beta virt. eigenvalues --    0.13186   0.13703   0.13786   0.14133   0.14572

 Mulliken charges and spin densities:
               1          2
     1  C    0.054991  -0.496168
     2  C   -1.648178   1.525589
     3  C    1.148702  -1.584206
     4  C    0.616755  -1.124485
     5  O    0.076271  -0.029034
     6  C   -0.338645   0.733336
     7  C    0.570179  -0.745130
     8  C    0.221493  -0.637909
     9  O   -0.159438   0.034128
    10  C   -0.250414  -0.053211
    11  C    0.371109  -0.518330
    12  O   -0.272953   0.060268
    13  H   -0.075248   0.202727
    14  H    0.094082   0.069179
    15  H    0.041578   0.098347
    16  H   -0.190484   0.333859
    17  H   -0.376872   0.524157
    18  H   -0.035702   0.175935
    19  H    0.235767  -0.054631
    20  H   -0.619802   0.773554
    21  H   -0.196728   0.347878
    22  H   -0.393325   0.594000
    23  H    0.192865  -0.075842
    24  H    0.264661  -0.120291
    25  H   -0.617988   0.815752
    26  H    0.159082   0.027967
    27  H    0.182848  -0.005678
    28  H   -0.054606   0.128242
 Sum of Mulliken charges =  -1.00000   1.00000

 Dipole moment (field-independent basis, Debye):
    X=             -0.8052    Y=              0.9992    Z=             -4.8895  Tot=              5.0551
 Quadrupole moment (field-independent basis, Debye-Ang):
   XX=           -124.6566   YY=           -112.8166   ZZ=           -110.2311
   XY=             -0.2973   XZ=              3.6816   YZ=              4.7296

 Summary of Natural Population Analysis:

                                       Natural Population
                Natural  -----------------------------------------------
    Atom  No    Charge         Core      Valence    Rydberg      Total
 -----------------------------------------------------------------------
      C    1   -0.28782      0.99960     2.28132    0.00690     3.28782
      C    2    0.13366      0.99953     1.85124    0.01556     2.86634
      C    3   -0.29270      0.99960     2.28584    0.00726     3.29270
      C    4   -0.30479      0.99960     2.29824    0.00695     3.30479
      O    5   -0.32062      0.99985     3.30814    0.01263     4.32062
      C    6    0.07963      0.99949     1.90395    0.01693     2.92037
      C    7   -0.21633      0.99959     2.20443    0.01231     3.21633
      C    8   -0.00998      0.99959     1.99676    0.01363     3.00998
      O    9   -0.29886      0.99989     3.29111    0.00786     4.29886
      C   10   -0.00234      0.99955     1.99158    0.01121     3.00234
      C   11    0.24482      0.99966     1.73327    0.02226     2.75518
      O   12   -0.26030      0.99988     3.25349    0.00693     4.26030
      H   13    0.09706      0.00000     0.40215    0.00079     0.40294
      H   14    0.10798      0.00000     0.39110    0.00092     0.39202
      H   15    0.09891      0.00000     0.40025    0.00084     0.40109
      H   16    0.10022      0.00000     0.39851    0.00127     0.39978
      H   17    0.10038      0.00000     0.39823    0.00138     0.39962
      H   18    0.09997      0.00000     0.39902    0.00101     0.40003
      H   19    0.11330      0.00000     0.38538    0.00132     0.38670
      H   20    0.10262      0.00000     0.39591    0.00148     0.39738
      H   21    0.10302      0.00000     0.39583    0.00115     0.39698
      H   22    0.10653      0.00000     0.39102    0.00245     0.39347
      H   23    0.11096      0.00000     0.38716    0.00188     0.38904
      H   24    0.07813      0.00000     0.42027    0.00160     0.42187
      H   25    0.09209      0.00000     0.40639    0.00152     0.40791
      H   26    0.08853      0.00000     0.41042    0.00105     0.41147
      H   27    0.09132      0.00000     0.40751    0.00117     0.40868
      H   28    0.04461      0.00000     0.45347    0.00193     0.45539
 =======================================================================
   * Total *   -0.00000     11.99584    34.84200    0.16216    47.00000

 Normal termination of Gaussian 16 at Wed Dec  9 17:57:40 2020.
