 Gaussian 16, Revision A.03,

 -----------------------------------------------------------
 # opt freq B3LYP/6-31G(d) empiricaldispersion=gd3bj scf=xqc
 -----------------------------------------------------------

 -------------------------------
 CID_102875224_JID_5515_neutraal
 -------------------------------
 Symbolic Z-matrix:
 Charge =  0 Multiplicity = 1

 SCF Done:  E(RB3LYP) =  -620.556927724     A.U. after   12 cycles
 SCF Done:  E(RB3LYP) =  -620.571729112     A.U. after   11 cycles
 SCF Done:  E(RB3LYP) =  -620.571584166     A.U. after   11 cycles
 SCF Done:  E(RB3LYP) =  -620.573826215     A.U. after   10 cycles
 SCF Done:  E(RB3LYP) =  -620.573932400     A.U. after   10 cycles
 SCF Done:  E(RB3LYP) =  -620.574196732     A.U. after   10 cycles
 SCF Done:  E(RB3LYP) =  -620.574245059     A.U. after    9 cycles
 SCF Done:  E(RB3LYP) =  -620.574247841     A.U. after    8 cycles
 SCF Done:  E(RB3LYP) =  -620.574252449     A.U. after    8 cycles
 SCF Done:  E(RB3LYP) =  -620.574253617     A.U. after    7 cycles
 SCF Done:  E(RB3LYP) =  -620.574253954     A.U. after    7 cycles
 SCF Done:  E(RB3LYP) =  -620.574254018     A.U. after    6 cycles
 Optimization completed.
    -- Stationary point found.
 Normal termination of Gaussian 16 at Thu Dec 10 16:29:02 2020.

 --------------------------------------------------------------------
 #N Geom=AllCheck Guess=TCheck SCRF=Check GenChk RB3LYP/6-31G(d) Freq
 --------------------------------------------------------------------

 Structure from the checkpoint file:  "JID_5515.chk"
 -------------------------------
 CID_102875224_JID_5515_neutraal
 -------------------------------
 Charge =  0 Multiplicity = 1

 SCF Done:  E(RB3LYP) =  -620.574254018     A.U. after    1 cycles

  Exact polarizability: 165.890   1.644 147.736  -0.114   2.934 127.025
 Approx polarizability: 200.585   1.144 204.249   0.875   1.111 198.100

                      1                      2                      3
                      A                      A                      A
 Frequencies --     35.4776                55.2524                63.5666
 Red. masses --      3.2065                 3.1810                 3.4177
 Frc consts  --      0.0024                 0.0057                 0.0081
 IR Inten    --      0.3405                 0.0919                 0.1253

                      4                      5                      6
                      A                      A                      A
 Frequencies --     77.5233               115.6730               128.0200
 Red. masses --      3.0618                 2.5051                 3.5226
 Frc consts  --      0.0108                 0.0197                 0.0340
 IR Inten    --      0.6386                 0.0574                 3.5658

                      7                      8                      9
                      A                      A                      A
 Frequencies --    170.2188               182.5496               214.9799
 Red. masses --      2.3349                 2.6125                 2.6152
 Frc consts  --      0.0399                 0.0513                 0.0712
 IR Inten    --      2.1481                 3.6616                 1.0389

                     10                     11                     12
                      A                      A                      A
 Frequencies --    244.6857               252.1822               269.6673
 Red. masses --      2.6129                 2.0220                 1.3837
 Frc consts  --      0.0922                 0.0758                 0.0593
 IR Inten    --      1.2122                 0.3462                57.1872

                     13                     14                     15
                      A                      A                      A
 Frequencies --    287.3210               313.3147               341.4207
 Red. masses --      2.3800                 2.1056                 1.8363
 Frc consts  --      0.1158                 0.1218                 0.1261
 IR Inten    --     18.8631                 0.3968                 0.2781

                     16                     17                     18
                      A                      A                      A
 Frequencies --    370.2747               403.3777               433.7916
 Red. masses --      2.3209                 2.6821                 2.1653
 Frc consts  --      0.1875                 0.2571                 0.2401
 IR Inten    --      1.9818                11.4276                 0.4892

                     19                     20                     21
                      A                      A                      A
 Frequencies --    455.5133               475.4011               520.4693
 Red. masses --      2.7008                 2.2466                 2.1416
 Frc consts  --      0.3302                 0.2992                 0.3418
 IR Inten    --      0.1263                 1.8193                 1.5712

                     22                     23                     24
                      A                      A                      A
 Frequencies --    549.8831               588.6899               620.0111
 Red. masses --      1.8991                 2.2156                 2.2881
 Frc consts  --      0.3383                 0.4524                 0.5182
 IR Inten    --      3.1824                 4.9262                 2.1557

                     25                     26                     27
                      A                      A                      A
 Frequencies --    757.0819               803.4607               808.4236
 Red. masses --      1.5960                 1.5701                 2.0924
 Frc consts  --      0.5390                 0.5972                 0.8057
 IR Inten    --      3.1779                 0.4711                 1.0283

                     28                     29                     30
                      A                      A                      A
 Frequencies --    809.7700               850.1704               859.0496
 Red. masses --      1.2443                 2.1605                 1.9797
 Frc consts  --      0.4807                 0.9200                 0.8608
 IR Inten    --      1.4907                 8.6055                 1.8308

                     31                     32                     33
                      A                      A                      A
 Frequencies --    874.6793               890.0621               896.5622
 Red. masses --      2.0105                 1.5601                 1.6690
 Frc consts  --      0.9063                 0.7282                 0.7905
 IR Inten    --     24.0174                50.7064                27.2170

                     34                     35                     36
                      A                      A                      A
 Frequencies --    911.7309               920.1924               933.6589
 Red. masses --      1.9089                 2.0052                 1.4388
 Frc consts  --      0.9349                 1.0004                 0.7389
 IR Inten    --      3.7713                 2.2513                 1.0535

                     37                     38                     39
                      A                      A                      A
 Frequencies --    941.0272               953.0651               969.6840
 Red. masses --      2.2599                 2.1154                 1.4582
 Frc consts  --      1.1791                 1.1321                 0.8079
 IR Inten    --      1.3631                 7.9688                 2.2427

                     40                     41                     42
                      A                      A                      A
 Frequencies --    983.3937               989.1354              1029.2655
 Red. masses --      1.6936                 2.3385                 2.6057
 Frc consts  --      0.9650                 1.3480                 1.6264
 IR Inten    --      2.2614                 0.8461                 7.5714

                     43                     44                     45
                      A                      A                      A
 Frequencies --   1051.2015              1058.1037              1071.6715
 Red. masses --      1.8210                 2.0274                 1.7568
 Frc consts  --      1.1856                 1.3373                 1.1888
 IR Inten    --      2.0486                10.4023                11.7578

                     46                     47                     48
                      A                      A                      A
 Frequencies --   1086.2579              1102.0933              1112.5007
 Red. masses --      1.6019                 1.4558                 2.3269
 Frc consts  --      1.1136                 1.0418                 1.6968
 IR Inten    --     13.1178                 0.2841                 2.4214

                     49                     50                     51
                      A                      A                      A
 Frequencies --   1116.4434              1126.0042              1148.8670
 Red. masses --      2.1324                 2.2089                 2.4222
 Frc consts  --      1.5660                 1.6501                 1.8836
 IR Inten    --      7.6102                13.8164                12.9404

                     52                     53                     54
                      A                      A                      A
 Frequencies --   1170.6139              1178.2831              1200.7885
 Red. masses --      2.0945                 1.6826                 1.9118
 Frc consts  --      1.6911                 1.3764                 1.6241
 IR Inten    --      3.2988                 4.0390                 7.2447

                     55                     56                     57
                      A                      A                      A
 Frequencies --   1204.3084              1214.3059              1243.6600
 Red. masses --      1.3777                 1.5299                 1.8713
 Frc consts  --      1.1773                 1.3292                 1.7052
 IR Inten    --     10.7150                 5.2925                26.2022

                     58                     59                     60
                      A                      A                      A
 Frequencies --   1257.0244              1268.9711              1271.7095
 Red. masses --      1.3031                 1.3303                 1.2419
 Frc consts  --      1.2131                 1.2621                 1.1834
 IR Inten    --      2.0979                 1.3883                 4.0484

                     61                     62                     63
                      A                      A                      A
 Frequencies --   1276.7407              1293.1800              1304.7377
 Red. masses --      1.3559                 1.4111                 1.2732
 Frc consts  --      1.3022                 1.3903                 1.2770
 IR Inten    --      0.8214                 1.0868                 2.3380

                     64                     65                     66
                      A                      A                      A
 Frequencies --   1306.4831              1311.4102              1324.9866
 Red. masses --      1.2111                 1.2519                 1.2972
 Frc consts  --      1.2180                 1.2685                 1.3418
 IR Inten    --      4.6503                 4.2054                 3.7570

                     67                     68                     69
                      A                      A                      A
 Frequencies --   1336.7557              1353.5025              1359.5955
 Red. masses --      1.4082                 1.2969                 1.2642
 Frc consts  --      1.4825                 1.3998                 1.3769
 IR Inten    --      4.5459                 1.4075                 9.3786

                     70                     71                     72
                      A                      A                      A
 Frequencies --   1385.7348              1387.5803              1396.7590
 Red. masses --      1.2768                 1.3861                 1.3717
 Frc consts  --      1.4446                 1.5724                 1.5767
 IR Inten    --     10.8780                 6.3878                 8.1977

                     73                     74                     75
                      A                      A                      A
 Frequencies --   1401.0694              1403.8537              1406.1300
 Red. masses --      1.4444                 1.4995                 1.3271
 Frc consts  --      1.6706                 1.7412                 1.5459
 IR Inten    --      8.1084                 5.8563                25.5566

                     76                     77                     78
                      A                      A                      A
 Frequencies --   1414.6340              1423.5800              1442.9488
 Red. masses --      1.5187                 1.3054                 1.4193
 Frc consts  --      1.7907                 1.5587                 1.7411
 IR Inten    --      6.7833                17.1845                 5.2542

                     79                     80                     81
                      A                      A                      A
 Frequencies --   1457.9594              1502.3450              1505.8503
 Red. masses --      1.3763                 1.0891                 1.0899
 Frc consts  --      1.7237                 1.4483                 1.4561
 IR Inten    --      9.7817                 4.4908                 1.4184

                     82                     83                     84
                      A                      A                      A
 Frequencies --   1513.1897              1515.5702              1518.6621
 Red. masses --      1.0896                 1.0906                 1.0942
 Frc consts  --      1.4699                 1.4760                 1.4869
 IR Inten    --      0.4578                 1.0016                 1.8816

                     85                     86                     87
                      A                      A                      A
 Frequencies --   1519.2177              1523.9563              1528.7724
 Red. masses --      1.0854                 1.0882                 1.0923
 Frc consts  --      1.4760                 1.4890                 1.5041
 IR Inten    --      4.0502                 5.9041                 9.3279

                     88                     89                     90
                      A                      A                      A
 Frequencies --   1537.3132              1538.1529              1545.0828
 Red. masses --      1.0946                 1.0944                 1.1423
 Frc consts  --      1.5241                 1.5256                 1.6067
 IR Inten    --      1.5981                 1.3215                 1.6294

                     91                     92                     93
                      A                      A                      A
 Frequencies --   1698.9525              2899.0346              2906.6724
 Red. masses --      1.0871                 1.0768                 1.0777
 Frc consts  --      1.8487                 5.3321                 5.3645
 IR Inten    --     34.9219                 8.7787               117.9148

                     94                     95                     96
                      A                      A                      A
 Frequencies --   2970.9874              3009.9279              3016.3464
 Red. masses --      1.0721                 1.0672                 1.0696
 Frc consts  --      5.5757                 5.6965                 5.7336
 IR Inten    --     73.3280                14.6054                21.5885

                     97                     98                     99
                      A                      A                      A
 Frequencies --   3020.5068              3023.5125              3027.0393
 Red. masses --      1.0710                 1.0637                 1.0602
 Frc consts  --      5.7571                 5.7293                 5.7236
 IR Inten    --     14.8190                11.6891                45.0004

                    100                    101                    102
                      A                      A                      A
 Frequencies --   3031.0624              3053.2680              3056.9213
 Red. masses --      1.0725                 1.0879                 1.0830
 Frc consts  --      5.8056                 5.9756                 5.9626
 IR Inten    --     31.7356                 4.9499                46.8989

                    103                    104                    105
                      A                      A                      A
 Frequencies --   3063.0871              3068.9087              3070.2485
 Red. masses --      1.0890                 1.0917                 1.0996
 Frc consts  --      6.0198                 6.0580                 6.1072
 IR Inten    --     65.4181                61.0336                15.1224

                    106                    107                    108
                      A                      A                      A
 Frequencies --   3070.8011              3072.1294              3074.6812
 Red. masses --      1.0850                 1.0683                 1.0610
 Frc consts  --      6.0284                 5.9402                 5.9095
 IR Inten    --    127.5677                30.4848                32.8341

                    109                    110                    111
                      A                      A                      A
 Frequencies --   3077.6048              3078.6685              3086.6972
 Red. masses --      1.0984                 1.0671                 1.0927
 Frc consts  --      6.1298                 5.9593                 6.1340
 IR Inten    --     73.9078                25.4194                55.4350

                    112                    113                    114
                      A                      A                      A
 Frequencies --   3119.9123              3128.9967              3135.2396
 Red. masses --      1.1056                 1.0917                 1.1078
 Frc consts  --      6.3406                 6.2976                 6.4157
 IR Inten    --     19.3385                32.4392                47.9908

                    115                    116                    117
                      A                      A                      A
 Frequencies --   3149.8960              3469.5313              3553.6763
 Red. masses --      1.1045                 1.0501                 1.0919
 Frc consts  --      6.4564                 7.4476                 8.1242
 IR Inten    --     26.6784                 3.6382                 0.3459

 - Thermochemistry -
 -------------------
 Temperature   298.150 Kelvin.  Pressure   1.00000 Atm.
 Atom     1 has atomic number  6 and mass  12.00000

 Molecular mass:   210.20960 amu.
 Principal axes and moments of inertia in atomic units:
                           1         2         3
     Eigenvalues --  2020.400415316.282626412.00877
           X            1.00000   0.00201  -0.00062
           Y           -0.00201   1.00000   0.00161
           Z            0.00062  -0.00161   1.00000
 This molecule is an asymmetric top.
 Rotational symmetry number  1.
 Warning -- assumption of classical behavior for rotation
           may cause significant error
 Rotational temperatures (Kelvin)      0.04287     0.01629     0.01351
 Rotational constants (GHZ):           0.89326     0.33947     0.28146
 Zero-point vibrational energy    1010261.6 (Joules/Mol)
                                  241.45832 (Kcal/Mol)
 Warning -- explicit consideration of  24 degrees of freedom as
           vibrations may cause significant error
 Vibrational temperatures:     51.04    79.50    91.46   111.54   166.43
          (Kelvin)            184.19   244.91   262.65   309.31   352.05
                              362.83   387.99   413.39   450.79   491.23
                              532.74   580.37   624.13   655.38   684.00
                              748.84   791.16   846.99   892.06  1089.27
                             1156.00  1163.14  1165.08  1223.21  1235.98
                             1258.47  1280.60  1289.95  1311.78  1323.95
                             1343.33  1353.93  1371.25  1395.16  1414.88
                             1423.15  1480.88  1512.44  1522.38  1541.90
                             1562.88  1585.67  1600.64  1606.31  1620.07
                             1652.96  1684.25  1695.29  1727.67  1732.73
                             1747.12  1789.35  1808.58  1825.77  1829.71
                             1836.95  1860.60  1877.23  1879.74  1886.83
                             1906.36  1923.29  1947.39  1956.15  1993.76
                             1996.42  2009.62  2015.83  2019.83  2023.11
                             2035.34  2048.21  2076.08  2097.68  2161.54
                             2166.58  2177.14  2180.57  2185.02  2185.82
                             2192.63  2199.56  2211.85  2213.06  2223.03
                             2444.41  4171.06  4182.05  4274.59  4330.61
                             4339.85  4345.84  4350.16  4355.23  4361.02
                             4392.97  4398.23  4407.10  4415.48  4417.40
                             4418.20  4420.11  4423.78  4427.99  4429.52
                             4441.07  4488.86  4501.93  4510.91  4532.00
                             4991.88  5112.95

 Zero-point correction=                           0.384788 (Hartree/Particle)
 Thermal correction to Energy=                    0.400401
 Thermal correction to Enthalpy=                  0.401345
 Thermal correction to Gibbs Free Energy=         0.341749
 Sum of electronic and zero-point Energies=           -620.189466
 Sum of electronic and thermal Energies=              -620.173853
 Sum of electronic and thermal Enthalpies=            -620.172909
 Sum of electronic and thermal Free Energies=         -620.232505

                     E (Thermal)             CV                S
                      KCal/Mol        Cal/Mol-Kelvin    Cal/Mol-Kelvin
 Total                  251.255             61.422            125.431
 Electronic               0.000              0.000              0.000
 Translational            0.889              2.981             41.933
 Rotational               0.889              2.981             32.599
 Vibrational            249.478             55.461             50.899
 Vibration     1          0.594              1.982              5.497
 Vibration     2          0.596              1.975              4.620
 Vibration     3          0.597              1.972              4.343
 Vibration     4          0.599              1.964              3.953
 Vibration     5          0.608              1.936              3.171
 Vibration     6          0.611              1.925              2.976
 Vibration     7          0.625              1.879              2.433
 Vibration     8          0.630              1.864              2.302
 Vibration     9          0.645              1.818              2.001
 Vibration    10          0.660              1.772              1.769
 Vibration    11          0.664              1.759              1.715
 Vibration    12          0.674              1.729              1.598
 Vibration    13          0.684              1.697              1.490
 Vibration    14          0.701              1.648              1.345
 Vibration    15          0.721              1.593              1.206
 Vibration    16          0.742              1.533              1.079
 Vibration    17          0.769              1.463              0.950
 Vibration    18          0.795              1.397              0.846
 Vibration    19          0.814              1.349              0.779
 Vibration    20          0.832              1.305              0.723
 Vibration    21          0.875              1.205              0.609
 Vibration    22          0.905              1.140              0.544
 Vibration    23          0.946              1.056              0.470
 Vibration    24          0.980              0.990              0.416

 Optimization completed.
    -- Stationary point found.
 Normal termination of Gaussian 16 at Thu Dec 10 16:46:04 2020.

 ----------------------------------------------------------------------
 # B3LYP/6-311++G(d,p) empiricaldispersion=gd3bj scf=xqc pop=npa geom=c
 heck
 ----------------------------------------------------------------------

 ---------------------------------------
 CID_102875224_JID_5515_Energie_neutraal
 ---------------------------------------
 Structure from the checkpoint file:  "JID_5515.chk"
 Charge =  0 Multiplicity = 1

 SCF Done:  E(RB3LYP) =  -620.749313100     A.U. after   14 cycles
 Normal termination of Gaussian 16 at Thu Dec 10 16:54:40 2020.

 ----------------------------------------------------------------------
 # B3LYP/6-311++G(d,p) empiricaldispersion=gd3bj scf=xqc pop=npa geom=c
 heck
 ----------------------------------------------------------------------

 -------------------------------------
 CID_102875224_JID_5515_Energie_kation
 -------------------------------------
 Structure from the checkpoint file:  "JID_5515.chk"
 Charge =  1 Multiplicity = 2

 SCF Done:  E(UB3LYP) =  -620.475162608     A.U. after   18 cycles
 Normal termination of Gaussian 16 at Thu Dec 10 17:14:05 2020.
 Gaussian 16:  ES64L-G16RevA.03 25-Dec-2016

 ----------------------------------------------------------------------
 # B3LYP/6-311++G(d,p) empiricaldispersion=gd3bj scf=xqc pop=npa geom=c
 heck
 ----------------------------------------------------------------------

 ------------------------------------
 CID_102875224_JID_5515_Energie_anion
 ------------------------------------
 Structure from the checkpoint file:  "JID_5515.chk"
 Charge = -1 Multiplicity = 2

                         Standard orientation:
 ---------------------------------------------------------------------
 Center     Atomic      Atomic             Coordinates (Angstroms)
 Number     Number       Type             X           Y           Z
 ---------------------------------------------------------------------
      1          6           0        4.228941    0.087207    0.443601
      2          6           0        3.809433   -0.582527   -0.871478
      3          6           0        2.467984   -1.313618   -0.730899
      4          6           0        1.355459   -0.381155   -0.219001
      5          6           0        1.794759    0.256524    1.110543
      6          6           0        3.123329    1.009474    0.973585
      7          6           0        0.009085   -1.129792   -0.100482
      8          7           0       -1.138433   -0.419137   -0.659271
      9          6           0       -2.274712   -1.311600   -0.906504
     10          6           0       -2.833649   -2.117686    0.277015
     11          7           0       -3.434703   -1.250342    1.297889
     12          6           0       -1.443633    0.842413   -0.002729
     13          6           0       -0.685342    2.133868   -0.435436
     14          6           0       -1.999362    2.917157   -0.201977
     15          6           0       -2.759361    1.576204   -0.358247
     16          1           0        5.161975    0.647541    0.305005
     17          1           0        4.436903   -0.690042    1.193635
     18          1           0        3.714873    0.186584   -1.651974
     19          1           0        4.587142   -1.278384   -1.210410
     20          1           0        2.581191   -2.155925   -0.030801
     21          1           0        2.170750   -1.745636   -1.695245
     22          1           0        1.228945    0.412224   -0.965791
     23          1           0        1.909211   -0.542959    1.858410
     24          1           0        1.014506    0.924099    1.493187
     25          1           0        3.416899    1.441471    1.938527
     26          1           0        2.989709    1.852337    0.279549
     27          1           0        0.080312   -2.080522   -0.643260
     28          1           0       -0.150837   -1.398189    0.964028
     29          1           0       -3.089687   -0.722796   -1.333514
     30          1           0       -1.957544   -2.030830   -1.674811
     31          1           0       -3.627082   -2.766004   -0.116350
     32          1           0       -2.049735   -2.789147    0.668694
     33          1           0       -3.896722   -1.823587    2.002160
     34          1           0       -2.699551   -0.745730    1.789409
     35          1           0       -1.372690    0.758762    1.100137
     36          1           0        0.205575    2.434784    0.122541
     37          1           0       -0.443047    2.073036   -1.501087
     38          1           0       -2.244162    3.722712   -0.899806
     39          1           0       -2.064760    3.306412    0.819547
     40          1           0       -3.013738    1.411487   -1.410463
     41          1           0       -3.634070    1.365831    0.260403
 ---------------------------------------------------------------------

 SCF Done:  E(UB3LYP) =  -620.734249213     A.U. after   29 cycles

 The electronic state is 2-A.
 Alpha  occ. eigenvalues --  -14.20322 -14.18846 -10.10198 -10.09003 -10.08883
 Alpha  occ. eigenvalues --  -10.08625 -10.07566 -10.07014 -10.07008 -10.07005
 Alpha  occ. eigenvalues --  -10.06898 -10.06767 -10.06700 -10.06661 -10.06275
 Alpha  occ. eigenvalues --   -0.82943  -0.77513  -0.74431  -0.73453  -0.66348
 Alpha  occ. eigenvalues --   -0.64490  -0.61993  -0.58039  -0.56434  -0.53665
 Alpha  occ. eigenvalues --   -0.51353  -0.49892  -0.48076  -0.46000  -0.44736
 Alpha  occ. eigenvalues --   -0.40146  -0.39921  -0.38854  -0.37441  -0.36241
 Alpha  occ. eigenvalues --   -0.35706  -0.34274  -0.34060  -0.32519  -0.32442
 Alpha  occ. eigenvalues --   -0.30978  -0.29552  -0.28727  -0.28213  -0.27665
 Alpha  occ. eigenvalues --   -0.27250  -0.26130  -0.25568  -0.24961  -0.24583
 Alpha  occ. eigenvalues --   -0.24214  -0.23428  -0.22303  -0.21950  -0.21184
 Alpha  occ. eigenvalues --   -0.20216  -0.19874  -0.14388  -0.11044   0.04385
 Alpha virt. eigenvalues --    0.06006   0.06751   0.07017   0.07918   0.08189
 Alpha virt. eigenvalues --    0.08473   0.09075   0.09404   0.09952   0.10632
 Alpha virt. eigenvalues --    0.11033   0.11054   0.11289   0.12059   0.12733

  Beta  occ. eigenvalues --  -14.20321 -14.18804 -10.10186 -10.08998 -10.08867
  Beta  occ. eigenvalues --  -10.08600 -10.07557 -10.07011 -10.07005 -10.07004
  Beta  occ. eigenvalues --  -10.06886 -10.06750 -10.06688 -10.06649 -10.06261
  Beta  occ. eigenvalues --   -0.82928  -0.77445  -0.74415  -0.73433  -0.66322
  Beta  occ. eigenvalues --   -0.64463  -0.61946  -0.58009  -0.56418  -0.53617
  Beta  occ. eigenvalues --   -0.51313  -0.49849  -0.48041  -0.45962  -0.44703
  Beta  occ. eigenvalues --   -0.40119  -0.39888  -0.38818  -0.37397  -0.36205
  Beta  occ. eigenvalues --   -0.35660  -0.34254  -0.34033  -0.32492  -0.32419
  Beta  occ. eigenvalues --   -0.30949  -0.29535  -0.28694  -0.28181  -0.27628
  Beta  occ. eigenvalues --   -0.27212  -0.26107  -0.25547  -0.24939  -0.24559
  Beta  occ. eigenvalues --   -0.24190  -0.23408  -0.22280  -0.21932  -0.21161
  Beta  occ. eigenvalues --   -0.20191  -0.19850  -0.14347  -0.11020
  Beta virt. eigenvalues --    0.06344   0.06927   0.07135   0.07438   0.08316
  Beta virt. eigenvalues --    0.08596   0.08815   0.09424   0.09630   0.10436
  Beta virt. eigenvalues --    0.11059   0.11082   0.11262   0.11377   0.12258

 Mulliken charges and spin densities:
               1          2
     1  C    0.527222  -0.974088
     2  C   -0.429119   0.062243
     3  C    0.020403  -0.489696
     4  C    0.598046   0.549347
     5  C   -0.020386  -0.530944
     6  C   -0.370982   0.084902
     7  C   -0.334242  -0.783959
     8  N    0.370059  -0.004055
     9  C   -0.779509   0.675638
    10  C    1.489661  -1.852658
    11  N   -0.364613  -0.029157
    12  C   -0.768195   0.175828
    13  C    0.266758  -0.302665
    14  C   -0.319704  -0.390898
    15  C    0.062556  -0.223162
    16  H   -0.399089   0.569363
    17  H    0.134526  -0.016380
    18  H    0.118075  -0.000356
    19  H   -0.248424   0.430281
    20  H   -0.045010   0.196324
    21  H   -0.001018   0.146852
    22  H    0.187494  -0.011208
    23  H   -0.246372   0.402458
    24  H   -0.061166   0.223259
    25  H   -0.215263   0.384152
    26  H    0.073493   0.035729
    27  H   -0.049895   0.246231
    28  H    0.244741  -0.050888
    29  H   -0.008084   0.139903
    30  H   -0.067005   0.215072
    31  H   -0.336444   0.502259
    32  H   -0.295302   0.426800
    33  H   -0.210538   0.475057
    34  H   -0.107863   0.333688
    35  H    0.047216   0.070310
    36  H    0.128261   0.003342
    37  H    0.109666   0.034226
    38  H    0.105773   0.045307
    39  H   -0.067138   0.195891
    40  H    0.087388   0.007853
    41  H    0.174022   0.027800
 Sum of Mulliken charges =  -1.00000   1.00000

 Dipole moment (field-independent basis, Debye):
    X=              0.3182    Y=              3.8708    Z=             -4.1317  Tot=              5.6706
 Quadrupole moment (field-independent basis, Debye-Ang):
   XX=           -187.9833   YY=           -144.0352   ZZ=           -136.3738
   XY=            -11.1532   XZ=              8.0470   YZ=             -0.1085

 Summary of Natural Population Analysis:

                                       Natural Population
                Natural  -----------------------------------------------
    Atom  No    Charge         Core      Valence    Rydberg      Total
 -----------------------------------------------------------------------
      C    1   -0.18863      0.99963     2.18122    0.00778     3.18863
      C    2   -0.18927      0.99963     2.18103    0.00860     3.18927
      C    3   -0.18383      0.99961     2.17586    0.00835     3.18383
      C    4   -0.12384      0.99958     2.11387    0.01039     3.12384
      C    5   -0.18887      0.99961     2.18021    0.00905     3.18887
      C    6   -0.18949      0.99963     2.18102    0.00885     3.18949
      C    7   -0.07812      0.99959     2.06601    0.01253     3.07812
      N    8   -0.28093      0.99969     2.76946    0.01179     3.78093
      C    9   -0.08399      0.99960     2.07232    0.01207     3.08399
      C   10   -0.09869      0.99963     2.08751    0.01155     3.09869
      N   11   -0.42659      0.99977     2.91524    0.01158     3.92659
      C   12   -0.00441      0.99957     1.99040    0.01444     3.00441
      C   13   -0.19203      0.99962     2.18389    0.00852     3.19203
      C   14   -0.19030      0.99965     2.18392    0.00672     3.19030
      C   15   -0.19268      0.99962     2.18439    0.00867     3.19268
      H   16    0.09767      0.00000     0.40118    0.00115     0.40233
      H   17    0.09284      0.00000     0.40587    0.00129     0.40716
      H   18    0.09091      0.00000     0.40783    0.00125     0.40909
      H   19    0.09800      0.00000     0.40103    0.00097     0.40200
      H   20    0.09377      0.00000     0.40492    0.00130     0.40623
      H   21    0.09818      0.00000     0.40093    0.00089     0.40182
      H   22    0.09789      0.00000     0.39941    0.00270     0.40211
      H   23    0.09465      0.00000     0.40380    0.00155     0.40535
      H   24    0.10072      0.00000     0.39785    0.00143     0.39928
      H   25    0.09874      0.00000     0.40028    0.00098     0.40126
      H   26    0.09074      0.00000     0.40785    0.00140     0.40926
      H   27    0.09591      0.00000     0.40252    0.00157     0.40409
      H   28    0.08247      0.00000     0.41546    0.00207     0.41753
      H   29    0.09633      0.00000     0.40222    0.00145     0.40367
      H   30    0.09322      0.00000     0.40566    0.00112     0.40678
      H   31    0.09063      0.00000     0.40785    0.00152     0.40937
      H   32    0.08048      0.00000     0.41738    0.00214     0.41952
      H   33    0.17836      0.00000     0.31856    0.00308     0.32164
      H   34    0.17364      0.00000     0.32373    0.00263     0.32636
      H   35    0.08028      0.00000     0.41706    0.00266     0.41972
      H   36    0.09740      0.00000     0.40154    0.00106     0.40260
      H   37    0.09733      0.00000     0.40122    0.00145     0.40267
      H   38    0.09296      0.00000     0.40620    0.00084     0.40704
      H   39    0.09575      0.00000     0.40297    0.00129     0.40425
      H   40    0.09494      0.00000     0.40382    0.00124     0.40506
      H   41    0.10783      0.00000     0.39108    0.00109     0.39217
 =======================================================================
   * Total *   -0.00000     14.99443    43.81454    0.19103    59.00000

 Normal termination of Gaussian 16 at Thu Dec 10 17:38:40 2020.
