 Gaussian 16, Revision A.03,

 -----------------------------------------------------------
 # opt freq B3LYP/6-31G(d) empiricaldispersion=gd3bj scf=xqc
 -----------------------------------------------------------

 -------------------------------
 CID_138573596_JID_5892_neutraal
 -------------------------------
 Symbolic Z-matrix:
 Charge =  0 Multiplicity = 1

 SCF Done:  E(RB3LYP) =  -665.313329444     A.U. after   14 cycles
 SCF Done:  E(RB3LYP) =  -665.317428046     A.U. after   12 cycles
 SCF Done:  E(RB3LYP) =  -665.317814036     A.U. after   12 cycles
 SCF Done:  E(RB3LYP) =  -665.318016806     A.U. after   12 cycles
 SCF Done:  E(RB3LYP) =  -665.318097424     A.U. after   11 cycles
 SCF Done:  E(RB3LYP) =  -665.318159566     A.U. after   11 cycles
 SCF Done:  E(RB3LYP) =  -665.318179923     A.U. after   11 cycles
 SCF Done:  E(RB3LYP) =  -665.318198587     A.U. after   10 cycles
 SCF Done:  E(RB3LYP) =  -665.318214669     A.U. after   11 cycles
 SCF Done:  E(RB3LYP) =  -665.318219864     A.U. after   10 cycles
 SCF Done:  E(RB3LYP) =  -665.318220673     A.U. after    8 cycles
 SCF Done:  E(RB3LYP) =  -665.318220918     A.U. after    8 cycles
 SCF Done:  E(RB3LYP) =  -665.318220988     A.U. after    7 cycles
 Optimization completed.
    -- Stationary point found.
 Normal termination of Gaussian 16 at Thu Dec 10 17:30:43 2020.

 --------------------------------------------------------------------
 #N Geom=AllCheck Guess=TCheck SCRF=Check GenChk RB3LYP/6-31G(d) Freq
 --------------------------------------------------------------------

 Structure from the checkpoint file:  "JID_5892.chk"
 -------------------------------
 CID_138573596_JID_5892_neutraal
 -------------------------------
 Charge =  0 Multiplicity = 1

 SCF Done:  E(RB3LYP) =  -665.318220988     A.U. after    1 cycles

  Exact polarizability: 219.597   9.178 116.552 -10.123   6.368  78.909
 Approx polarizability: 303.924  19.556 201.133 -20.675  12.493 131.388

                      1                      2                      3
                      A                      A                      A
 Frequencies --     23.7798                27.5939                66.3340
 Red. masses --      4.2920                 5.4214                 4.9741
 Frc consts  --      0.0014                 0.0024                 0.0129
 IR Inten    --      0.2993                 3.8481                 3.0834

                      4                      5                      6
                      A                      A                      A
 Frequencies --    164.9264               189.2997               228.1688
 Red. masses --      5.3198                 4.6384                 4.9691
 Frc consts  --      0.0853                 0.0979                 0.1524
 IR Inten    --      0.6489                 0.6577                 2.1754

                      7                      8                      9
                      A                      A                      A
 Frequencies --    245.3319               265.7485               324.2267
 Red. masses --      5.3123                 1.0418                 5.0312
 Frc consts  --      0.1884                 0.0433                 0.3116
 IR Inten    --      2.1196                23.5033                 4.3789

                     10                     11                     12
                      A                      A                      A
 Frequencies --    356.2923               362.8775               410.2567
 Red. masses --      4.3049                 1.0860                 3.4323
 Frc consts  --      0.3220                 0.0843                 0.3404
 IR Inten    --      7.8288                15.8247                 4.8924

                     13                     14                     15
                      A                      A                      A
 Frequencies --    424.1611               433.0677               464.9749
 Red. masses --      3.1784                 3.5408                 2.6955
 Frc consts  --      0.3369                 0.3913                 0.3434
 IR Inten    --      1.1943                 3.5363                26.6349

                     16                     17                     18
                      A                      A                      A
 Frequencies --    510.9716               524.1320               538.8731
 Red. masses --      2.6308                 2.4055                 2.7278
 Frc consts  --      0.4047                 0.3893                 0.4667
 IR Inten    --     46.4371               226.0039               141.2403

                     19                     20                     21
                      A                      A                      A
 Frequencies --    553.4280               646.5434               657.1203
 Red. masses --      3.6288                 4.1172                 2.5466
 Frc consts  --      0.6548                 1.0140                 0.6479
 IR Inten    --     39.3115                38.3758               156.4934

                     22                     23                     24
                      A                      A                      A
 Frequencies --    660.7271               673.4736               730.1359
 Red. masses --      2.7775                 4.7134                 3.7710
 Frc consts  --      0.7144                 1.2596                 1.1844
 IR Inten    --    164.8768                19.1410                45.8220

                     25                     26                     27
                      A                      A                      A
 Frequencies --    741.9955               776.4513               806.4387
 Red. masses --      3.3138                 3.9171                 1.4442
 Frc consts  --      1.0749                 1.3914                 0.5534
 IR Inten    --      2.0187                 1.7803                21.5609

                     28                     29                     30
                      A                      A                      A
 Frequencies --    810.8385               816.7094               837.0657
 Red. masses --      1.2682                 3.9369                 1.6741
 Frc consts  --      0.4912                 1.5472                 0.6911
 IR Inten    --      1.1194                 3.3808                50.1922

                     31                     32                     33
                      A                      A                      A
 Frequencies --    846.2793               870.5016               930.0839
 Red. masses --      2.0458                 5.8837                 1.3046
 Frc consts  --      0.8633                 2.6269                 0.6649
 IR Inten    --     67.8170                 4.5210                 0.3486

                     34                     35                     36
                      A                      A                      A
 Frequencies --    934.3886               966.0224              1002.3962
 Red. masses --      1.3202                 1.3411                 3.3221
 Frc consts  --      0.6791                 0.7374                 1.9667
 IR Inten    --      0.7145                 0.4059                30.5829

                     37                     38                     39
                      A                      A                      A
 Frequencies --   1008.4111              1036.1916              1100.7827
 Red. masses --      5.4175                 2.5614                 1.4317
 Frc consts  --      3.2458                 1.6204                 1.0221
 IR Inten    --      5.6189                11.7236                 4.1272

                     40                     41                     42
                      A                      A                      A
 Frequencies --   1110.6421              1148.7741              1160.1925
 Red. masses --      1.4224                 1.3424                 1.1801
 Frc consts  --      1.0338                 1.0437                 0.9359
 IR Inten    --      2.6904                11.5704                 7.9212

                     43                     44                     45
                      A                      A                      A
 Frequencies --   1194.3596              1215.3670              1262.8619
 Red. masses --      1.2825                 1.6803                 3.3208
 Frc consts  --      1.0779                 1.4624                 3.1204
 IR Inten    --     16.5872                53.0033               590.7007

                     46                     47                     48
                      A                      A                      A
 Frequencies --   1319.7530              1334.5519              1339.2399
 Red. masses --      4.1015                 1.6244                 1.9880
 Frc consts  --      4.2090                 1.7045                 2.1008
 IR Inten    --      7.3178                 3.3096                 3.5697

                     49                     50                     51
                      A                      A                      A
 Frequencies --   1358.7804              1374.0831              1387.3221
 Red. masses --      2.8801                 3.7795                 3.6625
 Frc consts  --      3.1330                 4.2045                 4.1532
 IR Inten    --     32.0691                 4.7769                70.9791

                     52                     53                     54
                      A                      A                      A
 Frequencies --   1482.3156              1488.3441              1538.3470
 Red. masses --      3.6621                 2.9998                 2.7246
 Frc consts  --      4.7409                 3.9152                 3.7990
 IR Inten    --    281.1298                 5.1741                85.7856

                     55                     56                     57
                      A                      A                      A
 Frequencies --   1565.0670              1627.9192              1651.4901
 Red. masses --      2.7068                 7.2328                 6.5244
 Frc consts  --      3.9063                11.2933                10.4844
 IR Inten    --    217.7217                87.1986                18.8109

                     58                     59                     60
                      A                      A                      A
 Frequencies --   1665.6908              1678.3765              1695.6831
 Red. masses --      3.5658                 2.8074                 1.3485
 Frc consts  --      5.8290                 4.6594                 2.2845
 IR Inten    --    223.8777                22.1796               193.0624

                     61                     62                     63
                      A                      A                      A
 Frequencies --   1697.5401              3169.9612              3178.7557
 Red. masses --      1.4385                 1.0885                 1.0894
 Frc consts  --      2.4423                 6.4443                 6.4856
 IR Inten    --    148.7350                23.9247                17.2672

                     64                     65                     66
                      A                      A                      A
 Frequencies --   3179.4264              3201.8092              3212.1614
 Red. masses --      1.0886                 1.0940                 1.0916
 Frc consts  --      6.4837                 6.6077                 6.6361
 IR Inten    --     30.4542                23.8335                 5.1272

                     67                     68                     69
                      A                      A                      A
 Frequencies --   3215.0458              3227.3190              3540.7495
 Red. masses --      1.0932                 1.0930                 1.0482
 Frc consts  --      6.6577                 6.7076                 7.7422
 IR Inten    --      9.0821                 7.7098                 8.1205

                     70                     71                     72
                      A                      A                      A
 Frequencies --   3569.4399              3637.7849              3671.9557
 Red. masses --      1.0473                 1.0973                 1.0997
 Frc consts  --      7.8618                 8.5553                 8.7364
 IR Inten    --     26.4896                 6.1582                13.6295

 - Thermochemistry -
 -------------------
 Temperature   298.150 Kelvin.  Pressure   1.00000 Atm.
 Atom     1 has atomic number  6 and mass  12.00000

 Molecular mass:   201.09021 amu.
 Principal axes and moments of inertia in atomic units:
                           1         2         3
     Eigenvalues --   838.429006825.515267213.62453
           X            0.99999   0.00461  -0.00174
           Y           -0.00457   0.99965   0.02609
           Z            0.00186  -0.02608   0.99966
 This molecule is an asymmetric top.
 Rotational symmetry number  1.
 Warning -- assumption of classical behavior for rotation
           may cause significant error
 Rotational temperatures (Kelvin)      0.10331     0.01269     0.01201
 Rotational constants (GHZ):           2.15253     0.26441     0.25019
 Zero-point vibrational energy     544708.3 (Joules/Mol)
                                  130.18840 (Kcal/Mol)
 Warning -- explicit consideration of  19 degrees of freedom as
           vibrations may cause significant error
 Vibrational temperatures:     34.21    39.70    95.44   237.29   272.36
          (Kelvin)            328.28   352.98   382.35   466.49   512.63
                              522.10   590.27   610.27   623.09   669.00
                              735.17   754.11   775.32   796.26   930.23
                              945.45   950.64   968.98  1050.50  1067.57
                             1117.14  1160.29  1166.62  1175.06  1204.35
                             1217.61  1252.46  1338.18  1344.38  1389.89
                             1442.22  1450.88  1490.85  1583.78  1597.97
                             1652.83  1669.26  1718.42  1748.64  1816.98
                             1898.83  1920.12  1926.87  1954.98  1977.00
                             1996.05  2132.72  2141.40  2213.34  2251.78
                             2342.21  2376.13  2396.56  2414.81  2439.71
                             2442.38  4560.87  4573.52  4574.49  4606.69
                             4621.58  4625.73  4643.39  5094.35  5135.63
                             5233.96  5283.13

 Zero-point correction=                           0.207468 (Hartree/Particle)
 Thermal correction to Energy=                    0.220251
 Thermal correction to Enthalpy=                  0.221195
 Thermal correction to Gibbs Free Energy=         0.166945
 Sum of electronic and zero-point Energies=           -665.110753
 Sum of electronic and thermal Energies=              -665.097970
 Sum of electronic and thermal Enthalpies=            -665.097026
 Sum of electronic and thermal Free Energies=         -665.151276

                     E (Thermal)             CV                S
                      KCal/Mol        Cal/Mol-Kelvin    Cal/Mol-Kelvin
 Total                  138.210             50.736            114.179
 Electronic               0.000              0.000              0.000
 Translational            0.889              2.981             41.800
 Rotational               0.889              2.981             32.090
 Vibrational            136.432             44.775             40.289
 Vibration     1          0.593              1.985              6.291
 Vibration     2          0.593              1.984              5.995
 Vibration     3          0.598              1.970              4.259
 Vibration     4          0.623              1.886              2.493
 Vibration     5          0.633              1.855              2.235
 Vibration     6          0.651              1.798              1.893
 Vibration     7          0.660              1.771              1.764
 Vibration     8          0.672              1.736              1.624
 Vibration     9          0.709              1.627              1.289
 Vibration    10          0.732              1.562              1.138
 Vibration    11          0.737              1.549              1.110
 Vibration    12          0.774              1.448              0.926
 Vibration    13          0.786              1.418              0.878
 Vibration    14          0.794              1.398              0.849
 Vibration    15          0.822              1.328              0.752
 Vibration    16          0.866              1.226              0.631
 Vibration    17          0.879              1.197              0.600
 Vibration    18          0.894              1.164              0.568
 Vibration    19          0.909              1.132              0.537

 Optimization completed.
    -- Stationary point found.
 Normal termination of Gaussian 16 at Thu Dec 10 17:38:30 2020.

 ----------------------------------------------------------------------
 # B3LYP/6-311++G(d,p) empiricaldispersion=gd3bj scf=xqc pop=npa geom=c
 heck
 ----------------------------------------------------------------------

 ---------------------------------------
 CID_138573596_JID_5892_Energie_neutraal
 ---------------------------------------
 Structure from the checkpoint file:  "JID_5892.chk"
 Charge =  0 Multiplicity = 1

 SCF Done:  E(RB3LYP) =  -665.509242577     A.U. after   15 cycles
 Normal termination of Gaussian 16 at Thu Dec 10 17:42:20 2020.

 ----------------------------------------------------------------------
 # B3LYP/6-311++G(d,p) empiricaldispersion=gd3bj scf=xqc pop=npa geom=c
 heck
 ----------------------------------------------------------------------

 -------------------------------------
 CID_138573596_JID_5892_Energie_kation
 -------------------------------------
 Structure from the checkpoint file:  "JID_5892.chk"
 Charge =  1 Multiplicity = 2

 SCF Done:  E(UB3LYP) =  -665.244464135     A.U. after   26 cycles
 Normal termination of Gaussian 16 at Thu Dec 10 17:51:25 2020.
 Gaussian 16:  ES64L-G16RevA.03 25-Dec-2016

 ----------------------------------------------------------------------
 # B3LYP/6-311++G(d,p) empiricaldispersion=gd3bj scf=xqc pop=npa geom=c
 heck
 ----------------------------------------------------------------------

 ------------------------------------
 CID_138573596_JID_5892_Energie_anion
 ------------------------------------
 Structure from the checkpoint file:  "JID_5892.chk"
 Charge = -1 Multiplicity = 2

                         Standard orientation:
 ---------------------------------------------------------------------
 Center     Atomic      Atomic             Coordinates (Angstroms)
 Number     Number       Type             X           Y           Z
 ---------------------------------------------------------------------
      1          6           0        3.264548   -0.857608   -0.799678
      2          6           0        1.932385   -1.256361   -0.713435
      3          6           0        1.075847   -0.629266    0.183657
      4          6           0        1.543924    0.398406    0.999667
      5          6           0        2.871530    0.800567    0.908260
      6          6           0        3.753042    0.179863    0.007431
      7          7           0        5.106061    0.548453   -0.036530
      8          8           0       -0.219986   -1.127432    0.303280
      9          6           0       -1.289102   -0.315934    0.051447
     10          7           0       -1.087719    0.906734   -0.424626
     11          6           0       -2.189846    1.637434   -0.660644
     12          6           0       -3.485418    1.199816   -0.445608
     13          6           0       -3.677369   -0.103995    0.059597
     14          6           0       -2.541639   -0.877468    0.313270
     15          7           0       -4.946952   -0.576885    0.343323
     16          1           0        3.932956   -1.355665   -1.497865
     17          1           0        1.549642   -2.055985   -1.339374
     18          1           0        0.867214    0.886397    1.691801
     19          1           0        3.235502    1.602848    1.545672
     20          1           0        5.556390    0.355848   -0.923411
     21          1           0        5.281601    1.504031    0.250650
     22          1           0       -2.014438    2.637976   -1.052075
     23          1           0       -4.332783    1.846109   -0.654011
     24          1           0       -2.610114   -1.886360    0.706275
     25          1           0       -5.045486   -1.581694    0.401995
     26          1           0       -5.707734   -0.134883   -0.154843
 ---------------------------------------------------------------------

 SCF Done:  E(UB3LYP) =  -665.500296492     A.U. after   33 cycles
 SCF Done:  E(UB3LYP) =  -665.500296492     a.u. after    1 cycles

 The electronic state is 2-A.
 Alpha  occ. eigenvalues --  -19.06889 -14.22829 -14.22479 -14.20471 -10.17148
 Alpha  occ. eigenvalues --  -10.13653 -10.13331 -10.12305 -10.11546 -10.08532
 Alpha  occ. eigenvalues --  -10.08524 -10.08206 -10.08169 -10.07702 -10.07688
 Alpha  occ. eigenvalues --   -0.99367  -0.85090  -0.82852  -0.82452  -0.75243
 Alpha  occ. eigenvalues --   -0.68761  -0.67406  -0.66176  -0.62991  -0.55180
 Alpha  occ. eigenvalues --   -0.54731  -0.53249  -0.49755  -0.46244  -0.44323
 Alpha  occ. eigenvalues --   -0.42848  -0.42390  -0.40663  -0.37758  -0.36719
 Alpha  occ. eigenvalues --   -0.36273  -0.35762  -0.34201  -0.33838  -0.32762
 Alpha  occ. eigenvalues --   -0.32383  -0.29547  -0.28990  -0.28092  -0.27892
 Alpha  occ. eigenvalues --   -0.25858  -0.23479  -0.21597  -0.17867  -0.16532
 Alpha  occ. eigenvalues --   -0.14954  -0.13757  -0.11322   0.03753
 Alpha virt. eigenvalues --    0.04626   0.06836   0.07230   0.07271   0.07788
 Alpha virt. eigenvalues --    0.07857   0.08529   0.08915   0.09903   0.09924
 Alpha virt. eigenvalues --    0.10447   0.11464   0.12645   0.12949   0.13772

  Beta  occ. eigenvalues --  -19.06887 -14.22740 -14.22421 -14.20466 -10.17146
  Beta  occ. eigenvalues --  -10.13640 -10.13329 -10.12299 -10.11542 -10.08530
  Beta  occ. eigenvalues --  -10.08523 -10.08197 -10.08158 -10.07687 -10.07679
  Beta  occ. eigenvalues --   -0.99363  -0.85060  -0.82785  -0.82367  -0.75218
  Beta  occ. eigenvalues --   -0.68701  -0.67382  -0.66164  -0.62955  -0.55140
  Beta  occ. eigenvalues --   -0.54692  -0.53229  -0.49691  -0.46187  -0.44277
  Beta  occ. eigenvalues --   -0.42782  -0.42345  -0.40610  -0.37709  -0.36656
  Beta  occ. eigenvalues --   -0.36239  -0.35738  -0.34164  -0.33824  -0.32732
  Beta  occ. eigenvalues --   -0.32356  -0.29523  -0.28960  -0.28058  -0.27867
  Beta  occ. eigenvalues --   -0.25823  -0.23451  -0.21568  -0.17852  -0.16524
  Beta  occ. eigenvalues --   -0.14940  -0.13690  -0.11289
  Beta virt. eigenvalues --    0.06109   0.06703   0.06940   0.07611   0.07749
  Beta virt. eigenvalues --    0.08030   0.08063   0.08668   0.09463   0.09989
  Beta virt. eigenvalues --    0.10218   0.10756   0.11866   0.13024   0.13241

 Mulliken charges and spin densities:
               1          2
     1  C    0.130538  -0.217971
     2  C    0.157294   0.181336
     3  C   -0.079541  -0.474346
     4  C    0.075833   0.000003
     5  C    0.177159  -0.105476
     6  C   -0.018769  -0.433150
     7  N   -0.227629  -0.067716
     8  O    0.003036   0.002434
     9  C    0.315999  -1.538524
    10  N    0.032988   0.022274
    11  C    0.068606  -0.452225
    12  C   -0.083693   0.389316
    13  C    1.504972  -2.377669
    14  C   -1.376719   2.509292
    15  N   -0.188626  -0.088167
    16  H   -0.093879   0.245848
    17  H    0.126913   0.030302
    18  H    0.159854  -0.002171
    19  H   -0.057776   0.210121
    20  H   -0.215453   0.458450
    21  H   -0.197838   0.440168
    22  H    0.144810   0.019655
    23  H   -0.484187   0.668792
    24  H   -0.124574   0.315440
    25  H   -0.408869   0.665739
    26  H   -0.340447   0.598246
 Sum of Mulliken charges =  -1.00000   1.00000

 Dipole moment (field-independent basis, Debye):
    X=              3.3182    Y=              0.2372    Z=              0.7742  Tot=              3.4155
 Quadrupole moment (field-independent basis, Debye-Ang):
   XX=           -238.5172   YY=           -113.1936   ZZ=           -109.1374
   XY=            -14.7274   XZ=              1.9310   YZ=              3.5375

 Summary of Natural Population Analysis:

                                       Natural Population
                Natural  -----------------------------------------------
    Atom  No    Charge         Core      Valence    Rydberg      Total
 -----------------------------------------------------------------------
      C    1   -0.12303      0.99953     2.11361    0.00990     3.12303
      C    2   -0.10695      0.99951     2.09905    0.00839     3.10695
      C    3    0.13625      0.99933     1.85205    0.01237     2.86375
      C    4   -0.10117      0.99951     2.09369    0.00796     3.10117
      C    5   -0.12126      0.99953     2.11189    0.00984     3.12126
      C    6    0.07981      0.99949     1.90973    0.01097     2.92019
      N    7   -0.39703      0.99972     2.88669    0.01062     3.89703
      O    8   -0.27222      0.99984     3.26330    0.00908     4.27222
      C    9    0.27238      0.99944     1.71116    0.01703     2.72762
      N   10   -0.27624      0.99966     2.76677    0.00982     3.77624
      C   11    0.03728      0.99959     1.94988    0.01324     2.96272
      C   12   -0.15908      0.99951     2.14944    0.01012     3.15908
      C   13    0.10941      0.99951     1.87923    0.01186     2.89059
      C   14   -0.16721      0.99947     2.15761    0.01013     3.16721
      N   15   -0.38537      0.99971     2.87507    0.01060     3.88537
      H   16    0.10003      0.00000     0.39909    0.00089     0.39997
      H   17    0.10526      0.00000     0.39382    0.00092     0.39474
      H   18    0.10726      0.00000     0.39185    0.00089     0.39274
      H   19    0.09971      0.00000     0.39939    0.00090     0.40029
      H   20    0.18632      0.00000     0.30949    0.00419     0.31368
      H   21    0.18590      0.00000     0.31046    0.00364     0.31410
      H   22    0.08883      0.00000     0.41011    0.00106     0.41117
      H   23    0.10575      0.00000     0.39325    0.00100     0.39425
      H   24    0.10879      0.00000     0.38997    0.00124     0.39121
      H   25    0.19215      0.00000     0.30083    0.00702     0.30785
      H   26    0.19443      0.00000     0.29234    0.01323     0.30557
 =======================================================================
   * Total *    0.00000     14.99335    37.80977    0.19689    53.00000

 Normal termination of Gaussian 16 at Thu Dec 10 18:00:45 2020.
