 Gaussian 16, Revision A.03,

 -----------------------------------------------------------
 # opt freq B3LYP/6-31G(d) empiricaldispersion=gd3bj scf=xqc
 -----------------------------------------------------------

 ------------------------------
 CID_96619127_JID_5588_neutraal
 ------------------------------
 Symbolic Z-matrix:
 Charge =  0 Multiplicity = 1

 SCF Done:  E(RB3LYP) =  -701.186398832     A.U. after   15 cycles
 SCF Done:  E(RB3LYP) =  -701.191587807     A.U. after   13 cycles
 SCF Done:  E(RB3LYP) =  -701.192852060     A.U. after   13 cycles
 SCF Done:  E(RB3LYP) =  -701.193546314     A.U. after   13 cycles
 SCF Done:  E(RB3LYP) =  -701.193617750     A.U. after   13 cycles
 SCF Done:  E(RB3LYP) =  -701.193812414     A.U. after   12 cycles
 SCF Done:  E(RB3LYP) =  -701.193944940     A.U. after   12 cycles
 SCF Done:  E(RB3LYP) =  -701.193969950     A.U. after   11 cycles
 SCF Done:  E(RB3LYP) =  -701.193980870     A.U. after   10 cycles
 SCF Done:  E(RB3LYP) =  -701.193984148     A.U. after   10 cycles
 SCF Done:  E(RB3LYP) =  -701.193985569     A.U. after    9 cycles
 SCF Done:  E(RB3LYP) =  -701.193986579     A.U. after    8 cycles
 SCF Done:  E(RB3LYP) =  -701.193986845     A.U. after    7 cycles
 Optimization completed.
    -- Stationary point found.
 Normal termination of Gaussian 16 at Thu Dec 10 16:33:44 2020.

 --------------------------------------------------------------------
 #N Geom=AllCheck Guess=TCheck SCRF=Check GenChk RB3LYP/6-31G(d) Freq
 --------------------------------------------------------------------

 Structure from the checkpoint file:  "JID_5588.chk"
 ------------------------------
 CID_96619127_JID_5588_neutraal
 ------------------------------
 Charge =  0 Multiplicity = 1

 SCF Done:  E(RB3LYP) =  -701.193986845     A.U. after    2 cycles

  Exact polarizability: 210.253   8.287 133.428   7.667  -0.497  55.763
 Approx polarizability: 321.215  19.638 237.573  15.364   3.999  88.690

                      1                      2                      3
                      A                      A                      A
 Frequencies --     35.1059                50.6486                91.4212
 Red. masses --      4.1039                11.6523                 4.8360
 Frc consts  --      0.0030                 0.0176                 0.0238
 IR Inten    --      0.3734                 0.4350                 0.0702

                      4                      5                      6
                      A                      A                      A
 Frequencies --    102.8495               159.4903               177.1949
 Red. masses --      5.1461                 5.4459                 3.7564
 Frc consts  --      0.0321                 0.0816                 0.0695
 IR Inten    --      0.8690                 2.1864                 5.1304

                      7                      8                      9
                      A                      A                      A
 Frequencies --    213.9066               230.7466               265.5271
 Red. masses --      2.0631                 1.7183                 3.5106
 Frc consts  --      0.0556                 0.0539                 0.1458
 IR Inten    --      0.7912                 1.5987                 1.0107

                     10                     11                     12
                      A                      A                      A
 Frequencies --    309.9993               326.6147               400.2313
 Red. masses --      6.9031                 4.4086                 7.6332
 Frc consts  --      0.3909                 0.2771                 0.7204
 IR Inten    --      0.6585                 2.6865                 2.4804

                     13                     14                     15
                      A                      A                      A
 Frequencies --    405.1058               474.7213               520.3302
 Red. masses --      4.5721                 4.4064                 5.6269
 Frc consts  --      0.4421                 0.5851                 0.8976
 IR Inten    --      3.5854                 3.0837                11.6958

                     16                     17                     18
                      A                      A                      A
 Frequencies --    550.1792               612.9202               627.1632
 Red. masses --      4.4306                 3.4653                 1.4183
 Frc consts  --      0.7902                 0.7670                 0.3287
 IR Inten    --     11.7808                 5.5689                79.4567

                     19                     20                     21
                      A                      A                      A
 Frequencies --    646.7982               671.8965               693.6380
 Red. masses --      4.8748                 3.4503                 5.6138
 Frc consts  --      1.2016                 0.9177                 1.5914
 IR Inten    --     54.4902                 8.8952                 5.4990

                     22                     23                     24
                      A                      A                      A
 Frequencies --    724.5738               729.5019               762.9799
 Red. masses --      1.2525                 6.1400                 4.1425
 Frc consts  --      0.3874                 1.9252                 1.4208
 IR Inten    --     41.5734                15.3014                11.7174

                     25                     26                     27
                      A                      A                      A
 Frequencies --    776.9334               811.1351               859.6717
 Red. masses --      3.9390                 1.4110                 7.1113
 Frc consts  --      1.4009                 0.5470                 3.0964
 IR Inten    --     50.7276                 5.3675                 0.6029

                     28                     29                     30
                      A                      A                      A
 Frequencies --    887.2588               915.1793               931.9460
 Red. masses --      1.3204                 4.7160                 1.6250
 Frc consts  --      0.6124                 2.3272                 0.8316
 IR Inten    --      2.2042                 0.1107                 8.4022

                     31                     32                     33
                      A                      A                      A
 Frequencies --    947.0795              1019.9918              1040.4765
 Red. masses --      1.3622                 2.9210                 2.5861
 Frc consts  --      0.7199                 1.7905                 1.6495
 IR Inten    --      0.9286                25.6585                13.1762

                     34                     35                     36
                      A                      A                      A
 Frequencies --   1082.8858              1097.1031              1124.3424
 Red. masses --      1.8735                 2.1506                 1.3702
 Frc consts  --      1.2944                 1.5251                 1.0206
 IR Inten    --     30.4412                42.0811                 8.2711

                     37                     38                     39
                      A                      A                      A
 Frequencies --   1131.6144              1155.5588              1183.7544
 Red. masses --      2.7474                 1.2984                 6.9663
 Frc consts  --      2.0729                 1.0215                 5.7514
 IR Inten    --    102.5736                 4.3683                 5.0517

                     40                     41                     42
                      A                      A                      A
 Frequencies --   1205.4177              1212.3897              1252.2116
 Red. masses --      2.4488                 1.6528                 1.9260
 Frc consts  --      2.0964                 1.4314                 1.7794
 IR Inten    --      8.8331               171.8861                18.2201

                     43                     44                     45
                      A                      A                      A
 Frequencies --   1296.8563              1356.9264              1384.4075
 Red. masses --      2.1815                 2.6937                 2.5898
 Frc consts  --      2.1617                 2.9223                 2.9244
 IR Inten    --      4.7738                22.4347                38.8500

                     46                     47                     48
                      A                      A                      A
 Frequencies --   1409.9538              1424.9338              1429.5574
 Red. masses --      3.7112                 4.9558                 3.1869
 Frc consts  --      4.3469                 5.9287                 3.8372
 IR Inten    --     85.4728                11.3107                39.4473

                     49                     50                     51
                      A                      A                      A
 Frequencies --   1474.2341              1488.1829              1520.6721
 Red. masses --      1.7255                 3.2175                 1.1231
 Frc consts  --      2.2095                 4.1984                 1.5301
 IR Inten    --      6.9818               120.9611                32.1250

                     52                     53                     54
                      A                      A                      A
 Frequencies --   1530.5602              1544.6278              1583.5187
 Red. masses --      2.0877                 1.1253                 5.7917
 Frc consts  --      2.8815                 1.5818                 8.5567
 IR Inten    --     79.7431                 3.4177                73.8744

                     55                     56                     57
                      A                      A                      A
 Frequencies --   1602.7061              1646.3257              1835.7964
 Red. masses --      6.0867                 5.3755                10.1868
 Frc consts  --      9.2117                 8.5842                20.2272
 IR Inten    --      3.3220               113.3998               306.0082

                     58                     59                     60
                      A                      A                      A
 Frequencies --   3054.8008              3126.5869              3158.9347
 Red. masses --      1.0404                 1.0968                 1.1045
 Frc consts  --      5.7201                 6.3172                 6.4941
 IR Inten    --     39.1663                17.0392                12.1672

                     61                     62                     63
                      A                      A                      A
 Frequencies --   3230.4169              3259.0771              3267.9186
 Red. masses --      1.0919                 1.0891                 1.0906
 Frc consts  --      6.7136                 6.8157                 6.8621
 IR Inten    --      0.1927                 4.1461                 1.0525

                     64                     65                     66
                      A                      A                      A
 Frequencies --   3276.1320              3289.7769              3696.5889
 Red. masses --      1.0999                 1.1005                 1.0642
 Frc consts  --      6.9557                 7.0171                 8.5681
 IR Inten    --      4.2419                 0.8808                84.5191

 - Thermochemistry -
 -------------------
 Temperature   298.150 Kelvin.  Pressure   1.00000 Atm.
 Atom     1 has atomic number  6 and mass  12.00000

 Molecular mass:   203.06948 amu.
 Principal axes and moments of inertia in atomic units:
                           1         2         3
     Eigenvalues --  1411.306334942.371686209.06528
           X            0.99998   0.00645  -0.00018
           Y           -0.00645   0.99987  -0.01450
           Z            0.00008   0.01450   0.99989
 This molecule is an asymmetric top.
 Rotational symmetry number  1.
 Warning -- assumption of classical behavior for rotation
           may cause significant error
 Rotational temperatures (Kelvin)      0.06137     0.01752     0.01395
 Rotational constants (GHZ):           1.27877     0.36516     0.29066
 Zero-point vibrational energy     480348.4 (Joules/Mol)
                                  114.80603 (Kcal/Mol)
 Warning -- explicit consideration of  17 degrees of freedom as
           vibrations may cause significant error
 Vibrational temperatures:     50.51    72.87   131.53   147.98   229.47
          (Kelvin)            254.94   307.76   331.99   382.03   446.02
                              469.93   575.84   582.86   683.02   748.64
                              791.59   881.86   902.35   930.60   966.71
                              997.99  1042.50  1049.59  1097.76  1117.83
                             1167.04  1236.88  1276.57  1316.74  1340.86
                             1362.64  1467.54  1497.01  1558.03  1578.49
                             1617.68  1628.14  1662.59  1703.16  1734.33
                             1744.36  1801.65  1865.89  1952.31  1991.85
                             2028.61  2050.16  2056.81  2121.09  2141.16
                             2187.91  2202.13  2222.37  2278.33  2305.94
                             2368.70  2641.30  4395.18  4498.46  4545.00
                             4647.85  4689.09  4701.81  4713.62  4733.26
                             5318.57

 Zero-point correction=                           0.182955 (Hartree/Particle)
 Thermal correction to Energy=                    0.195484
 Thermal correction to Enthalpy=                  0.196428
 Thermal correction to Gibbs Free Energy=         0.142869
 Sum of electronic and zero-point Energies=           -701.011032
 Sum of electronic and thermal Energies=              -700.998503
 Sum of electronic and thermal Enthalpies=            -700.997559
 Sum of electronic and thermal Free Energies=         -701.051118

                     E (Thermal)             CV                S
                      KCal/Mol        Cal/Mol-Kelvin    Cal/Mol-Kelvin
 Total                  122.668             47.495            112.724
 Electronic               0.000              0.000              0.000
 Translational            0.889              2.981             41.830
 Rotational               0.889              2.981             32.138
 Vibrational            120.890             41.533             38.757
 Vibration     1          0.594              1.982              5.518
 Vibration     2          0.595              1.977              4.792
 Vibration     3          0.602              1.955              3.629
 Vibration     4          0.605              1.947              3.400
 Vibration     5          0.621              1.892              2.556
 Vibration     6          0.628              1.870              2.358
 Vibration     7          0.644              1.820              2.010
 Vibration     8          0.652              1.794              1.873
 Vibration     9          0.671              1.736              1.625
 Vibration    10          0.699              1.655              1.362
 Vibration    11          0.710              1.622              1.277
 Vibration    12          0.766              1.470              0.962
 Vibration    13          0.770              1.459              0.944
 Vibration    14          0.831              1.306              0.724
 Vibration    15          0.875              1.205              0.609
 Vibration    16          0.905              1.139              0.544
 Vibration    17          0.972              1.005              0.428

                           ! Non-Optimized Parameters !
 Normal termination of Gaussian 16 at Thu Dec 10 16:41:16 2020.

 ----------------------------------------------------------------------
 # B3LYP/6-311++G(d,p) empiricaldispersion=gd3bj scf=xqc pop=npa geom=c
 heck
 ----------------------------------------------------------------------

 --------------------------------------
 CID_96619127_JID_5588_Energie_neutraal
 --------------------------------------
 Structure from the checkpoint file:  "JID_5588.chk"
 Charge =  0 Multiplicity = 1

 SCF Done:  E(RB3LYP) =  -701.388893813     A.U. after   16 cycles
 Normal termination of Gaussian 16 at Thu Dec 10 16:44:35 2020.

 ----------------------------------------------------------------------
 # B3LYP/6-311++G(d,p) empiricaldispersion=gd3bj scf=xqc pop=npa geom=c
 heck
 ----------------------------------------------------------------------

 ------------------------------------
 CID_96619127_JID_5588_Energie_kation
 ------------------------------------
 Structure from the checkpoint file:  "JID_5588.chk"
 Charge =  1 Multiplicity = 2

 SCF Done:  E(UB3LYP) =  -701.100299627     A.U. after   29 cycles
 Normal termination of Gaussian 16 at Thu Dec 10 16:51:00 2020.
 Gaussian 16:  ES64L-G16RevA.03 25-Dec-2016

 ----------------------------------------------------------------------
 # B3LYP/6-311++G(d,p) empiricaldispersion=gd3bj scf=xqc pop=npa geom=c
 heck
 ----------------------------------------------------------------------

 -----------------------------------
 CID_96619127_JID_5588_Energie_anion
 -----------------------------------
 Structure from the checkpoint file:  "JID_5588.chk"
 Charge = -1 Multiplicity = 2

                         Standard orientation:
 ---------------------------------------------------------------------
 Center     Atomic      Atomic             Coordinates (Angstroms)
 Number     Number       Type             X           Y           Z
 ---------------------------------------------------------------------
      1          6           0       -1.684149   -2.149349    0.651462
      2          7           0       -2.343756   -0.954715    0.153019
      3          6           0       -3.698417   -0.878615   -0.054038
      4          6           0       -4.026742    0.413733   -0.416484
      5          6           0       -2.828159    1.159834   -0.416607
      6          6           0       -1.788706    0.304051   -0.068983
      7          6           0       -0.376589    0.643219    0.031342
      8          7           0       -0.129620    1.958721    0.248949
      9          7           0        1.113770    2.412571    0.332036
     10          6           0        2.141592    1.567078    0.229243
     11          6           0        1.972329    0.199007   -0.014086
     12          6           0        0.677655   -0.276047   -0.134241
     13          6           0        3.174370   -0.665626   -0.156283
     14          8           0        4.317977   -0.273166   -0.075001
     15          8           0        2.857368   -1.963813   -0.386141
     16          1           0       -2.438819   -2.802951    1.093518
     17          1           0       -1.174336   -2.700921   -0.146855
     18          1           0       -0.957661   -1.890802    1.425611
     19          1           0       -4.318198   -1.752890    0.086320
     20          1           0       -5.018937    0.773647   -0.649822
     21          1           0       -2.696677    2.205891   -0.649629
     22          1           0        3.133435    1.994992    0.329118
     23          1           0        0.500254   -1.313905   -0.377814
     24          1           0        3.706314   -2.436974   -0.467290
 ---------------------------------------------------------------------

 SCF Done:  E(UB3LYP) =  -701.425078109     A.U. after   24 cycles

 The electronic state is 2-A.
 Alpha  occ. eigenvalues --  -19.03172 -18.95449 -14.25309 -14.17482 -14.15659
 Alpha  occ. eigenvalues --  -10.13995 -10.11269 -10.08112 -10.07770 -10.06561
 Alpha  occ. eigenvalues --  -10.04769 -10.04711 -10.03415 -10.03411 -10.02633
 Alpha  occ. eigenvalues --   -0.96677  -0.87605  -0.87257  -0.84766  -0.69771
 Alpha  occ. eigenvalues --   -0.67992  -0.66829  -0.60401  -0.58676  -0.53963
 Alpha  occ. eigenvalues --   -0.50614  -0.47790  -0.45995  -0.43411  -0.41065
 Alpha  occ. eigenvalues --   -0.37076  -0.36149  -0.35712  -0.34345  -0.33514
 Alpha  occ. eigenvalues --   -0.31894  -0.31476  -0.31295  -0.29871  -0.27994
 Alpha  occ. eigenvalues --   -0.27377  -0.26737  -0.26060  -0.25950  -0.24249
 Alpha  occ. eigenvalues --   -0.19300  -0.16036  -0.15516  -0.15131  -0.13880
 Alpha  occ. eigenvalues --   -0.13189  -0.08629  -0.07094   0.02634
 Alpha virt. eigenvalues --    0.07094   0.08449   0.09099   0.09651   0.10644
 Alpha virt. eigenvalues --    0.11270   0.12123   0.12728   0.13250   0.14075
 Alpha virt. eigenvalues --    0.14544   0.15285   0.15577   0.15622   0.16975

  Beta  occ. eigenvalues --  -19.03108 -18.95116 -14.25294 -14.17424 -14.14946
  Beta  occ. eigenvalues --  -10.13763 -10.11263 -10.08111 -10.07760 -10.06618
  Beta  occ. eigenvalues --  -10.04772 -10.04643 -10.03410 -10.03229 -10.02352
  Beta  occ. eigenvalues --   -0.96384  -0.87571  -0.86767  -0.84039  -0.69733
  Beta  occ. eigenvalues --   -0.67706  -0.66067  -0.60178  -0.58653  -0.53188
  Beta  occ. eigenvalues --   -0.50360  -0.47556  -0.45897  -0.43358  -0.40914
  Beta  occ. eigenvalues --   -0.36936  -0.36044  -0.35383  -0.34230  -0.33211
  Beta  occ. eigenvalues --   -0.31680  -0.31274  -0.30118  -0.29795  -0.27533
  Beta  occ. eigenvalues --   -0.27204  -0.26700  -0.25949  -0.24876  -0.23967
  Beta  occ. eigenvalues --   -0.17977  -0.15391  -0.15002  -0.13540  -0.13139
  Beta  occ. eigenvalues --   -0.12785  -0.07847  -0.06505
  Beta virt. eigenvalues --    0.07066   0.08432   0.08987   0.09325   0.10276
  Beta virt. eigenvalues --    0.10632   0.11322   0.12116   0.12728   0.13241
  Beta virt. eigenvalues --    0.14343   0.14817   0.15331   0.15595   0.16374

 Mulliken charges and spin densities:
               1          2
     1  C   -0.352195  -0.020318
     2  N    0.214212   0.008049
     3  C    0.094127  -0.000970
     4  C   -0.659360   0.000725
     5  C    0.346360   0.011167
     6  C   -0.380719  -0.052180
     7  C   -1.390948  -0.051001
     8  N   -0.004670   0.347946
     9  N   -0.096728   0.004360
    10  C   -0.551551   0.084334
    11  C    0.079556   0.118568
    12  C    0.827807   0.247135
    13  C    0.024413   0.157144
    14  O   -0.405514   0.116359
    15  O   -0.234558   0.014734
    16  H    0.093263   0.009996
    17  H    0.173684   0.001941
    18  H    0.164487   0.016692
    19  H    0.133858   0.000261
    20  H    0.116150   0.000639
    21  H    0.196789  -0.002420
    22  H    0.191033  -0.005308
    23  H    0.153412  -0.006781
    24  H    0.267094  -0.001072
 Sum of Mulliken charges =  -1.00000   1.00000

 Dipole moment (field-independent basis, Debye):
    X=             -4.8267    Y=             -7.1654    Z=             -0.0688  Tot=              8.6398
 Quadrupole moment (field-independent basis, Debye-Ang):
   XX=           -132.5524   YY=           -103.9857   ZZ=            -94.5420
   XY=             -1.2449   XZ=             -1.5414   YZ=             -4.2241

 Summary of Natural Population Analysis:

                                       Natural Population
                Natural  -----------------------------------------------
    Atom  No    Charge         Core      Valence    Rydberg      Total
 -----------------------------------------------------------------------
      C    1   -0.17192      0.99965     2.16571    0.00656     3.17192
      N    2   -0.19933      0.99962     2.69168    0.00803     3.69933
      C    3   -0.03221      0.99959     2.02036    0.01226     3.03221
      C    4   -0.15168      0.99958     2.14292    0.00919     3.15168
      C    5   -0.13174      0.99953     2.12243    0.00979     3.13174
      C    6    0.07289      0.99950     1.91499    0.01262     2.92711
      C    7    0.04636      0.99941     1.94127    0.01296     2.95364
      N    8   -0.02485      0.99970     2.50877    0.01638     3.52485
      N    9   -0.13519      0.99974     2.61790    0.01756     3.63519
      C   10    0.03669      0.99957     1.94912    0.01462     2.96331
      C   11   -0.04168      0.99944     2.03300    0.00925     3.04168
      C   12   -0.05907      0.99952     2.05119    0.00836     3.05907
      C   13    0.42385      0.99968     1.55254    0.02393     2.57615
      O   14   -0.29430      0.99987     3.28795    0.00647     4.29430
      O   15   -0.35496      0.99988     3.34725    0.00783     4.35496
      H   16    0.09287      0.00000     0.40621    0.00092     0.40713
      H   17    0.09434      0.00000     0.40456    0.00109     0.40566
      H   18    0.10726      0.00000     0.39175    0.00099     0.39274
      H   19    0.09109      0.00000     0.40798    0.00093     0.40891
      H   20    0.09792      0.00000     0.40119    0.00089     0.40208
      H   21    0.11251      0.00000     0.38620    0.00130     0.38749
      H   22    0.09405      0.00000     0.40464    0.00132     0.40595
      H   23    0.09866      0.00000     0.39986    0.00148     0.40134
      H   24    0.22847      0.00000     0.26649    0.00504     0.27153
 =======================================================================
   * Total *    0.00000     14.99428    37.81596    0.18976    53.00000

 Normal termination of Gaussian 16 at Thu Dec 10 16:56:45 2020.
