 Gaussian 16, Revision A.03,

 -----------------------------------------------------------
 # opt freq B3LYP/6-31G(d) empiricaldispersion=gd3bj scf=xqc
 -----------------------------------------------------------

 ------------------------------
 CID_151396998_JID_764_neutraal
 ------------------------------
 Symbolic Z-matrix:
 Charge =  0 Multiplicity = 1

 SCF Done:  E(RB3LYP) =  -488.319240695     A.U. after   16 cycles
 SCF Done:  E(RB3LYP) =  -488.322035755     A.U. after   15 cycles
 SCF Done:  E(RB3LYP) =  -488.323588550     A.U. after   14 cycles
 SCF Done:  E(RB3LYP) =  -488.323953255     A.U. after   13 cycles
 SCF Done:  E(RB3LYP) =  -488.324019013     A.U. after   13 cycles
 SCF Done:  E(RB3LYP) =  -488.324063096     A.U. after   11 cycles
 SCF Done:  E(RB3LYP) =  -488.324067237     A.U. after   10 cycles
 SCF Done:  E(RB3LYP) =  -488.324068430     A.U. after    9 cycles
 Optimization completed.
    -- Stationary point found.
 Normal termination of Gaussian 16 at Tue Dec  8 12:32:58 2020.

 --------------------------------------------------------------------
 #N Geom=AllCheck Guess=TCheck SCRF=Check GenChk RB3LYP/6-31G(d) Freq
 --------------------------------------------------------------------

 Structure from the checkpoint file:  "JID_764.chk"
 ------------------------------
 CID_151396998_JID_764_neutraal
 ------------------------------
 Charge =  0 Multiplicity = 1

 SCF Done:  E(RB3LYP) =  -488.324068430     A.U. after    1 cycles

  Exact polarizability: 101.562   1.215  66.692  -2.552  -4.512  60.045
 Approx polarizability: 159.935   4.242  99.555 -10.511 -23.140 125.532

                      1                      2                      3
                      A                      A                      A
 Frequencies --     58.6896                64.5949               146.8489
 Red. masses --      6.3207                 8.4832                 9.0424
 Frc consts  --      0.0128                 0.0209                 0.1149
 IR Inten    --      0.4623                 3.1836                 2.2786

                      4                      5                      6
                      A                      A                      A
 Frequencies --    232.2536               274.6793               337.3229
 Red. masses --      2.9239                 4.1318                 5.8127
 Frc consts  --      0.0929                 0.1837                 0.3897
 IR Inten    --      6.8151                 6.6727                 6.0717

                      7                      8                      9
                      A                      A                      A
 Frequencies --    399.1117               436.3311               484.2245
 Red. masses --      8.2336                 4.0189                 2.8427
 Frc consts  --      0.7727                 0.4508                 0.3927
 IR Inten    --      3.7753                 5.5931                 3.8188

                     10                     11                     12
                      A                      A                      A
 Frequencies --    559.0175               575.7144               609.5491
 Red. masses --      2.0849                 6.5926                 3.1372
 Frc consts  --      0.3839                 1.2874                 0.6868
 IR Inten    --     58.6826                15.3667                33.7629

                     13                     14                     15
                      A                      A                      A
 Frequencies --    671.8361               732.8720               764.2739
 Red. masses --      2.4517                 3.2709                 5.4965
 Frc consts  --      0.6520                 1.0351                 1.8916
 IR Inten    --     19.9355                16.7980                 4.1305

                     16                     17                     18
                      A                      A                      A
 Frequencies --    815.1378               845.0022               951.5340
 Red. masses --      4.1356                 2.4049                 2.8684
 Frc consts  --      1.6190                 1.0117                 1.5302
 IR Inten    --     15.7317                43.9780                 9.2864

                     19                     20                     21
                      A                      A                      A
 Frequencies --    979.3964              1007.8600              1050.1178
 Red. masses --      3.8653                 1.2363                 2.3354
 Frc consts  --      2.1845                 0.7399                 1.5173
 IR Inten    --     27.6800                 1.4812                22.2217

                     22                     23                     24
                      A                      A                      A
 Frequencies --   1088.8645              1137.9980              1189.4905
 Red. masses --      2.2248                 2.0153                 1.2191
 Frc consts  --      1.5541                 1.5377                 1.0163
 IR Inten    --      8.7420                18.1026                 9.8192

                     25                     26                     27
                      A                      A                      A
 Frequencies --   1273.0501              1286.7496              1310.9898
 Red. masses --      1.3549                 2.6080                 1.8343
 Frc consts  --      1.2937                 2.5442                 1.8574
 IR Inten    --      4.8076               103.2893                45.2141

                     28                     29                     30
                      A                      A                      A
 Frequencies --   1364.3104              1375.9860              1403.6422
 Red. masses --      1.7838                 1.4978                 1.4592
 Frc consts  --      1.9563                 1.6708                 1.6939
 IR Inten    --     34.2567                36.7225                13.3300

                     31                     32                     33
                      A                      A                      A
 Frequencies --   1419.7650              1486.6803              1538.6065
 Red. masses --      1.9410                 1.8300                 1.1071
 Frc consts  --      2.3052                 2.3831                 1.5441
 IR Inten    --     25.0036                35.1585                 8.5065

                     34                     35                     36
                      A                      A                      A
 Frequencies --   1701.4134              1800.6862              2255.9421
 Red. masses --      7.5637                 8.4047                13.9031
 Frc consts  --     12.9004                16.0565                41.6885
 IR Inten    --     13.0681               341.1496               438.9679

                     37                     38                     39
                      A                      A                      A
 Frequencies --   2998.7213              3077.5673              3124.8289
 Red. masses --      1.0723                 1.0839                 1.0928
 Frc consts  --      5.6813                 6.0487                 6.2871
 IR Inten    --     39.3481                13.6734                19.9965

                     40                     41                     42
                      A                      A                      A
 Frequencies --   3187.5913              3230.6040              3597.7228
 Red. masses --      1.0894                 1.0956                 1.0766
 Frc consts  --      6.5217                 6.7368                 8.2101
 IR Inten    --      4.7389                 3.1967                26.7198

 - Thermochemistry -
 -------------------
 Temperature   298.150 Kelvin.  Pressure   1.00000 Atm.
 Atom     1 has atomic number  6 and mass  12.00000

 Molecular mass:   138.05416 amu.
 Principal axes and moments of inertia in atomic units:
                           1         2         3
     Eigenvalues --   544.315882230.643502383.80494
           X            0.99999   0.00070   0.00371
           Y           -0.00088   0.99881   0.04881
           Z           -0.00367  -0.04881   0.99880
 This molecule is an asymmetric top.
 Rotational symmetry number  1.
 Warning -- assumption of classical behavior for rotation
           may cause significant error
 Rotational temperatures (Kelvin)      0.15912     0.03883     0.03633
 Rotational constants (GHZ):           3.31561     0.80907     0.75708
 Zero-point vibrational energy     316098.7 (Joules/Mol)
                                   75.54941 (Kcal/Mol)
 Warning -- explicit consideration of  12 degrees of freedom as
           vibrations may cause significant error
 Vibrational temperatures:     84.44    92.94   211.28   334.16   395.20
          (Kelvin)            485.33   574.23   627.78   696.69   804.30
                              828.32   877.01   966.62  1054.44  1099.62
                             1172.80  1215.77  1369.05  1409.13  1450.09
                             1510.89  1566.63  1637.33  1711.41  1831.64
                             1851.35  1886.22  1962.94  1979.74  2019.53
                             2042.73  2139.00  2213.71  2447.95  2590.79
                             3245.80  4314.49  4427.93  4495.93  4586.23
                             4648.12  5176.32

 Zero-point correction=                           0.120396 (Hartree/Particle)
 Thermal correction to Energy=                    0.128922
 Thermal correction to Enthalpy=                  0.129866
 Thermal correction to Gibbs Free Energy=         0.086051
 Sum of electronic and zero-point Energies=           -488.203673
 Sum of electronic and thermal Energies=              -488.195146
 Sum of electronic and thermal Enthalpies=            -488.194202
 Sum of electronic and thermal Free Energies=         -488.238017

                     E (Thermal)             CV                S
                      KCal/Mol        Cal/Mol-Kelvin    Cal/Mol-Kelvin
 Total                   80.900             31.244             92.216
 Electronic               0.000              0.000              0.000
 Translational            0.889              2.981             40.679
 Rotational               0.889              2.981             29.450
 Vibrational             79.122             25.282             22.087
 Vibration     1          0.596              1.974              4.501
 Vibration     2          0.597              1.971              4.312
 Vibration     3          0.617              1.906              2.713
 Vibration     4          0.653              1.792              1.861
 Vibration     5          0.677              1.720              1.567
 Vibration     6          0.718              1.601              1.225
 Vibration     7          0.765              1.472              0.966
 Vibration     8          0.797              1.391              0.838
 Vibration     9          0.840              1.285              0.699
 Vibration    10          0.915              1.120              0.526
 Vibration    11          0.932              1.084              0.493
 Vibration    12          0.969              1.012              0.434

                           ! Non-Optimized Parameters !
 Normal termination of Gaussian 16 at Tue Dec  8 12:42:14 2020.

 ----------------------------------------------------------------------
 # B3LYP/6-311++G(d,p) empiricaldispersion=gd3bj scf=xqc pop=npa geom=c
 heck
 ----------------------------------------------------------------------

 --------------------------------------
 CID_151396998_JID_764_Energie_neutraal
 --------------------------------------
 Structure from the checkpoint file:  "JID_764.chk"
 Charge =  0 Multiplicity = 1

 SCF Done:  E(RB3LYP) =  -488.465873370     A.U. after   16 cycles
 Normal termination of Gaussian 16 at Tue Dec  8 12:48:44 2020.

 ----------------------------------------------------------------------
 # B3LYP/6-311++G(d,p) empiricaldispersion=gd3bj scf=xqc pop=npa geom=c
 heck
 ----------------------------------------------------------------------

 ------------------------------------
 CID_151396998_JID_764_Energie_kation
 ------------------------------------
 Structure from the checkpoint file:  "JID_764.chk"
 Charge =  1 Multiplicity = 2

 SCF Done:  E(UB3LYP) =  -488.122159080     A.U. after   29 cycles
 Normal termination of Gaussian 16 at Tue Dec  8 13:04:42 2020.
 Gaussian 16:  ES64L-G16RevA.03 25-Dec-2016

 ----------------------------------------------------------------------
 # B3LYP/6-311++G(d,p) empiricaldispersion=gd3bj scf=xqc pop=npa geom=c
 heck
 ----------------------------------------------------------------------

 -----------------------------------
 CID_151396998_JID_764_Energie_anion
 -----------------------------------
 Structure from the checkpoint file:  "JID_764.chk"
 Charge = -1 Multiplicity = 2

                         Standard orientation:
 ---------------------------------------------------------------------
 Center     Atomic      Atomic             Coordinates (Angstroms)
 Number     Number       Type             X           Y           Z
 ---------------------------------------------------------------------
      1          6           0        0.045604    1.282064    0.086781
      2          6           0       -0.604347    0.275363   -0.872795
      3          6           0       -0.045812   -1.107317   -0.633087
      4          6           0        1.177404   -1.279727   -0.120937
      5          6           0        2.073994   -0.133307    0.197132
      6          8           0        3.250748   -0.282930    0.497290
      7          7           0        1.491408    1.109699    0.068060
      8          7           0       -2.082179    0.330704   -0.774402
      9          7           0       -2.558367   -0.085649    0.291553
     10          7           0       -3.127519   -0.442427    1.214190
     11          1           0       -0.368416    1.124128    1.095979
     12          1           0       -0.200922    2.301043   -0.220587
     13          1           0       -0.397340    0.574166   -1.906406
     14          1           0       -0.663851   -1.952571   -0.927407
     15          1           0        1.611125   -2.261559    0.034954
     16          1           0        2.068948    1.869488    0.406775
 ---------------------------------------------------------------------

 SCF Done:  E(UB3LYP) =  -488.470072225     A.U. after   33 cycles
 SCF Done:  E(UB3LYP) =  -488.470072225     a.u. after    1 cycles

 The electronic state is 2-A.
 Alpha  occ. eigenvalues --  -18.93739 -14.33790 -14.23719 -14.22068 -14.19293
 Alpha  occ. eigenvalues --  -10.11621 -10.09246 -10.08386 -10.02780 -10.02006
 Alpha  occ. eigenvalues --   -1.00089  -0.89063  -0.84389  -0.78961  -0.66913
 Alpha  occ. eigenvalues --   -0.61717  -0.53418  -0.48690  -0.43581  -0.39999
 Alpha  occ. eigenvalues --   -0.37821  -0.36367  -0.34951  -0.32722  -0.32491
 Alpha  occ. eigenvalues --   -0.31650  -0.29336  -0.27550  -0.26497  -0.25155
 Alpha  occ. eigenvalues --   -0.22087  -0.17150  -0.13828  -0.12971  -0.11661
 Alpha  occ. eigenvalues --   -0.11089   0.05213
 Alpha virt. eigenvalues --    0.08187   0.08842   0.10449   0.10922   0.11835
 Alpha virt. eigenvalues --    0.12413   0.13016   0.14385   0.16386   0.17287
 Alpha virt. eigenvalues --    0.18017   0.18219   0.18903   0.20068   0.20532

  Beta  occ. eigenvalues --  -18.93535 -14.33651 -14.23472 -14.22065 -14.19231
  Beta  occ. eigenvalues --  -10.11499 -10.09254 -10.08353 -10.02425 -10.01862
  Beta  occ. eigenvalues --   -0.99755  -0.88724  -0.84163  -0.78791  -0.66498
  Beta  occ. eigenvalues --   -0.61353  -0.53244  -0.48054  -0.43320  -0.39581
  Beta  occ. eigenvalues --   -0.37574  -0.35924  -0.34733  -0.32414  -0.32157
  Beta  occ. eigenvalues --   -0.31189  -0.29158  -0.27132  -0.26114  -0.24423
  Beta  occ. eigenvalues --   -0.21874  -0.16638  -0.12753  -0.12219  -0.11134
  Beta  occ. eigenvalues --   -0.10710
  Beta virt. eigenvalues --    0.08699   0.09859   0.10588   0.10959   0.11569
  Beta virt. eigenvalues --    0.12005   0.12463   0.13247   0.14519   0.16425
  Beta virt. eigenvalues --    0.17322   0.17984   0.18371   0.19217   0.20051

 Mulliken charges and spin densities:
               1          2
     1  C    0.873822  -1.311644
     2  C   -0.606437   0.425761
     3  C   -0.121979   0.365110
     4  C   -0.133139   0.045695
     5  C   -0.191763   0.120499
     6  O   -0.433218   0.063810
     7  N   -0.308156   0.102536
     8  N   -0.629068   0.374152
     9  N    0.632937  -0.079394
    10  N   -0.059043  -0.192922
    11  H    0.077497   0.073751
    12  H   -0.311880   0.458581
    13  H   -0.189776   0.422055
    14  H    0.079316   0.044209
    15  H    0.145556  -0.008293
    16  H    0.175330   0.096094
 Sum of Mulliken charges =  -1.00000   1.00000

 Dipole moment (field-independent basis, Debye):
    X=             -1.1288    Y=             -0.2371    Z=              0.1008  Tot=              1.1579
 Quadrupole moment (field-independent basis, Debye-Ang):
   XX=           -108.0406   YY=            -71.9418   ZZ=            -73.8435
   XY=              4.3826   XZ=             -0.6740   YZ=              5.2113

 Summary of Natural Population Analysis:

                                       Natural Population
                Natural  -----------------------------------------------
    Atom  No    Charge         Core      Valence    Rydberg      Total
 -----------------------------------------------------------------------
      C    1   -0.08390      0.99960     2.07239    0.01191     3.08390
      C    2   -0.03634      0.99954     2.02173    0.01507     3.03634
      C    3   -0.01897      0.99953     2.00790    0.01154     3.01897
      C    4   -0.12788      0.99949     2.11875    0.00965     3.12788
      C    5    0.34236      0.99965     1.63537    0.02262     2.65764
      O    6   -0.31442      0.99988     3.30844    0.00610     4.31442
      N    7   -0.32625      0.99968     2.81624    0.01034     3.82625
      N    8   -0.18984      0.99970     2.67534    0.01479     3.68984
      N    9    0.12608      0.99970     2.35792    0.01630     3.37392
      N   10   -0.03685      0.99981     2.52275    0.01429     3.53685
      H   11    0.08393      0.00000     0.41470    0.00137     0.41607
      H   12    0.09920      0.00000     0.39829    0.00251     0.40080
      H   13    0.10818      0.00000     0.38917    0.00265     0.39182
      H   14    0.09115      0.00000     0.40771    0.00114     0.40885
      H   15    0.09729      0.00000     0.40136    0.00135     0.40271
      H   16    0.18626      0.00000     0.31080    0.00294     0.31374
 =======================================================================
   * Total *    0.00000      9.99658    25.85886    0.14456    36.00000

 Normal termination of Gaussian 16 at Tue Dec  8 13:11:22 2020.
