 Gaussian 16, Revision A.03,

 -----------------------------------------------------------
 # opt freq B3LYP/6-31G(d) empiricaldispersion=gd3bj scf=xqc
 -----------------------------------------------------------

 ------------------------------
 CID_61307703_JID_6043_neutraal
 ------------------------------
 Symbolic Z-matrix:
 Charge =  0 Multiplicity = 1

 SCF Done:  E(RB3LYP) =  -653.834070728     A.U. after   15 cycles
 SCF Done:  E(RB3LYP) =  -653.838912800     A.U. after   13 cycles
 SCF Done:  E(RB3LYP) =  -653.840168874     A.U. after   12 cycles
 SCF Done:  E(RB3LYP) =  -653.841361481     A.U. after   12 cycles
 SCF Done:  E(RB3LYP) =  -653.842174079     A.U. after   13 cycles
 SCF Done:  E(RB3LYP) =  -653.842632463     A.U. after   13 cycles
 SCF Done:  E(RB3LYP) =  -653.842791027     A.U. after   12 cycles
 SCF Done:  E(RB3LYP) =  -653.843000166     A.U. after   12 cycles
 SCF Done:  E(RB3LYP) =  -653.843075926     A.U. after   11 cycles
 SCF Done:  E(RB3LYP) =  -653.843095510     A.U. after   10 cycles
 SCF Done:  E(RB3LYP) =  -653.843099157     A.U. after   10 cycles
 SCF Done:  E(RB3LYP) =  -653.843099198     A.U. after    8 cycles
 SCF Done:  E(RB3LYP) =  -653.843099214     A.U. after    7 cycles
 Optimization completed.
    -- Stationary point found.
 Normal termination of Gaussian 16 at Thu Dec 10 21:09:52 2020.

 --------------------------------------------------------------------
 #N Geom=AllCheck Guess=TCheck SCRF=Check GenChk RB3LYP/6-31G(d) Freq
 --------------------------------------------------------------------

 Structure from the checkpoint file:  "JID_6043.chk"
 ------------------------------
 CID_61307703_JID_6043_neutraal
 ------------------------------
 Charge =  0 Multiplicity = 1

 SCF Done:  E(RB3LYP) =  -653.843099214     A.U. after    1 cycles

  Exact polarizability: 151.520  26.418 158.800   8.206  -3.214 132.802
 Approx polarizability: 197.353  54.617 234.198  18.885  -7.084 226.935

                      1                      2                      3
                      A                      A                      A
 Frequencies --     24.7607                30.9931                44.2940
 Red. masses --      3.7575                 4.1994                 2.9392
 Frc consts  --      0.0014                 0.0024                 0.0034
 IR Inten    --      0.3464                 0.0584                 0.2172

                      4                      5                      6
                      A                      A                      A
 Frequencies --     56.4126                72.0803               104.7011
 Red. masses --      4.9343                 3.9001                 3.9126
 Frc consts  --      0.0093                 0.0119                 0.0253
 IR Inten    --      1.8698                 0.1919                 2.4045

                      7                      8                      9
                      A                      A                      A
 Frequencies --    135.7969               154.6141               211.3700
 Red. masses --      3.4660                 4.3743                 2.5299
 Frc consts  --      0.0377                 0.0616                 0.0666
 IR Inten    --      5.3677                 1.2014                 0.1936

                     10                     11                     12
                      A                      A                      A
 Frequencies --    212.7951               234.2254               256.7097
 Red. masses --      3.0691                 1.4531                 2.8887
 Frc consts  --      0.0819                 0.0470                 0.1122
 IR Inten    --      0.4968                 1.4073                 4.2902

                     13                     14                     15
                      A                      A                      A
 Frequencies --    271.6472               310.8281               342.0335
 Red. masses --      3.0070                 3.8638                 2.9911
 Frc consts  --      0.1307                 0.2199                 0.2062
 IR Inten    --      0.7056                 0.9347                 0.5150

                     16                     17                     18
                      A                      A                      A
 Frequencies --    403.6417               416.7669               424.2580
 Red. masses --      2.6527                 2.9985                 4.5682
 Frc consts  --      0.2546                 0.3069                 0.4845
 IR Inten    --      0.1115                 0.0406                 2.4850

                     19                     20                     21
                      A                      A                      A
 Frequencies --    478.6184               523.6534               555.9253
 Red. masses --      3.8908                 3.5852                 3.3163
 Frc consts  --      0.5251                 0.5792                 0.6039
 IR Inten    --      0.4063                 3.1680                 8.3558

                     22                     23                     24
                      A                      A                      A
 Frequencies --    618.0379               631.3355               639.0963
 Red. masses --      4.6319                 4.3476                 5.9733
 Frc consts  --      1.0424                 1.0210                 1.4375
 IR Inten    --      5.8069                 1.7559                 0.4817

                     25                     26                     27
                      A                      A                      A
 Frequencies --    714.0041               768.8332               778.3013
 Red. masses --      1.7964                 1.6460                 1.6662
 Frc consts  --      0.5396                 0.5732                 0.5947
 IR Inten    --     24.7795                35.1903                58.5330

                     28                     29                     30
                      A                      A                      A
 Frequencies --    790.0523               803.2701               824.2024
 Red. masses --      1.1676                 2.9747                 1.8794
 Frc consts  --      0.4294                 1.1309                 0.7522
 IR Inten    --      3.0964                 0.5202                 4.5554

                     31                     32                     33
                      A                      A                      A
 Frequencies --    845.1000               855.9717               901.3804
 Red. masses --      1.4354                 1.2527                 2.1350
 Frc consts  --      0.6040                 0.5408                 1.0220
 IR Inten    --     10.7054                 0.1807                11.5582

                     34                     35                     36
                      A                      A                      A
 Frequencies --    922.8285               927.2442               955.4884
 Red. masses --      1.5075                 1.8482                 2.2365
 Frc consts  --      0.7564                 0.9363                 1.2030
 IR Inten    --      3.1504                 1.7143                10.5186

                     37                     38                     39
                      A                      A                      A
 Frequencies --    962.3157               971.4817               992.9686
 Red. masses --      1.3749                 2.2604                 1.2539
 Frc consts  --      0.7501                 1.2569                 0.7284
 IR Inten    --      1.0058                23.7459                 0.2876

                     40                     41                     42
                      A                      A                      A
 Frequencies --   1014.4597              1022.3930              1043.3520
 Red. masses --      2.3680                 5.9881                 2.1285
 Frc consts  --      1.4358                 3.6879                 1.3652
 IR Inten    --      7.5262                 0.9575                 1.9684

                     43                     44                     45
                      A                      A                      A
 Frequencies --   1064.3589              1065.2674              1074.1071
 Red. masses --      1.9525                 1.4772                 2.0899
 Frc consts  --      1.3032                 0.9877                 1.4206
 IR Inten    --      1.4198                 6.5463                 3.9079

                     46                     47                     48
                      A                      A                      A
 Frequencies --   1087.9926              1111.7777              1128.7095
 Red. masses --      1.4007                 2.0077                 1.8861
 Frc consts  --      0.9769                 1.4621                 1.4157
 IR Inten    --      1.5603                 7.7279                 9.8222

                     49                     50                     51
                      A                      A                      A
 Frequencies --   1144.0457              1161.3741              1171.6108
 Red. masses --      1.2067                 3.0735                 2.2039
 Frc consts  --      0.9305                 2.4425                 1.7824
 IR Inten    --     18.9653                58.4864                 1.9194

                     52                     53                     54
                      A                      A                      A
 Frequencies --   1194.2894              1199.3818              1212.4348
 Red. masses --      1.0967                 1.7838                 1.4045
 Frc consts  --      0.9216                 1.5118                 1.2164
 IR Inten    --      0.0706                 2.5930                 0.3473

                     55                     56                     57
                      A                      A                      A
 Frequencies --   1218.3038              1233.2449              1238.6149
 Red. masses --      1.1331                 1.7409                 1.9217
 Frc consts  --      0.9909                 1.5600                 1.7371
 IR Inten    --      0.0797                 0.4350                 1.3242

                     58                     59                     60
                      A                      A                      A
 Frequencies --   1267.7079              1298.8543              1332.3968
 Red. masses --      1.5614                 1.3806                 1.6831
 Frc consts  --      1.4785                 1.3723                 1.7605
 IR Inten    --      2.2705                 1.5873                 3.3699

                     61                     62                     63
                      A                      A                      A
 Frequencies --   1344.8230              1369.0747              1371.8411
 Red. masses --      1.3482                 2.4432                 1.3388
 Frc consts  --      1.4366                 2.6981                 1.4845
 IR Inten    --      4.3404                 0.2823                 0.0504

                     64                     65                     66
                      A                      A                      A
 Frequencies --   1387.1634              1400.6348              1442.5063
 Red. masses --      1.3219                 1.4290                 1.2180
 Frc consts  --      1.4987                 1.6517                 1.4932
 IR Inten    --      9.3334                 1.2157                 3.6857

                     67                     68                     69
                      A                      A                      A
 Frequencies --   1453.5512              1494.9412              1505.7560
 Red. masses --      1.5376                 1.0898                 2.1729
 Frc consts  --      1.9140                 1.4349                 2.9027
 IR Inten    --      4.3995                 1.1323                 6.7106

                     70                     71                     72
                      A                      A                      A
 Frequencies --   1512.4929              1527.0933              1530.7248
 Red. masses --      1.2370                 1.0635                 1.0530
 Frc consts  --      1.6673                 1.4612                 1.4537
 IR Inten    --     54.1010                 1.5224                 7.7596

                     73                     74                     75
                      A                      A                      A
 Frequencies --   1535.3124              1544.7912              1550.8531
 Red. masses --      1.3199                 1.1337                 2.1673
 Frc consts  --      1.8331                 1.5940                 3.0712
 IR Inten    --      2.5346                 3.4910                10.1096

                     76                     77                     78
                      A                      A                      A
 Frequencies --   1649.2029              1669.3748              2343.8325
 Red. masses --      5.4962                 5.6271                12.6453
 Frc consts  --      8.8076                 9.2394                40.9292
 IR Inten    --      1.3172                 4.4822                 4.7794

                     79                     80                     81
                      A                      A                      A
 Frequencies --   2961.1975              3035.5421              3052.2445
 Red. masses --      1.0713                 1.0830                 1.0896
 Frc consts  --      5.5349                 5.8795                 5.9810
 IR Inten    --     45.2586                 7.4817                24.3612

                     82                     83                     84
                      A                      A                      A
 Frequencies --   3056.9372              3060.7421              3127.5146
 Red. masses --      1.0711                 1.0477                 1.1010
 Frc consts  --      5.8974                 5.7829                 6.3453
 IR Inten    --     13.5798                27.7733                21.9002

                     85                     86                     87
                      A                      A                      A
 Frequencies --   3140.2647              3141.8398              3149.6951
 Red. masses --      1.1034                 1.0530                 1.0568
 Frc consts  --      6.4111                 6.1241                 6.1770
 IR Inten    --     21.2034                15.3816                15.0115

                     88                     89                     90
                      A                      A                      A
 Frequencies --   3167.8399              3175.5433              3177.8066
 Red. masses --      1.0899                 1.0855                 1.0874
 Frc consts  --      6.4443                 6.4496                 6.4698
 IR Inten    --      9.3571                12.1298                 4.7843

                     91                     92                     93
                      A                      A                      A
 Frequencies --   3189.7270              3198.7257              3210.8094
 Red. masses --      1.0896                 1.0939                 1.0980
 Frc consts  --      6.5316                 6.5942                 6.6690
 IR Inten    --      8.5840                40.1540                21.7489

                     94                     95                     96
                      A                      A                      A
 Frequencies --   3219.1216              3233.6442              3490.3699
 Red. masses --      1.1188                 1.1158                 1.0737
 Frc consts  --      6.8310                 6.8739                 7.7070
 IR Inten    --      1.1821                23.3821                 1.1307

 - Thermochemistry -
 -------------------
 Temperature   298.150 Kelvin.  Pressure   1.00000 Atm.
 Atom     1 has atomic number  6 and mass  12.00000

 Molecular mass:   214.14700 amu.
 Principal axes and moments of inertia in atomic units:
                           1         2         3
     Eigenvalues --  2684.405705467.145567259.94496
           X            0.99945  -0.03311   0.00108
           Y            0.03312   0.99945  -0.00353
           Z           -0.00096   0.00357   0.99999
 This molecule is an asymmetric top.
 Rotational symmetry number  1.
 Warning -- assumption of classical behavior for rotation
           may cause significant error
 Rotational temperatures (Kelvin)      0.03227     0.01584     0.01193
 Rotational constants (GHZ):           0.67231     0.33011     0.24859
 Zero-point vibrational energy     770851.2 (Joules/Mol)
                                  184.23785 (Kcal/Mol)
 Warning -- explicit consideration of  22 degrees of freedom as
           vibrations may cause significant error
 Vibrational temperatures:     35.63    44.59    63.73    81.17   103.71
          (Kelvin)            150.64   195.38   222.46   304.11   306.16
                              337.00   369.35   390.84   447.21   492.11
                              580.75   599.63   610.41   688.63   753.42
                              799.85   889.22   908.35   919.52  1027.29
                             1106.18  1119.80  1136.71  1155.73  1185.84
                             1215.91  1231.55  1296.89  1327.74  1334.10
                             1374.73  1384.56  1397.75  1428.66  1459.58
                             1471.00  1501.15  1531.38  1532.68  1545.40
                             1565.38  1599.60  1623.96  1646.03  1670.96
                             1685.69  1718.32  1725.64  1744.42  1752.87
                             1774.36  1782.09  1823.95  1868.76  1917.02
                             1934.90  1969.79  1973.77  1995.82  2015.20
                             2075.44  2091.34  2150.89  2166.45  2176.14
                             2197.15  2202.37  2208.97  2222.61  2231.33
                             2372.84  2401.86  3372.25  4260.50  4367.47
                             4391.50  4398.25  4403.73  4499.80  4518.14
                             4520.41  4531.71  4557.82  4568.90  4572.15
                             4589.31  4602.25  4619.64  4631.60  4652.49
                             5021.86

 Zero-point correction=                           0.293602 (Hartree/Particle)
 Thermal correction to Energy=                    0.309439
 Thermal correction to Enthalpy=                  0.310383
 Thermal correction to Gibbs Free Energy=         0.248176
 Sum of electronic and zero-point Energies=           -653.549498
 Sum of electronic and thermal Energies=              -653.533660
 Sum of electronic and thermal Enthalpies=            -653.532716
 Sum of electronic and thermal Free Energies=         -653.594924

                     E (Thermal)             CV                S
                      KCal/Mol        Cal/Mol-Kelvin    Cal/Mol-Kelvin
 Total                  194.176             59.450            130.926
 Electronic               0.000              0.000              0.000
 Translational            0.889              2.981             41.988
 Rotational               0.889              2.981             33.032
 Vibrational            192.398             53.488             55.906
 Vibration     1          0.593              1.985              6.210
 Vibration     2          0.594              1.984              5.765
 Vibration     3          0.595              1.980              5.057
 Vibration     4          0.596              1.975              4.579
 Vibration     5          0.598              1.967              4.096
 Vibration     6          0.605              1.945              3.365
 Vibration     7          0.614              1.918              2.862
 Vibration     8          0.620              1.898              2.615
 Vibration     9          0.643              1.824              2.032
 Vibration    10          0.644              1.821              2.020
 Vibration    11          0.654              1.788              1.846
 Vibration    12          0.666              1.751              1.684
 Vibration    13          0.675              1.726              1.586
 Vibration    14          0.700              1.653              1.358
 Vibration    15          0.721              1.591              1.203
 Vibration    16          0.769              1.462              0.949
 Vibration    17          0.780              1.434              0.903
 Vibration    18          0.786              1.417              0.878
 Vibration    19          0.835              1.297              0.714
 Vibration    20          0.879              1.198              0.602
 Vibration    21          0.911              1.127              0.532
 Vibration    22          0.978              0.994              0.420

 Optimization completed.
    -- Stationary point found.
 Normal termination of Gaussian 16 at Thu Dec 10 21:20:51 2020.

 ----------------------------------------------------------------------
 # B3LYP/6-311++G(d,p) empiricaldispersion=gd3bj scf=xqc pop=npa geom=c
 heck
 ----------------------------------------------------------------------

 --------------------------------------
 CID_61307703_JID_6043_Energie_neutraal
 --------------------------------------
 Structure from the checkpoint file:  "JID_6043.chk"
 Charge =  0 Multiplicity = 1

 SCF Done:  E(RB3LYP) =  -654.020998689     A.U. after   15 cycles
 Normal termination of Gaussian 16 at Thu Dec 10 21:26:18 2020.

 ----------------------------------------------------------------------
 # B3LYP/6-311++G(d,p) empiricaldispersion=gd3bj scf=xqc pop=npa geom=c
 heck
 ----------------------------------------------------------------------

 ------------------------------------
 CID_61307703_JID_6043_Energie_kation
 ------------------------------------
 Structure from the checkpoint file:  "JID_6043.chk"
 Charge =  1 Multiplicity = 2

 SCF Done:  E(UB3LYP) =  -653.711371867     A.U. after   25 cycles
 Normal termination of Gaussian 16 at Thu Dec 10 21:40:03 2020.
 Gaussian 16:  ES64L-G16RevA.03 25-Dec-2016

 ----------------------------------------------------------------------
 # B3LYP/6-311++G(d,p) empiricaldispersion=gd3bj scf=xqc pop=npa geom=c
 heck
 ----------------------------------------------------------------------

 -----------------------------------
 CID_61307703_JID_6043_Energie_anion
 -----------------------------------
 Structure from the checkpoint file:  "JID_6043.chk"
 Charge = -1 Multiplicity = 2

                         Standard orientation:
 ---------------------------------------------------------------------
 Center     Atomic      Atomic             Coordinates (Angstroms)
 Number     Number       Type             X           Y           Z
 ---------------------------------------------------------------------
      1          6           0       -1.700357    2.690625    0.183243
      2          6           0       -0.990532    1.364200    0.494562
      3          6           0       -1.879904    0.162738    0.234754
      4          6           0       -2.188132   -0.727978    1.266391
      5          6           0       -3.013889   -1.829500    1.040590
      6          6           0       -3.542712   -2.057401   -0.229445
      7          6           0       -3.241400   -1.174904   -1.268320
      8          6           0       -2.419617   -0.073680   -1.035519
      9          6           0        0.338228    1.223824   -0.295629
     10          6           0        1.204555    2.413846   -0.085042
     11          7           0        1.939858    3.288972    0.122944
     12          7           0        1.020351   -0.011992    0.051355
     13          6           0        2.217263   -0.302638   -0.739748
     14          6           0        2.868024   -1.567195   -0.238479
     15          6           0        4.345329   -1.780973   -0.437764
     16          6           0        3.810061   -1.490835    0.942837
     17          1           0       -1.953343    2.765338   -0.880229
     18          1           0       -1.071918    3.547932    0.442899
     19          1           0       -2.632221    2.758409    0.752107
     20          1           0       -0.723009    1.365104    1.559727
     21          1           0       -1.774149   -0.557738    2.257320
     22          1           0       -3.241379   -2.509630    1.856790
     23          1           0       -4.184903   -2.914808   -0.409549
     24          1           0       -3.649103   -1.342981   -2.261346
     25          1           0       -2.198093    0.606611   -1.854158
     26          1           0        0.100625    1.182450   -1.366489
     27          1           0        1.266102   -0.003540    1.040374
     28          1           0        1.903526   -0.421872   -1.785564
     29          1           0        2.953959    0.520957   -0.717734
     30          1           0        2.230190   -2.446557   -0.292190
     31          1           0        4.692519   -2.786338   -0.656916
     32          1           0        4.909577   -0.997416   -0.936812
     33          1           0        4.015863   -0.509839    1.365347
     34          1           0        3.792790   -2.295719    1.671749
 ---------------------------------------------------------------------

 SCF Done:  E(UB3LYP) =  -654.008008579     A.U. after   33 cycles
 SCF Done:  E(UB3LYP) =  -654.008008579     a.u. after    1 cycles

 The electronic state is 2-A.
 Alpha  occ. eigenvalues --  -14.22764 -14.22555 -10.15673 -10.12285 -10.11345
 Alpha  occ. eigenvalues --  -10.10807 -10.09478 -10.09044 -10.09019 -10.08858
 Alpha  occ. eigenvalues --  -10.08015 -10.07994 -10.07957 -10.07884 -10.07860
 Alpha  occ. eigenvalues --  -10.07846  -0.85176  -0.81681  -0.77857  -0.76701
 Alpha  occ. eigenvalues --   -0.72011  -0.65394  -0.65215  -0.63041  -0.58256
 Alpha  occ. eigenvalues --   -0.54892  -0.52018  -0.51515  -0.49511  -0.48164
 Alpha  occ. eigenvalues --   -0.45758  -0.42081  -0.41917  -0.40479  -0.38415
 Alpha  occ. eigenvalues --   -0.37006  -0.36802  -0.35099  -0.34736  -0.32950
 Alpha  occ. eigenvalues --   -0.32521  -0.31601  -0.30525  -0.29455  -0.28527
 Alpha  occ. eigenvalues --   -0.28504  -0.27716  -0.27249  -0.26384  -0.25244
 Alpha  occ. eigenvalues --   -0.25188  -0.24679  -0.23665  -0.21462  -0.20783
 Alpha  occ. eigenvalues --   -0.16462  -0.16053  -0.15146   0.04137
 Alpha virt. eigenvalues --    0.05962   0.06231   0.06851   0.07476   0.07851
 Alpha virt. eigenvalues --    0.08067   0.08095   0.08274   0.08810   0.09295
 Alpha virt. eigenvalues --    0.10282   0.10444   0.10882   0.11031   0.11391

  Beta  occ. eigenvalues --  -14.22749 -14.22546 -10.15659 -10.12284 -10.11335
  Beta  occ. eigenvalues --  -10.10797 -10.09471 -10.09032 -10.09018 -10.08839
  Beta  occ. eigenvalues --  -10.08001 -10.07975 -10.07938 -10.07872 -10.07834
  Beta  occ. eigenvalues --  -10.07825  -0.85156  -0.81658  -0.77836  -0.76670
  Beta  occ. eigenvalues --   -0.71983  -0.65359  -0.65167  -0.63009  -0.58216
  Beta  occ. eigenvalues --   -0.54846  -0.51970  -0.51463  -0.49473  -0.48122
  Beta  occ. eigenvalues --   -0.45729  -0.42021  -0.41884  -0.40449  -0.38374
  Beta  occ. eigenvalues --   -0.36973  -0.36760  -0.35063  -0.34699  -0.32913
  Beta  occ. eigenvalues --   -0.32484  -0.31567  -0.30500  -0.29426  -0.28500
  Beta  occ. eigenvalues --   -0.28480  -0.27673  -0.27210  -0.26357  -0.25206
  Beta  occ. eigenvalues --   -0.25171  -0.24639  -0.23625  -0.21443  -0.20763
  Beta  occ. eigenvalues --   -0.16444  -0.16002  -0.15115
  Beta virt. eigenvalues --    0.06181   0.06691   0.06978   0.07360   0.07622
  Beta virt. eigenvalues --    0.07966   0.08215   0.08387   0.08730   0.09317
  Beta virt. eigenvalues --    0.09712   0.10476   0.10570   0.11062   0.11225

 Mulliken charges and spin densities:
               1          2
     1  C    0.271799  -1.094581
     2  C    1.127064  -0.802303
     3  C    0.552758  -0.060988
     4  C    0.918773  -0.624501
     5  C   -0.418928   0.086832
     6  C    1.240181  -1.592123
     7  C    0.215456  -0.418421
     8  C   -2.600019   2.075958
     9  C    0.060347  -0.152524
    10  C    0.114307  -0.650166
    11  N   -0.281967   0.021637
    12  N    0.147047   0.075927
    13  C    0.295176  -1.003809
    14  C   -0.835875   1.121764
    15  C    0.435394  -0.832447
    16  C    0.104407  -0.525524
    17  H   -0.019873   0.176372
    18  H    0.152374   0.013678
    19  H   -0.000139   0.157217
    20  H   -0.271228   0.492865
    21  H   -0.247203   0.406337
    22  H   -0.601140   0.788349
    23  H   -0.125190   0.270926
    24  H   -0.629815   0.811914
    25  H   -0.418876   0.563216
    26  H   -0.116578   0.296903
    27  H    0.155445   0.061837
    28  H   -0.055356   0.202813
    29  H    0.092551   0.057981
    30  H   -0.055720   0.291964
    31  H   -0.119944   0.268500
    32  H    0.068673   0.057564
    33  H    0.040956   0.108369
    34  H   -0.194860   0.348463
 Sum of Mulliken charges =  -1.00000   1.00000

 Dipole moment (field-independent basis, Debye):
    X=              2.3238    Y=              2.1591    Z=              0.0410  Tot=              3.1723
 Quadrupole moment (field-independent basis, Debye-Ang):
   XX=           -172.7722   YY=           -157.0380   ZZ=           -139.8295
   XY=             -8.7352   XZ=             -6.8465   YZ=              3.6272

 Summary of Natural Population Analysis:

                                       Natural Population
                Natural  -----------------------------------------------
    Atom  No    Charge         Core      Valence    Rydberg      Total
 -----------------------------------------------------------------------
      C    1   -0.28388      0.99964     2.27932    0.00491     3.28388
      C    2   -0.10918      0.99956     2.09719    0.01243     3.10918
      C    3   -0.01157      0.99949     1.99834    0.01374     3.01157
      C    4   -0.09523      0.99950     2.08530    0.01043     3.09523
      C    5   -0.09548      0.99956     2.08550    0.01042     3.09548
      C    6   -0.10239      0.99956     2.09287    0.00996     3.10239
      C    7   -0.09573      0.99956     2.08547    0.01070     3.09573
      C    8   -0.10014      0.99950     2.09053    0.01011     3.10014
      C    9   -0.05411      0.99950     2.04276    0.01185     3.05411
      C   10    0.15304      0.99965     1.82861    0.01870     2.84696
      N   11   -0.18578      0.99979     2.67424    0.01175     3.68578
      N   12   -0.32072      0.99973     2.81064    0.01035     3.82072
      C   13   -0.08714      0.99960     2.07703    0.01052     3.08714
      C   14   -0.11990      0.99959     2.10838    0.01194     3.11990
      C   15   -0.19555      0.99962     2.18937    0.00656     3.19555
      C   16   -0.20137      0.99962     2.19380    0.00794     3.20137
      H   17    0.10022      0.00000     0.39852    0.00126     0.39978
      H   18    0.10455      0.00000     0.39450    0.00094     0.39545
      H   19    0.10575      0.00000     0.39337    0.00087     0.39425
      H   20    0.10078      0.00000     0.39703    0.00219     0.39922
      H   21    0.10000      0.00000     0.39797    0.00203     0.40000
      H   22    0.10189      0.00000     0.39669    0.00142     0.39811
      H   23    0.10132      0.00000     0.39746    0.00121     0.39868
      H   24    0.10225      0.00000     0.39616    0.00159     0.39775
      H   25    0.10039      0.00000     0.39728    0.00233     0.39961
      H   26    0.11522      0.00000     0.38191    0.00287     0.38478
      H   27    0.17407      0.00000     0.32194    0.00399     0.32593
      H   28    0.09651      0.00000     0.40217    0.00132     0.40349
      H   29    0.08285      0.00000     0.41484    0.00231     0.41715
      H   30    0.10969      0.00000     0.38908    0.00123     0.39031
      H   31    0.10323      0.00000     0.39575    0.00102     0.39677
      H   32    0.10019      0.00000     0.39884    0.00097     0.39981
      H   33    0.10088      0.00000     0.39803    0.00109     0.39912
      H   34    0.10534      0.00000     0.39346    0.00120     0.39466
 =======================================================================
   * Total *    0.00000     15.99347    41.80435    0.20219    58.00000

 Normal termination of Gaussian 16 at Thu Dec 10 21:56:57 2020.
