 Gaussian 16, Revision A.03,

 -----------------------------------------------------------
 # opt freq B3LYP/6-31G(d) empiricaldispersion=gd3bj scf=xqc
 -----------------------------------------------------------

 ------------------------------
 CID_64513379_JID_4220_neutraal
 ------------------------------
 Symbolic Z-matrix:
 Charge =  0 Multiplicity = 1

 SCF Done:  E(RB3LYP) =  -614.784744156     A.U. after   14 cycles
 SCF Done:  E(RB3LYP) =  -614.789728323     A.U. after   12 cycles
 SCF Done:  E(RB3LYP) =  -614.790076899     A.U. after   11 cycles
 SCF Done:  E(RB3LYP) =  -614.790169738     A.U. after   10 cycles
 SCF Done:  E(RB3LYP) =  -614.790225883     A.U. after    9 cycles
 SCF Done:  E(RB3LYP) =  -614.790237262     A.U. after    9 cycles
 SCF Done:  E(RB3LYP) =  -614.790240285     A.U. after    9 cycles
 SCF Done:  E(RB3LYP) =  -614.790241186     A.U. after    7 cycles
 SCF Done:  E(RB3LYP) =  -614.790241440     A.U. after    7 cycles
 Optimization completed.
    -- Stationary point found.
 Normal termination of Gaussian 16 at Thu Dec 10 09:18:21 2020.

 --------------------------------------------------------------------
 #N Geom=AllCheck Guess=TCheck SCRF=Check GenChk RB3LYP/6-31G(d) Freq
 --------------------------------------------------------------------

 Structure from the checkpoint file:  "JID_4220.chk"
 ------------------------------
 CID_64513379_JID_4220_neutraal
 ------------------------------
 Charge =  0 Multiplicity = 1

 SCF Done:  E(RB3LYP) =  -614.790241440     A.U. after    1 cycles

  Exact polarizability: 149.219  -3.807 121.692   8.682   7.230 102.578
 Approx polarizability: 187.313  -8.403 183.830  16.796  19.235 162.631

                      1                      2                      3
                      A                      A                      A
 Frequencies --     18.9680                58.8035                76.3402
 Red. masses --      3.0480                 3.2622                 3.3675
 Frc consts  --      0.0006                 0.0066                 0.0116
 IR Inten    --      0.2471                 2.6472                 0.2338

                      4                      5                      6
                      A                      A                      A
 Frequencies --    105.1394               150.6544               161.3266
 Red. masses --      2.1113                 2.7975                 1.2333
 Frc consts  --      0.0138                 0.0374                 0.0189
 IR Inten    --      0.6868                 1.8844                 0.4682

                      7                      8                      9
                      A                      A                      A
 Frequencies --    181.7121               207.8673               219.7234
 Red. masses --      2.3030                 2.5583                 3.1145
 Frc consts  --      0.0448                 0.0651                 0.0886
 IR Inten    --      0.1610                 1.0665                 2.6344

                     10                     11                     12
                      A                      A                      A
 Frequencies --    246.6632               282.7911               333.9363
 Red. masses --      1.2341                 3.4328                 2.6488
 Frc consts  --      0.0442                 0.1617                 0.1740
 IR Inten    --      0.1171                 1.4258                16.7067

                     13                     14                     15
                      A                      A                      A
 Frequencies --    341.4877               373.0680               396.8588
 Red. masses --      2.7163                 2.4332                 1.8314
 Frc consts  --      0.1866                 0.1995                 0.1699
 IR Inten    --      6.3901                13.8204                73.1155

                     16                     17                     18
                      A                      A                      A
 Frequencies --    411.4416               437.6385               463.4988
 Red. masses --      2.3452                 2.1652                 3.1428
 Frc consts  --      0.2339                 0.2443                 0.3978
 IR Inten    --     22.0810                 2.3075                10.7051

                     19                     20                     21
                      A                      A                      A
 Frequencies --    512.0050               637.6458               642.4078
 Red. masses --      2.9566                 3.8181                 3.3969
 Frc consts  --      0.4567                 0.9147                 0.8259
 IR Inten    --      7.6806                 0.2744                 4.6544

                     22                     23                     24
                      A                      A                      A
 Frequencies --    698.7295               722.5705               740.1418
 Red. masses --      4.3083                 1.4438                 2.0424
 Frc consts  --      1.2393                 0.4442                 0.6592
 IR Inten    --     12.1541                25.8656                 0.6303

                     25                     26                     27
                      A                      A                      A
 Frequencies --    746.9102               790.6919               822.2329
 Red. masses --      3.6101                 1.4948                 2.1137
 Frc consts  --      1.1866                 0.5506                 0.8420
 IR Inten    --      3.9670                 3.2868                 6.5075

                     28                     29                     30
                      A                      A                      A
 Frequencies --    839.9756               851.4818               915.1213
 Red. masses --      1.2848                 2.1352                 2.9888
 Frc consts  --      0.5341                 0.9121                 1.4747
 IR Inten    --      5.8354                 3.1247                15.0908

                     31                     32                     33
                      A                      A                      A
 Frequencies --    933.9921               957.3401               967.1121
 Red. masses --      3.6405                 2.3528                 1.9941
 Frc consts  --      1.8711                 1.2705                 1.0989
 IR Inten    --      9.7130                 3.9081                 4.6791

                     34                     35                     36
                      A                      A                      A
 Frequencies --    982.4105              1000.5660              1034.9929
 Red. masses --      2.0224                 2.4452                 1.8834
 Frc consts  --      1.1500                 1.4423                 1.1887
 IR Inten    --      2.2363                34.1408                16.9053

                     37                     38                     39
                      A                      A                      A
 Frequencies --   1062.0096              1066.4591              1077.2408
 Red. masses --      2.3816                 1.8427                 1.7956
 Frc consts  --      1.5826                 1.2348                 1.2277
 IR Inten    --      1.6730                21.5644                 0.4481

                     40                     41                     42
                      A                      A                      A
 Frequencies --   1110.7552              1113.5988              1117.6729
 Red. masses --      1.4181                 1.4539                 1.8146
 Frc consts  --      1.0309                 1.0623                 1.3356
 IR Inten    --     19.4788                 9.1539                 1.7026

                     43                     44                     45
                      A                      A                      A
 Frequencies --   1159.8223              1163.3040              1183.4674
 Red. masses --      2.2644                 1.3458                 2.1046
 Frc consts  --      1.7947                 1.0730                 1.7367
 IR Inten    --      2.9765                 2.6559                11.3048

                     46                     47                     48
                      A                      A                      A
 Frequencies --   1219.2401              1243.5866              1260.8602
 Red. masses --      1.6141                 1.9081                 1.8580
 Frc consts  --      1.4137                 1.7386                 1.7404
 IR Inten    --      5.5118                 3.3630                15.2021

                     49                     50                     51
                      A                      A                      A
 Frequencies --   1266.2761              1300.2640              1319.3493
 Red. masses --      1.5077                 1.3932                 1.3401
 Frc consts  --      1.4244                 1.3878                 1.3744
 IR Inten    --     17.2114                 7.4157                 5.7357

                     52                     53                     54
                      A                      A                      A
 Frequencies --   1320.2262              1334.7153              1346.0304
 Red. masses --      2.5960                 1.2276                 1.2497
 Frc consts  --      2.6659                 1.2885                 1.3340
 IR Inten    --     29.1286                 3.5438                 4.0098

                     55                     56                     57
                      A                      A                      A
 Frequencies --   1361.0279              1384.6723              1386.5555
 Red. masses --      1.4954                 1.4483                 1.6709
 Frc consts  --      1.6321                 1.6361                 1.8927
 IR Inten    --     21.6943                 6.1062                31.0535

                     58                     59                     60
                      A                      A                      A
 Frequencies --   1394.4103              1407.3067              1441.1777
 Red. masses --      4.4523                 1.5867                 1.2508
 Frc consts  --      5.1005                 1.8515                 1.5306
 IR Inten    --      7.8294                 0.7425                 3.2840

                     61                     62                     63
                      A                      A                      A
 Frequencies --   1453.1308              1487.4970              1505.1579
 Red. masses --      1.9184                 2.2704                 1.0915
 Frc consts  --      2.3867                 2.9598                 1.4569
 IR Inten    --     23.5139                 8.2142                 2.5125

                     64                     65                     66
                      A                      A                      A
 Frequencies --   1515.6850              1519.8147              1526.7731
 Red. masses --      1.0961                 1.0740                 1.1237
 Frc consts  --      1.4836                 1.4616                 1.5433
 IR Inten    --      0.7606                 1.9530                 6.1407

                     67                     68                     69
                      A                      A                      A
 Frequencies --   1530.6791              1531.5958              1534.7247
 Red. masses --      1.0777                 2.7645                 1.0992
 Frc consts  --      1.4877                 3.8207                 1.5255
 IR Inten    --      5.9679                28.7791                 2.7061

                     70                     71                     72
                      A                      A                      A
 Frequencies --   1538.3429              1546.4866              1572.1542
 Red. masses --      1.0692                 1.1690                 3.3668
 Frc consts  --      1.4908                 1.6472                 4.9029
 IR Inten    --      3.7768                 4.7430                 4.5646

                     73                     74                     75
                      A                      A                      A
 Frequencies --   3020.1649              3043.5473              3046.5275
 Red. masses --      1.0624                 1.0388                 1.0847
 Frc consts  --      5.7094                 5.6695                 5.9314
 IR Inten    --     21.9592                17.6535                19.8240

                     76                     77                     78
                      A                      A                      A
 Frequencies --   3055.9916              3060.9494              3063.0016
 Red. masses --      1.0728                 1.0437                 1.0750
 Frc consts  --      5.9029                 5.7617                 5.9421
 IR Inten    --      8.2207                48.5448                11.9916

                     79                     80                     81
                      A                      A                      A
 Frequencies --   3066.7428              3078.9854              3104.0174
 Red. masses --      1.0723                 1.0672                 1.1032
 Frc consts  --      5.9421                 5.9611                 6.2627
 IR Inten    --     59.3358                30.8102                 9.1058

                     82                     83                     84
                      A                      A                      A
 Frequencies --   3108.3324              3114.1586              3122.3513
 Red. masses --      1.1017                 1.1021                 1.0985
 Frc consts  --      6.2716                 6.2976                 6.3095
 IR Inten    --     52.2094                49.1733                31.7859

                     85                     86                     87
                      A                      A                      A
 Frequencies --   3129.3600              3132.3549              3188.9735
 Red. masses --      1.1002                 1.1004                 1.1018
 Frc consts  --      6.3482                 6.3615                 6.6017
 IR Inten    --     21.4537                29.7073                 0.1267

                     88                     89                     90
                      A                      A                      A
 Frequencies --   3256.6248              3283.0505              3726.7587
 Red. masses --      1.0910                 1.1043                 1.0660
 Frc consts  --      6.8172                 7.0125                 8.7231
 IR Inten    --      9.0051                 7.3067                13.0050

 - Thermochemistry -
 -------------------
 Temperature   298.150 Kelvin.  Pressure   1.00000 Atm.
 Atom     1 has atomic number  6 and mass  12.00000

 Molecular mass:   194.14191 amu.
 Principal axes and moments of inertia in atomic units:
                           1         2         3
     Eigenvalues --  1445.320444307.490834696.77431
           X            0.99993  -0.00113  -0.01176
           Y            0.00103   0.99996  -0.00847
           Z            0.01177   0.00845   0.99989
 This molecule is an asymmetric top.
 Rotational symmetry number  1.
 Warning -- assumption of classical behavior for rotation
           may cause significant error
 Rotational temperatures (Kelvin)      0.05993     0.02011     0.01844
 Rotational constants (GHZ):           1.24868     0.41898     0.38425
 Zero-point vibrational energy     742690.8 (Joules/Mol)
                                  177.50737 (Kcal/Mol)
 Warning -- explicit consideration of  19 degrees of freedom as
           vibrations may cause significant error
 Vibrational temperatures:     27.29    84.61   109.84   151.27   216.76
          (Kelvin)            232.11   261.44   299.07   316.13   354.89
                              406.87   480.46   491.32   536.76   570.99
                              591.97   629.66   666.87   736.66   917.43
                              924.28  1005.32  1039.62  1064.90  1074.64
                             1137.63  1183.01  1208.54  1225.09  1316.66
                             1343.81  1377.40  1391.46  1413.47  1439.59
                             1489.12  1527.99  1534.40  1549.91  1598.13
                             1602.22  1608.08  1668.73  1673.73  1702.75
                             1754.21  1789.24  1814.10  1821.89  1870.79
                             1898.25  1899.51  1920.36  1936.64  1958.22
                             1992.23  1994.94  2006.25  2024.80  2073.53
                             2090.73  2140.18  2165.59  2180.73  2186.67
                             2196.69  2202.31  2203.62  2208.13  2213.33
                             2225.05  2261.98  4345.34  4378.99  4383.27
                             4396.89  4404.02  4406.98  4412.36  4429.97
                             4465.99  4472.20  4480.58  4492.37  4502.45
                             4506.76  4588.22  4685.56  4723.58  5361.97

 Zero-point correction=                           0.282876 (Hartree/Particle)
 Thermal correction to Energy=                    0.296925
 Thermal correction to Enthalpy=                  0.297870
 Thermal correction to Gibbs Free Energy=         0.241398
 Sum of electronic and zero-point Energies=           -614.507365
 Sum of electronic and thermal Energies=              -614.493316
 Sum of electronic and thermal Enthalpies=            -614.492372
 Sum of electronic and thermal Free Energies=         -614.548844

                     E (Thermal)             CV                S
                      KCal/Mol        Cal/Mol-Kelvin    Cal/Mol-Kelvin
 Total                  186.324             53.814            118.855
 Electronic               0.000              0.000              0.000
 Translational            0.889              2.981             41.696
 Rotational               0.889              2.981             31.748
 Vibrational            184.546             47.852             45.412
 Vibration     1          0.593              1.986              6.739
 Vibration     2          0.596              1.974              4.497
 Vibration     3          0.599              1.965              3.983
 Vibration     4          0.605              1.945              3.357
 Vibration     5          0.618              1.902              2.664
 Vibration     6          0.622              1.890              2.534
 Vibration     7          0.630              1.865              2.311
 Vibration     8          0.641              1.829              2.062
 Vibration     9          0.647              1.811              1.961
 Vibration    10          0.661              1.768              1.754
 Vibration    11          0.682              1.706              1.517
 Vibration    12          0.715              1.608              1.241
 Vibration    13          0.721              1.593              1.205
 Vibration    14          0.744              1.527              1.067
 Vibration    15          0.763              1.477              0.974
 Vibration    16          0.775              1.445              0.922
 Vibration    17          0.798              1.388              0.834
 Vibration    18          0.821              1.331              0.756
 Vibration    19          0.867              1.223              0.629

                           ! Non-Optimized Parameters !
 Normal termination of Gaussian 16 at Thu Dec 10 09:27:28 2020.

 ----------------------------------------------------------------------
 # B3LYP/6-311++G(d,p) empiricaldispersion=gd3bj scf=xqc pop=npa geom=c
 heck
 ----------------------------------------------------------------------

 --------------------------------------
 CID_64513379_JID_4220_Energie_neutraal
 --------------------------------------
 Structure from the checkpoint file:  "JID_4220.chk"
 Charge =  0 Multiplicity = 1

 SCF Done:  E(RB3LYP) =  -614.965404822     A.U. after   14 cycles
 Normal termination of Gaussian 16 at Thu Dec 10 09:31:38 2020.

 ----------------------------------------------------------------------
 # B3LYP/6-311++G(d,p) empiricaldispersion=gd3bj scf=xqc pop=npa geom=c
 heck
 ----------------------------------------------------------------------

 ------------------------------------
 CID_64513379_JID_4220_Energie_kation
 ------------------------------------
 Structure from the checkpoint file:  "JID_4220.chk"
 Charge =  1 Multiplicity = 2

 SCF Done:  E(UB3LYP) =  -614.663925224     A.U. after   22 cycles
 Normal termination of Gaussian 16 at Thu Dec 10 09:40:40 2020.
 Gaussian 16:  ES64L-G16RevA.03 25-Dec-2016

 ----------------------------------------------------------------------
 # B3LYP/6-311++G(d,p) empiricaldispersion=gd3bj scf=xqc pop=npa geom=c
 heck
 ----------------------------------------------------------------------

 -----------------------------------
 CID_64513379_JID_4220_Energie_anion
 -----------------------------------
 Structure from the checkpoint file:  "JID_4220.chk"
 Charge = -1 Multiplicity = 2

                         Standard orientation:
 ---------------------------------------------------------------------
 Center     Atomic      Atomic             Coordinates (Angstroms)
 Number     Number       Type             X           Y           Z
 ---------------------------------------------------------------------
      1          6           0        3.748824    1.686322   -0.854755
      2          6           0        3.444809    0.190877   -0.733168
      3          6           0        2.328393   -0.129928    0.265606
      4          6           0        2.039237   -1.656966    0.402562
      5          6           0        0.533039   -1.841364    0.127045
      6          6           0       -0.084109   -0.472071    0.448620
      7          6           0        0.967505    0.498341   -0.112317
      8          6           0       -1.467919   -0.303701   -0.117969
      9          7           0       -2.071409   -1.173496   -0.913212
     10          6           0       -3.294767   -0.623280   -1.215423
     11          6           0       -3.436433    0.591298   -0.593027
     12          7           0       -2.266994    0.793364    0.112822
     13          6           0       -1.952715    1.984394    0.889709
     14          8           0       -0.089404   -0.249441    1.878363
     15          1           0        2.877527    2.243913   -1.217249
     16          1           0        4.573744    1.870561   -1.551915
     17          1           0        4.031004    2.109292    0.117383
     18          1           0        3.166338   -0.211404   -1.718421
     19          1           0        4.356399   -0.342618   -0.431309
     20          1           0        2.622332    0.261215    1.246694
     21          1           0        2.294749   -1.999534    1.409539
     22          1           0        2.643034   -2.243808   -0.298279
     23          1           0        0.069946   -2.640457    0.716267
     24          1           0        0.337433   -2.074270   -0.922796
     25          1           0        0.850707    0.537597   -1.202715
     26          1           0        0.838164    1.512314    0.275592
     27          1           0       -4.002865   -1.136207   -1.852007
     28          1           0       -4.237977    1.314994   -0.571005
     29          1           0       -1.501575    2.758039    0.258391
     30          1           0       -2.873926    2.378806    1.326348
     31          1           0       -1.260803    1.712201    1.685719
     32          1           0       -0.655365   -0.937714    2.264279
 ---------------------------------------------------------------------

 SCF Done:  E(UB3LYP) =  -614.951998134     A.U. after   30 cycles

 The electronic state is 2-A.
 Alpha  occ. eigenvalues --  -19.02735 -14.27044 -14.19296 -10.13880 -10.12387
 Alpha  occ. eigenvalues --  -10.10280 -10.09634 -10.08386 -10.07314 -10.07166
 Alpha  occ. eigenvalues --  -10.06774 -10.06703 -10.06640 -10.06423  -0.93488
 Alpha  occ. eigenvalues --   -0.91264  -0.78535  -0.74261  -0.68184  -0.65385
 Alpha  occ. eigenvalues --   -0.62106  -0.61130  -0.59277  -0.52413  -0.50773
 Alpha  occ. eigenvalues --   -0.48702  -0.46027  -0.45678  -0.43271  -0.39840
 Alpha  occ. eigenvalues --   -0.37473  -0.37141  -0.36127  -0.35749  -0.33409
 Alpha  occ. eigenvalues --   -0.33038  -0.32297  -0.31589  -0.30068  -0.29940
 Alpha  occ. eigenvalues --   -0.28508  -0.28381  -0.27090  -0.25827  -0.24989
 Alpha  occ. eigenvalues --   -0.23629  -0.22469  -0.22346  -0.21639  -0.19159
 Alpha  occ. eigenvalues --   -0.17296  -0.17108  -0.12874   0.04314
 Alpha virt. eigenvalues --    0.06215   0.06799   0.07741   0.08342   0.08525
 Alpha virt. eigenvalues --    0.08733   0.09789   0.10318   0.10404   0.11227
 Alpha virt. eigenvalues --    0.11508   0.11931   0.12403   0.12828   0.13579

  Beta  occ. eigenvalues --  -19.02703 -14.27039 -14.19293 -10.13877 -10.12386
  Beta  occ. eigenvalues --  -10.10226 -10.09616 -10.08385 -10.07308 -10.07154
  Beta  occ. eigenvalues --  -10.06757 -10.06696 -10.06630 -10.06397  -0.93437
  Beta  occ. eigenvalues --   -0.91239  -0.78522  -0.74238  -0.68159  -0.65363
  Beta  occ. eigenvalues --   -0.62057  -0.61088  -0.59239  -0.52363  -0.50755
  Beta  occ. eigenvalues --   -0.48664  -0.45975  -0.45642  -0.43213  -0.39802
  Beta  occ. eigenvalues --   -0.37438  -0.37103  -0.36101  -0.35726  -0.33380
  Beta  occ. eigenvalues --   -0.32997  -0.32267  -0.31558  -0.30028  -0.29911
  Beta  occ. eigenvalues --   -0.28478  -0.28355  -0.27061  -0.25804  -0.24965
  Beta  occ. eigenvalues --   -0.23603  -0.22446  -0.22324  -0.21617  -0.19133
  Beta  occ. eigenvalues --   -0.17273  -0.17094  -0.12859
  Beta virt. eigenvalues --    0.06397   0.07222   0.07550   0.08082   0.08763
  Beta virt. eigenvalues --    0.08890   0.09262   0.10145   0.10572   0.10794
  Beta virt. eigenvalues --    0.11482   0.11815   0.12223   0.12774   0.13004

 Mulliken charges and spin densities:
               1          2
     1  C    0.894542  -1.573585
     2  C   -1.154636   0.840995
     3  C    0.456305   0.166224
     4  C   -0.192834  -0.329698
     5  C   -0.445342  -0.047498
     6  C    0.236273  -0.410794
     7  C    0.250815  -1.185916
     8  C   -0.259199   0.044705
     9  N   -0.079374   0.027231
    10  C    0.320810  -0.387182
    11  C   -0.063719   0.065503
    12  N   -0.099844   0.234277
    13  C    1.238265  -1.578048
    14  O   -0.130733   0.030370
    15  H   -0.187961   0.337354
    16  H   -0.227754   0.363900
    17  H   -0.156824   0.291181
    18  H    0.082192   0.052717
    19  H   -0.073006   0.207425
    20  H    0.014950   0.210799
    21  H   -0.017110   0.162058
    22  H    0.033926   0.111286
    23  H    0.055573   0.127560
    24  H    0.109500   0.078295
    25  H   -0.099346   0.321399
    26  H    0.632384  -0.452025
    27  H    0.011406   0.130426
    28  H   -0.715055   0.891925
    29  H   -0.357811   0.553240
    30  H   -0.695034   0.852242
    31  H   -0.226302   0.464908
    32  H   -0.155057   0.398724
 Sum of Mulliken charges =  -1.00000   1.00000

 Dipole moment (field-independent basis, Debye):
    X=              2.3917    Y=             -4.5579    Z=             -1.7419  Tot=              5.4341
 Quadrupole moment (field-independent basis, Debye-Ang):
   XX=           -159.3562   YY=           -134.4498   ZZ=           -123.9794
   XY=              4.4921   XZ=              6.9217   YZ=             -0.9405

 Summary of Natural Population Analysis:

                                       Natural Population
                Natural  -----------------------------------------------
    Atom  No    Charge         Core      Valence    Rydberg      Total
 -----------------------------------------------------------------------
      C    1   -0.28474      0.99967     2.28071    0.00436     3.28474
      C    2   -0.18245      0.99962     2.17584    0.00699     3.18245
      C    3   -0.11024      0.99960     2.10098    0.00966     3.11024
      C    4   -0.18793      0.99963     2.18073    0.00758     3.18793
      C    5   -0.19505      0.99960     2.18698    0.00847     3.19505
      C    6    0.11145      0.99946     1.87322    0.01586     2.88855
      C    7   -0.19330      0.99957     2.18305    0.01067     3.19330
      C    8    0.18133      0.99953     1.79922    0.01992     2.81867
      N    9   -0.25920      0.99970     2.75066    0.00883     3.75920
      C   10   -0.03701      0.99958     2.02455    0.01289     3.03701
      C   11   -0.03048      0.99954     2.01871    0.01223     3.03048
      N   12   -0.19991      0.99962     2.68877    0.01152     3.69991
      C   13   -0.17942      0.99963     2.17135    0.00845     3.17942
      O   14   -0.37635      0.99989     3.36943    0.00702     4.37635
      H   15    0.09862      0.00000     0.40011    0.00127     0.40138
      H   16    0.09690      0.00000     0.40199    0.00111     0.40310
      H   17    0.09597      0.00000     0.40265    0.00138     0.40403
      H   18    0.09119      0.00000     0.40756    0.00126     0.40881
      H   19    0.09357      0.00000     0.40514    0.00129     0.40643
      H   20    0.09971      0.00000     0.39895    0.00135     0.40029
      H   21    0.10016      0.00000     0.39864    0.00120     0.39984
      H   22    0.09535      0.00000     0.40353    0.00113     0.40465
      H   23    0.10244      0.00000     0.39646    0.00110     0.39756
      H   24    0.10998      0.00000     0.38833    0.00169     0.39002
      H   25    0.10153      0.00000     0.39713    0.00134     0.39847
      H   26    0.10878      0.00000     0.38967    0.00156     0.39122
      H   27    0.09419      0.00000     0.40495    0.00086     0.40581
      H   28    0.10475      0.00000     0.39379    0.00146     0.39525
      H   29    0.09796      0.00000     0.40018    0.00186     0.40204
      H   30    0.10329      0.00000     0.39331    0.00341     0.39671
      H   31    0.11687      0.00000     0.38114    0.00199     0.38313
      H   32    0.23204      0.00000     0.26371    0.00425     0.26796
 =======================================================================
   * Total *    0.00000     13.99463    38.83144    0.17393    53.00000

 Normal termination of Gaussian 16 at Thu Dec 10 09:53:49 2020.
