 Gaussian 16, Revision A.03,

 -----------------------------------------------------------
 # opt freq B3LYP/6-31G(d) empiricaldispersion=gd3bj scf=xqc
 -----------------------------------------------------------

 -----------------------------
 CID_679357_JID_10761_neutraal
 -----------------------------
 Symbolic Z-matrix:
 Charge =  0 Multiplicity = 1

 SCF Done:  E(RB3LYP) =  -838.428162503     A.U. after   15 cycles
 SCF Done:  E(RB3LYP) =  -838.433821080     A.U. after   13 cycles
 SCF Done:  E(RB3LYP) =  -838.435797897     A.U. after   12 cycles
 SCF Done:  E(RB3LYP) =  -838.436971948     A.U. after   13 cycles
 SCF Done:  E(RB3LYP) =  -838.437271641     A.U. after   13 cycles
 SCF Done:  E(RB3LYP) =  -838.437386339     A.U. after   12 cycles
 SCF Done:  E(RB3LYP) =  -838.437399284     A.U. after   10 cycles
 SCF Done:  E(RB3LYP) =  -838.437401901     A.U. after    9 cycles
 SCF Done:  E(RB3LYP) =  -838.437402851     A.U. after    8 cycles
 SCF Done:  E(RB3LYP) =  -838.437403172     A.U. after    8 cycles
 SCF Done:  E(RB3LYP) =  -838.437403329     A.U. after    8 cycles
 Optimization completed.
    -- Stationary point found.
 Normal termination of Gaussian 16 at Mon Dec 14 13:52:06 2020.

 --------------------------------------------------------------------
 #N Geom=AllCheck Guess=TCheck SCRF=Check GenChk RB3LYP/6-31G(d) Freq
 --------------------------------------------------------------------

 Structure from the checkpoint file:  "JID_10761.chk"
 -----------------------------
 CID_679357_JID_10761_neutraal
 -----------------------------
 Charge =  0 Multiplicity = 1

 SCF Done:  E(RB3LYP) =  -838.437403329     A.U. after    1 cycles

  Exact polarizability: 246.639   0.458 210.204   0.810   2.104 112.493
 Approx polarizability: 375.021   6.220 327.797  -4.480   8.906 193.989

                      1                      2                      3
                      A                      A                      A
 Frequencies --     51.1769                53.5670                66.5254
 Red. masses --      4.6191                 4.6378                 5.1731
 Frc consts  --      0.0071                 0.0078                 0.0135
 IR Inten    --      0.5400                 0.7946                 1.8682

                      4                      5                      6
                      A                      A                      A
 Frequencies --     74.4301                87.3438               131.7304
 Red. masses --      5.2090                 3.9957                 7.8208
 Frc consts  --      0.0170                 0.0180                 0.0800
 IR Inten    --      0.4369                 0.9719                 5.0845

                      7                      8                      9
                      A                      A                      A
 Frequencies --    152.1480               191.3053               225.2290
 Red. masses --      3.9213                 3.1650                 4.7632
 Frc consts  --      0.0535                 0.0682                 0.1424
 IR Inten    --      2.1555                 0.3494                 1.9718

                     10                     11                     12
                      A                      A                      A
 Frequencies --    253.2566               268.5346               281.8921
 Red. masses --      3.1177                 3.4962                 3.7607
 Frc consts  --      0.1178                 0.1485                 0.1761
 IR Inten    --      1.9355                 2.3482                 1.4537

                     13                     14                     15
                      A                      A                      A
 Frequencies --    295.7803               324.7116               349.7281
 Red. masses --      5.1033                 3.8830                 2.4756
 Frc consts  --      0.2631                 0.2412                 0.1784
 IR Inten    --      0.9316                 6.6140                 0.9344

                     16                     17                     18
                      A                      A                      A
 Frequencies --    380.0922               385.4671               410.9087
 Red. masses --      1.3216                 2.4881                 3.2320
 Frc consts  --      0.1125                 0.2178                 0.3215
 IR Inten    --    299.3693                14.6861                 1.7731

                     19                     20                     21
                      A                      A                      A
 Frequencies --    420.1560               444.4445               469.2205
 Red. masses --      3.3364                 4.4451                 3.4005
 Frc consts  --      0.3470                 0.5173                 0.4411
 IR Inten    --      0.3316                 1.7171                 4.0703

                     22                     23                     24
                      A                      A                      A
 Frequencies --    476.0273               503.5597               524.2283
 Red. masses --      1.3017                 1.8598                 4.5961
 Frc consts  --      0.1738                 0.2778                 0.7442
 IR Inten    --     22.4930                 2.1487                 0.0806

                     25                     26                     27
                      A                      A                      A
 Frequencies --    546.3579               574.6194               629.0843
 Red. masses --      4.4895                 3.9853                 7.4412
 Frc consts  --      0.7896                 0.7753                 1.7351
 IR Inten    --      0.2155                 3.3246                 5.9949

                     28                     29                     30
                      A                      A                      A
 Frequencies --    637.9032               659.8527               672.9952
 Red. masses --      3.6024                 5.7798                 6.4029
 Frc consts  --      0.8637                 1.4827                 1.7086
 IR Inten    --      1.3908                 1.9608                 3.0384

                     31                     32                     33
                      A                      A                      A
 Frequencies --    698.0709               730.8879               733.4700
 Red. masses --      7.1444                 2.9796                 2.7014
 Frc consts  --      2.0512                 0.9378                 0.8563
 IR Inten    --      3.1795                14.0748                10.5753

                     34                     35                     36
                      A                      A                      A
 Frequencies --    775.1759               797.5987               825.7084
 Red. masses --      2.9834                 4.8195                 1.8631
 Frc consts  --      1.0563                 1.8064                 0.7484
 IR Inten    --      2.5588                 8.8779                10.8958

                     37                     38                     39
                      A                      A                      A
 Frequencies --    851.1368               856.3794               882.0655
 Red. masses --      2.7556                 1.6179                 2.5239
 Frc consts  --      1.1762                 0.6991                 1.1570
 IR Inten    --      4.1533                 5.1073                 3.3445

                     40                     41                     42
                      A                      A                      A
 Frequencies --    909.9661               922.4110               952.8007
 Red. masses --      2.6572                 3.3076                 1.3422
 Frc consts  --      1.2964                 1.6581                 0.7179
 IR Inten    --      0.6584                 4.5992                 2.3073

                     43                     44                     45
                      A                      A                      A
 Frequencies --    976.3621               984.6524               989.2419
 Red. masses --      1.4925                 1.8907                 2.1828
 Frc consts  --      0.8383                 1.0800                 1.2586
 IR Inten    --      6.8987                 2.6231                20.6031

                     46                     47                     48
                      A                      A                      A
 Frequencies --    997.1925              1045.0010              1048.0431
 Red. masses --      1.3771                 3.0985                 2.6117
 Frc consts  --      0.8068                 1.9936                 1.6902
 IR Inten    --      0.3435                10.1070                 2.9892

                     49                     50                     51
                      A                      A                      A
 Frequencies --   1074.1657              1095.5343              1104.0113
 Red. masses --      2.8827                 1.7961                 1.8975
 Frc consts  --      1.9597                 1.2701                 1.3626
 IR Inten    --      1.0721                 3.4724                 0.8516

                     52                     53                     54
                      A                      A                      A
 Frequencies --   1112.7811              1137.0067              1154.1705
 Red. masses --      2.0496                 3.1217                 1.4560
 Frc consts  --      1.4953                 2.3778                 1.1428
 IR Inten    --      0.3782                 1.6809                 5.7516

                     55                     56                     57
                      A                      A                      A
 Frequencies --   1172.8844              1200.9889              1236.1653
 Red. masses --      1.3228                 2.5477                 1.5123
 Frc consts  --      1.0721                 2.1651                 1.3616
 IR Inten    --      0.1976                 1.1728                15.4242

                     58                     59                     60
                      A                      A                      A
 Frequencies --   1239.1140              1250.9455              1273.4293
 Red. masses --      1.5362                 1.3555                 4.0024
 Frc consts  --      1.3897                 1.2498                 3.8240
 IR Inten    --     27.4113                 6.9879                13.0768

                     61                     62                     63
                      A                      A                      A
 Frequencies --   1295.3232              1302.7966              1317.5858
 Red. masses --      1.4653                 5.0030                 1.2263
 Frc consts  --      1.4485                 5.0030                 1.2543
 IR Inten    --     12.4603                 1.9337                 4.5012

                     64                     65                     66
                      A                      A                      A
 Frequencies --   1336.7497              1368.5341              1377.4384
 Red. masses --      2.5495                 1.5835                 1.3123
 Frc consts  --      2.6842                 1.7473                 1.4670
 IR Inten    --     23.8314                 1.6882                 3.0777

                     67                     68                     69
                      A                      A                      A
 Frequencies --   1386.4389              1391.0829              1403.1413
 Red. masses --      1.4519                 1.3792                 1.7596
 Frc consts  --      1.6443                 1.5725                 2.0411
 IR Inten    --      1.0262                 6.5373                19.7062

                     70                     71                     72
                      A                      A                      A
 Frequencies --   1415.7223              1418.6726              1452.3634
 Red. masses --      1.5233                 2.4153                 2.5361
 Frc consts  --      1.7989                 2.8641                 3.1519
 IR Inten    --      1.7716                 0.1807                26.0416

                     73                     74                     75
                      A                      A                      A
 Frequencies --   1479.8336              1491.2810              1509.9851
 Red. masses --      3.8491                 2.5782                 1.2465
 Frc consts  --      4.9664                 3.3782                 1.6744
 IR Inten    --     34.9041                59.3505                12.9181

                     76                     77                     78
                      A                      A                      A
 Frequencies --   1512.5764              1515.6045              1525.2467
 Red. masses --      1.1236                 1.1255                 1.1036
 Frc consts  --      1.5146                 1.5233                 1.5126
 IR Inten    --      9.3363                 5.4439                 5.5280

                     79                     80                     81
                      A                      A                      A
 Frequencies --   1529.2387              1532.3631              1600.4728
 Red. masses --      2.4447                 1.0946                 6.0297
 Frc consts  --      3.3685                 1.5143                 9.1000
 IR Inten    --     18.7077                 8.8388               146.1296

                     82                     83                     84
                      A                      A                      A
 Frequencies --   1611.2105              1628.2584              1650.1820
 Red. masses --      5.3126                 5.4447                 5.6894
 Frc consts  --      8.1258                 8.5049                 9.1281
 IR Inten    --     81.5254                56.7738                19.2297

                     85                     86                     87
                      A                      A                      A
 Frequencies --   1672.3291              2326.0069              3019.7415
 Red. masses --      1.4784                12.6633                 1.0666
 Frc consts  --      2.4360                40.3664                 5.7306
 IR Inten    --    370.7030                68.7046                19.1997

                     88                     89                     90
                      A                      A                      A
 Frequencies --   3027.0508              3031.0871              3037.7836
 Red. masses --      1.0719                 1.0702                 1.0632
 Frc consts  --      5.7870                 5.7932                 5.7809
 IR Inten    --      5.4090                25.4917                25.9807

                     91                     92                     93
                      A                      A                      A
 Frequencies --   3039.8623              3068.6711              3076.9891
 Red. masses --      1.0614                 1.0927                 1.1040
 Frc consts  --      5.7786                 6.0625                 6.1584
 IR Inten    --     27.5476                72.9737                17.3642

                     94                     95                     96
                      A                      A                      A
 Frequencies --   3082.4486              3122.8475              3126.2850
 Red. masses --      1.1044                 1.0930                 1.0895
 Frc consts  --      6.1825                 6.2803                 6.2738
 IR Inten    --     89.1978                21.2188                14.9391

                     97                     98                     99
                      A                      A                      A
 Frequencies --   3177.2509              3180.4833              3205.5192
 Red. masses --      1.0880                 1.0914                 1.0895
 Frc consts  --      6.4711                 6.5048                 6.5962
 IR Inten    --     30.2286                10.1399                11.9617

                    100                    101                    102
                      A                      A                      A
 Frequencies --   3220.9251              3589.4651              3708.3667
 Red. masses --      1.0970                 1.0455                 1.1036
 Frc consts  --      6.7051                 7.9366                 8.9422
 IR Inten    --     12.4332                75.3383                38.9681

 - Thermochemistry -
 -------------------
 Temperature   298.150 Kelvin.  Pressure   1.00000 Atm.
 Atom     1 has atomic number  6 and mass  12.00000

 Molecular mass:   264.13750 amu.
 Principal axes and moments of inertia in atomic units:
                           1         2         3
     Eigenvalues --  3924.850135852.714279148.47777
           X            0.99960   0.02747   0.00719
           Y           -0.02747   0.99962   0.00008
           Z           -0.00718  -0.00028   0.99997
 This molecule is an asymmetric top.
 Rotational symmetry number  1.
 Warning -- assumption of classical behavior for rotation
           may cause significant error
 Rotational temperatures (Kelvin)      0.02207     0.01480     0.00947
 Rotational constants (GHZ):           0.45982     0.30836     0.19727
 Zero-point vibrational energy     779575.5 (Joules/Mol)
                                  186.32303 (Kcal/Mol)
 Warning -- explicit consideration of  26 degrees of freedom as
           vibrations may cause significant error
 Vibrational temperatures:     73.63    77.07    95.72   107.09   125.67
          (Kelvin)            189.53   218.91   275.25   324.05   364.38
                              386.36   405.58   425.56   467.19   503.18
                              546.87   554.60   591.21   604.51   639.46
                              675.10   684.90   724.51   754.25   786.09
                              826.75   905.11   917.80   949.38   968.29
                             1004.37  1051.58  1055.30  1115.31  1147.57
                             1188.01  1224.60  1232.14  1269.10  1309.24
                             1327.14  1370.87  1404.77  1416.70  1423.30
                             1434.74  1503.52  1507.90  1545.48  1576.23
                             1588.43  1601.04  1635.90  1660.59  1687.52
                             1727.96  1778.57  1782.81  1799.83  1832.18
                             1863.68  1874.43  1895.71  1923.28  1969.02
                             1981.83  1994.78  2001.46  2018.81  2036.91
                             2041.15  2089.63  2129.15  2145.62  2172.53
                             2176.26  2180.62  2194.49  2200.23  2204.73
                             2302.72  2318.17  2342.70  2374.24  2406.11
                             3346.61  4344.73  4355.25  4361.06  4370.69
                             4373.68  4415.13  4427.10  4434.96  4493.08
                             4498.03  4571.36  4576.01  4612.03  4634.19
                             5164.44  5335.51

 Zero-point correction=                           0.296925 (Hartree/Particle)
 Thermal correction to Energy=                    0.313558
 Thermal correction to Enthalpy=                  0.314502
 Thermal correction to Gibbs Free Energy=         0.252749
 Sum of electronic and zero-point Energies=           -838.140479
 Sum of electronic and thermal Energies=              -838.123846
 Sum of electronic and thermal Enthalpies=            -838.122901
 Sum of electronic and thermal Free Energies=         -838.184654

                     E (Thermal)             CV                S
                      KCal/Mol        Cal/Mol-Kelvin    Cal/Mol-Kelvin
 Total                  196.760             66.203            129.969
 Electronic               0.000              0.000              0.000
 Translational            0.889              2.981             42.613
 Rotational               0.889              2.981             33.707
 Vibrational            194.983             60.242             53.648
 Vibration     1          0.595              1.977              4.771
 Vibration     2          0.596              1.976              4.681
 Vibration     3          0.598              1.970              4.254
 Vibration     4          0.599              1.966              4.033
 Vibration     5          0.601              1.958              3.719
 Vibration     6          0.612              1.922              2.921
 Vibration     7          0.619              1.900              2.645
 Vibration     8          0.634              1.852              2.215
 Vibration     9          0.650              1.803              1.917
 Vibration    10          0.664              1.757              1.708
 Vibration    11          0.673              1.731              1.606
 Vibration    12          0.681              1.707              1.522
 Vibration    13          0.690              1.682              1.441
 Vibration    14          0.709              1.626              1.286
 Vibration    15          0.727              1.576              1.167
 Vibration    16          0.750              1.513              1.039
 Vibration    17          0.754              1.501              1.018
 Vibration    18          0.775              1.447              0.923
 Vibration    19          0.783              1.426              0.891
 Vibration    20          0.804              1.373              0.813
 Vibration    21          0.826              1.318              0.740
 Vibration    22          0.833              1.303              0.721
 Vibration    23          0.859              1.242              0.649
 Vibration    24          0.879              1.196              0.600
 Vibration    25          0.902              1.148              0.552
 Vibration    26          0.931              1.086              0.495

                           ! Non-Optimized Parameters !
 Normal termination of Gaussian 16 at Mon Dec 14 14:11:40 2020.

 ----------------------------------------------------------------------
 # B3LYP/6-311++G(d,p) empiricaldispersion=gd3bj scf=xqc pop=npa geom=c
 heck
 ----------------------------------------------------------------------

 -------------------------------------
 CID_679357_JID_10761_Energie_neutraal
 -------------------------------------
 Structure from the checkpoint file:  "JID_10761.chk"
 Charge =  0 Multiplicity = 1

 SCF Done:  E(RB3LYP) =  -838.655287916     A.U. after   17 cycles
 Normal termination of Gaussian 16 at Mon Dec 14 14:19:46 2020.

 ----------------------------------------------------------------------
 # B3LYP/6-311++G(d,p) empiricaldispersion=gd3bj scf=xqc pop=npa geom=c
 heck
 ----------------------------------------------------------------------

 -----------------------------------
 CID_679357_JID_10761_Energie_kation
 -----------------------------------
 Structure from the checkpoint file:  "JID_10761.chk"
 Charge =  1 Multiplicity = 2

 SCF Done:  E(UB3LYP) =  -838.362529867     A.U. after   26 cycles
 Normal termination of Gaussian 16 at Mon Dec 14 14:36:28 2020.
 Gaussian 16:  ES64L-G16RevA.03 25-Dec-2016

 ----------------------------------------------------------------------
 # B3LYP/6-311++G(d,p) empiricaldispersion=gd3bj scf=xqc pop=npa geom=c
 heck
 ----------------------------------------------------------------------

 ----------------------------------
 CID_679357_JID_10761_Energie_anion
 ----------------------------------
 Structure from the checkpoint file:  "JID_10761.chk"
 Charge = -1 Multiplicity = 2

                         Standard orientation:
 ---------------------------------------------------------------------
 Center     Atomic      Atomic             Coordinates (Angstroms)
 Number     Number       Type             X           Y           Z
 ---------------------------------------------------------------------
      1          6           0       -3.351734   -2.321661   -0.311463
      2          6           0       -1.829920   -2.502021   -0.350803
      3          6           0       -1.071813   -1.709031    0.734231
      4          6           0       -0.879917   -0.242181    0.418684
      5          6           0       -1.992083    0.628652    0.386538
      6          6           0       -3.396805    0.110355    0.583782
      7          6           0       -3.855922   -0.886197   -0.502243
      8          7           0       -1.903062    1.942859    0.159737
      9          6           0       -0.697578    2.488858   -0.048011
     10          6           0        0.481845    1.702214   -0.070496
     11          6           0        0.382182    0.313968    0.162660
     12          6           0        1.620953   -0.503514    0.115525
     13          6           0        1.758014   -1.554115   -0.804787
     14          7           0        2.848221   -2.315792   -0.917736
     15          6           0        3.872663   -2.048383   -0.097749
     16          6           0        3.853022   -1.023152    0.847453
     17          6           0        2.709587   -0.236992    0.953436
     18          6           0        1.716400    2.346305   -0.366593
     19          7           0        2.674851    2.960470   -0.616991
     20          7           0       -0.657619    3.843424   -0.214718
     21          1           0       -3.722191   -2.695437    0.654678
     22          1           0       -3.805036   -2.960724   -1.080137
     23          1           0       -1.604394   -3.568213   -0.223830
     24          1           0       -1.446353   -2.218282   -1.339851
     25          1           0       -0.096415   -2.170343    0.899945
     26          1           0       -1.616812   -1.808024    1.683885
     27          1           0       -4.054592    0.982737    0.589280
     28          1           0       -3.484156   -0.369218    1.569537
     29          1           0       -3.552552   -0.506799   -1.487144
     30          1           0       -4.952702   -0.904688   -0.502832
     31          1           0        0.942327   -1.778145   -1.489435
     32          1           0        4.749330   -2.684133   -0.204937
     33          1           0        4.713815   -0.844894    1.483976
     34          1           0        2.654960    0.570259    1.677177
     35          1           0        0.169221    4.269326   -0.608550
     36          1           0       -1.544559    4.291215   -0.394802
 ---------------------------------------------------------------------

 SCF Done:  E(UB3LYP) =  -838.673437916     A.U. after   27 cycles

 The electronic state is 2-A.
 Alpha  occ. eigenvalues --  -14.20927 -14.19054 -14.16437 -14.15719 -10.12096
 Alpha  occ. eigenvalues --  -10.08099 -10.08025 -10.06762 -10.06741 -10.06504
 Alpha  occ. eigenvalues --  -10.06347 -10.06318 -10.06301 -10.06268 -10.06003
 Alpha  occ. eigenvalues --  -10.05667 -10.05280 -10.05150 -10.04750 -10.04361
 Alpha  occ. eigenvalues --   -0.84192  -0.82275  -0.77336  -0.76595  -0.71418
 Alpha  occ. eigenvalues --   -0.70564  -0.67224  -0.64578  -0.64115  -0.63251
 Alpha  occ. eigenvalues --   -0.56470  -0.53987  -0.52425  -0.51015  -0.48101
 Alpha  occ. eigenvalues --   -0.47857  -0.45738  -0.42657  -0.41445  -0.39350
 Alpha  occ. eigenvalues --   -0.37857  -0.36936  -0.36260  -0.35263  -0.33594
 Alpha  occ. eigenvalues --   -0.33061  -0.32279  -0.30685  -0.30529  -0.29508
 Alpha  occ. eigenvalues --   -0.28395  -0.28339  -0.27655  -0.26307  -0.25885
 Alpha  occ. eigenvalues --   -0.24071  -0.23472  -0.22992  -0.22835  -0.22501
 Alpha  occ. eigenvalues --   -0.22116  -0.21241  -0.19964  -0.18791  -0.17038
 Alpha  occ. eigenvalues --   -0.15729  -0.14285  -0.13036  -0.12876  -0.09113
 Alpha  occ. eigenvalues --    0.03366
 Alpha virt. eigenvalues --    0.07055   0.08243   0.08330   0.08619   0.08859
 Alpha virt. eigenvalues --    0.09133   0.09755   0.10488   0.10752   0.11466
 Alpha virt. eigenvalues --    0.11843   0.12215   0.12311   0.12677   0.13361

  Beta  occ. eigenvalues --  -14.20934 -14.19091 -14.16224 -14.15494 -10.12136
  Beta  occ. eigenvalues --  -10.08009 -10.07847 -10.06761 -10.06735 -10.06418
  Beta  occ. eigenvalues --  -10.06356 -10.06333 -10.06268 -10.05954 -10.05922
  Beta  occ. eigenvalues --  -10.05661 -10.05176 -10.05103 -10.04487 -10.04330
  Beta  occ. eigenvalues --   -0.83981  -0.82161  -0.77048  -0.76283  -0.71246
  Beta  occ. eigenvalues --   -0.70217  -0.67030  -0.64471  -0.63837  -0.62966
  Beta  occ. eigenvalues --   -0.56172  -0.53810  -0.52096  -0.50883  -0.47951
  Beta  occ. eigenvalues --   -0.47655  -0.45615  -0.42494  -0.41339  -0.39204
  Beta  occ. eigenvalues --   -0.37664  -0.36813  -0.36091  -0.35206  -0.33501
  Beta  occ. eigenvalues --   -0.32925  -0.32149  -0.30437  -0.30269  -0.29348
  Beta  occ. eigenvalues --   -0.28286  -0.27988  -0.27305  -0.26153  -0.25830
  Beta  occ. eigenvalues --   -0.23868  -0.23251  -0.22750  -0.22585  -0.22392
  Beta  occ. eigenvalues --   -0.21439  -0.21138  -0.19812  -0.18070  -0.16569
  Beta  occ. eigenvalues --   -0.14738  -0.14121  -0.12761  -0.11684  -0.08309
  Beta virt. eigenvalues --    0.06885   0.08275   0.08433   0.08643   0.08756
  Beta virt. eigenvalues --    0.08897   0.09167   0.10445   0.10640   0.10942
  Beta virt. eigenvalues --    0.11431   0.11798   0.12215   0.12290   0.13265

 Mulliken charges and spin densities:
               1          2
     1  C   -0.350226  -0.181639
     2  C   -0.382065   0.068931
     3  C   -0.199243   0.028823
     4  C   -0.126574  -0.107552
     5  C   -0.210767   0.145447
     6  C   -0.536632   0.006947
     7  C   -0.212971   0.025680
     8  N   -0.054401   0.102813
     9  C   -0.482674  -0.056730
    10  C    1.269285   0.174852
    11  C    0.966430   0.274399
    12  C    0.860176   0.066871
    13  C   -0.822620   0.034020
    14  N    0.022739  -0.026623
    15  C   -0.303985   0.137404
    16  C   -0.300679  -0.020823
    17  C   -0.380180   0.062853
    18  C   -1.551572  -0.044663
    19  N   -0.284635   0.109346
    20  N   -0.321505   0.004393
    21  H    0.091101   0.033341
    22  H    0.112155   0.026735
    23  H    0.133809   0.006420
    24  H    0.112933  -0.006585
    25  H    0.201538   0.002021
    26  H    0.156907   0.002973
    27  H    0.150440   0.015608
    28  H    0.086578   0.042199
    29  H    0.142394  -0.009364
    30  H    0.040872   0.096688
    31  H    0.177341  -0.002507
    32  H    0.141791  -0.010207
    33  H    0.139496   0.001669
    34  H    0.193473  -0.004385
    35  H    0.271564   0.000709
    36  H    0.249708  -0.000065
 Sum of Mulliken charges =  -1.00000   1.00000

 Dipole moment (field-independent basis, Debye):
    X=             -4.0828    Y=             -2.3791    Z=              1.3898  Tot=              4.9255
 Quadrupole moment (field-independent basis, Debye-Ang):
   XX=           -165.4994   YY=           -151.2037   ZZ=           -128.7238
   XY=             -4.9217   XZ=             10.9373   YZ=             -3.8218

 Summary of Natural Population Analysis:

                                       Natural Population
                Natural  -----------------------------------------------
    Atom  No    Charge         Core      Valence    Rydberg      Total
 -----------------------------------------------------------------------
      C    1   -0.18627      0.99963     2.17894    0.00770     3.18627
      C    2   -0.18566      0.99963     2.17927    0.00676     3.18566
      C    3   -0.19730      0.99961     2.19029    0.00740     3.19730
      C    4   -0.07506      0.99943     2.06411    0.01152     3.07506
      C    5    0.18489      0.99950     1.80191    0.01370     2.81511
      C    6   -0.20743      0.99960     2.19861    0.00922     3.20743
      C    7   -0.18276      0.99963     2.17541    0.00773     3.18276
      N    8   -0.25319      0.99964     2.74032    0.01324     3.75319
      C    9    0.21576      0.99953     1.77117    0.01354     2.78424
      C   10   -0.10877      0.99934     2.09989    0.00955     3.10877
      C   11    0.09017      0.99945     1.89951    0.01087     2.90983
      C   12   -0.03626      0.99949     2.02364    0.01313     3.03626
      C   13    0.04834      0.99954     1.93887    0.01325     2.95166
      N   14   -0.24589      0.99972     2.73464    0.01154     3.74589
      C   15    0.04836      0.99960     1.93772    0.01431     2.95164
      C   16   -0.13182      0.99956     2.12405    0.00820     3.13182
      C   17   -0.05548      0.99952     2.04791    0.00805     3.05548
      C   18    0.14660      0.99965     1.83479    0.01895     2.85340
      N   19   -0.18093      0.99979     2.66988    0.01126     3.68093
      N   20   -0.39939      0.99970     2.89120    0.00850     3.89939
      H   21    0.08817      0.00000     0.41002    0.00181     0.41183
      H   22    0.09224      0.00000     0.40630    0.00145     0.40776
      H   23    0.09215      0.00000     0.40672    0.00113     0.40785
      H   24    0.09535      0.00000     0.40350    0.00115     0.40465
      H   25    0.10812      0.00000     0.39085    0.00103     0.39188
      H   26    0.09405      0.00000     0.40420    0.00175     0.40595
      H   27    0.10618      0.00000     0.39175    0.00207     0.39382
      H   28    0.09634      0.00000     0.40190    0.00175     0.40366
      H   29    0.09571      0.00000     0.40310    0.00119     0.40429
      H   30    0.09083      0.00000     0.40740    0.00177     0.40917
      H   31    0.08764      0.00000     0.41075    0.00161     0.41236
      H   32    0.08033      0.00000     0.41845    0.00122     0.41967
      H   33    0.09701      0.00000     0.40193    0.00105     0.40299
      H   34    0.10271      0.00000     0.39607    0.00122     0.39729
      H   35    0.19493      0.00000     0.30394    0.00113     0.30507
      H   36    0.19032      0.00000     0.30821    0.00147     0.30968
 =======================================================================
   * Total *    0.00000     19.99154    49.76723    0.24123    70.00000

 Normal termination of Gaussian 16 at Mon Dec 14 14:54:21 2020.
