 Gaussian 16, Revision A.03,

 -----------------------------------------------------------
 # opt freq B3LYP/6-31G(d) empiricaldispersion=gd3bj scf=xqc
 -----------------------------------------------------------

 ------------------------------
 CID_58134038_JID_2882_neutraal
 ------------------------------
 Symbolic Z-matrix:
 Charge =  0 Multiplicity = 1

 SCF Done:  E(RB3LYP) =  -553.573928807     A.U. after   15 cycles
 SCF Done:  E(RB3LYP) =  -553.578272331     A.U. after   12 cycles
 SCF Done:  E(RB3LYP) =  -553.578417903     A.U. after   12 cycles
 SCF Done:  E(RB3LYP) =  -553.578525611     A.U. after   12 cycles
 SCF Done:  E(RB3LYP) =  -553.578776907     A.U. after   11 cycles
 SCF Done:  E(RB3LYP) =  -553.578782567     A.U. after   10 cycles
 SCF Done:  E(RB3LYP) =  -553.578784664     A.U. after    9 cycles
 SCF Done:  E(RB3LYP) =  -553.578785180     A.U. after    8 cycles
 SCF Done:  E(RB3LYP) =  -553.578786279     A.U. after    9 cycles
 SCF Done:  E(RB3LYP) =  -553.578786803     A.U. after    9 cycles
 SCF Done:  E(RB3LYP) =  -553.578786820     A.U. after    6 cycles
 Optimization completed.
    -- Stationary point found.
 Normal termination of Gaussian 16 at Wed Dec  9 18:19:22 2020.

 --------------------------------------------------------------------
 #N Geom=AllCheck Guess=TCheck SCRF=Check GenChk RB3LYP/6-31G(d) Freq
 --------------------------------------------------------------------

 Structure from the checkpoint file:  "JID_2882.chk"
 ------------------------------
 CID_58134038_JID_2882_neutraal
 ------------------------------
 Charge =  0 Multiplicity = 1

 SCF Done:  E(RB3LYP) =  -553.578786820     A.U. after    1 cycles

  Exact polarizability: 174.864   5.884  97.142  -6.619   5.886  52.723
 Approx polarizability: 266.822  36.612 183.453 -11.766  14.863  79.494

                      1                      2                      3
                      A                      A                      A
 Frequencies --     33.7469                73.3915               105.4061
 Red. masses --      2.7204                 3.9592                 9.3958
 Frc consts  --      0.0018                 0.0126                 0.0615
 IR Inten    --      0.0909                 2.6205                 0.8224

                      4                      5                      6
                      A                      A                      A
 Frequencies --    153.9564               218.0341               230.5340
 Red. masses --      2.8764                 4.0756                 1.2344
 Frc consts  --      0.0402                 0.1142                 0.0387
 IR Inten    --      6.4347                 3.3885                 2.4306

                      7                      8                      9
                      A                      A                      A
 Frequencies --    277.9292               345.6777               351.9635
 Red. masses --      4.8179                 5.6431                 3.7189
 Frc consts  --      0.2193                 0.3973                 0.2714
 IR Inten    --      0.2875                 2.4321                 0.9667

                     10                     11                     12
                      A                      A                      A
 Frequencies --    417.5157               540.4333               560.7084
 Red. masses --      5.8036                 1.6297                 3.3474
 Frc consts  --      0.5961                 0.2804                 0.6201
 IR Inten    --      6.8642                65.8711                 8.7058

                     13                     14                     15
                      A                      A                      A
 Frequencies --    586.6740               588.7022               624.8000
 Red. masses --      4.1563                 2.9555                 2.6130
 Frc consts  --      0.8429                 0.6035                 0.6010
 IR Inten    --     12.4043                12.7863                15.5998

                     16                     17                     18
                      A                      A                      A
 Frequencies --    721.5380               735.5535               750.1424
 Red. masses --      1.8962                 2.0536                 6.7814
 Frc consts  --      0.5817                 0.6546                 2.2483
 IR Inten    --     15.9374                44.7825                 2.9030

                     19                     20                     21
                      A                      A                      A
 Frequencies --    756.9417               780.4202               804.8349
 Red. masses --      4.8240                 3.6098                 1.4551
 Frc consts  --      1.6285                 1.2953                 0.5553
 IR Inten    --      2.7526                27.9224                21.0053

                     22                     23                     24
                      A                      A                      A
 Frequencies --    818.4476               826.4189               915.9356
 Red. masses --      1.2892                 1.2660                 5.1809
 Frc consts  --      0.5088                 0.5094                 2.5609
 IR Inten    --      1.9719                 4.5121                10.1080

                     25                     26                     27
                      A                      A                      A
 Frequencies --    944.0196               994.2196              1046.3430
 Red. masses --      2.5582                 3.6120                 2.3751
 Frc consts  --      1.3432                 2.1036                 1.5321
 IR Inten    --     17.0530                 1.3678                23.3073

                     28                     29                     30
                      A                      A                      A
 Frequencies --   1054.2499              1088.5087              1112.6686
 Red. masses --      2.3269                 1.7459                 1.5069
 Frc consts  --      1.5238                 1.2188                 1.0991
 IR Inten    --     18.0852                11.8080                46.4535

                     31                     32                     33
                      A                      A                      A
 Frequencies --   1151.5641              1175.6678              1221.3884
 Red. masses --      2.2779                 2.4535                 1.6029
 Frc consts  --      1.7798                 1.9980                 1.4088
 IR Inten    --     27.0921                34.2628                12.9145

                     34                     35                     36
                      A                      A                      A
 Frequencies --   1258.3775              1305.4051              1342.0713
 Red. masses --      1.5443                 1.3411                 1.8140
 Frc consts  --      1.4408                 1.3464                 1.9250
 IR Inten    --    119.8718                33.4601                 8.8156

                     37                     38                     39
                      A                      A                      A
 Frequencies --   1358.2039              1416.1323              1433.2163
 Red. masses --      1.7254                 4.3061                 1.3443
 Frc consts  --      1.8753                 5.0880                 1.6270
 IR Inten    --     26.3068                59.2144                 3.8831

                     40                     41                     42
                      A                      A                      A
 Frequencies --   1468.0853              1500.0379              1512.9670
 Red. masses --      6.2417                 6.4068                 1.1137
 Frc consts  --      7.9261                 8.4937                 1.5020
 IR Inten    --    262.8490                 1.6513                 5.1441

                     43                     44                     45
                      A                      A                      A
 Frequencies --   1527.7452              1538.4319              1548.0227
 Red. masses --      1.0423                 1.1625                 3.6201
 Frc consts  --      1.4333                 1.6210                 5.1113
 IR Inten    --      5.2488                 1.5472                77.7613

                     46                     47                     48
                      A                      A                      A
 Frequencies --   1585.3784              1617.5730              1729.2584
 Red. masses --      4.6200                 8.1645                10.7339
 Frc consts  --      6.8416                12.5865                18.9115
 IR Inten    --     26.5240                12.4620               313.1981

                     49                     50                     51
                      A                      A                      A
 Frequencies --   3056.9597              3067.6065              3113.4459
 Red. masses --      1.0342                 1.0610                 1.1027
 Frc consts  --      5.6943                 5.8827                 6.2978
 IR Inten    --     26.2970                16.5229                 1.2779

                     52                     53                     54
                      A                      A                      A
 Frequencies --   3129.3638              3137.3000              3278.3731
 Red. masses --      1.1027                 1.1044                 1.0918
 Frc consts  --      6.3622                 6.4043                 6.9136
 IR Inten    --     37.1625                34.9041                 3.5697

                     55                     56                     57
                      A                      A                      A
 Frequencies --   3288.3826              3303.5059              3650.4111
 Red. masses --      1.0965                 1.1034                 1.0800
 Frc consts  --      6.9858                 7.0948                 8.4789
 IR Inten    --      1.4857                 0.1459                89.2786

 - Thermochemistry -
 -------------------
 Temperature   298.150 Kelvin.  Pressure   1.00000 Atm.
 Atom     1 has atomic number  6 and mass  12.00000

 Molecular mass:   163.06333 amu.
 Principal axes and moments of inertia in atomic units:
                           1         2         3
     Eigenvalues --   711.524803354.182313891.84064
           X            0.99956  -0.02953   0.00282
           Y            0.02953   0.99956  -0.00088
           Z           -0.00280   0.00096   1.00000
 This molecule is an asymmetric top.
 Rotational symmetry number  1.
 Warning -- assumption of classical behavior for rotation
           may cause significant error
 Rotational temperatures (Kelvin)      0.12173     0.02582     0.02226
 Rotational constants (GHZ):           2.53644     0.53806     0.46372
 Zero-point vibrational energy     437681.2 (Joules/Mol)
                                  104.60833 (Kcal/Mol)
 Warning -- explicit consideration of  14 degrees of freedom as
           vibrations may cause significant error
 Vibrational temperatures:     48.55   105.59   151.66   221.51   313.70
          (Kelvin)            331.69   399.88   497.35   506.40   600.71
                              777.56   806.73   844.09   847.01   898.95
                             1038.13  1058.30  1079.29  1089.07  1122.85
                             1157.98  1177.56  1189.03  1317.83  1358.23
                             1430.46  1505.45  1516.83  1566.12  1600.88
                             1656.84  1691.52  1757.31  1810.52  1878.19
                             1930.94  1954.15  2037.50  2062.08  2112.25
                             2158.22  2176.82  2198.08  2213.46  2227.26
                             2281.01  2327.33  2488.02  4398.28  4413.60
                             4479.55  4502.46  4513.88  4716.85  4731.25
                             4753.01  5252.13

 Zero-point correction=                           0.166704 (Hartree/Particle)
 Thermal correction to Energy=                    0.177012
 Thermal correction to Enthalpy=                  0.177957
 Thermal correction to Gibbs Free Energy=         0.129815
 Sum of electronic and zero-point Energies=           -553.412083
 Sum of electronic and thermal Energies=              -553.401774
 Sum of electronic and thermal Enthalpies=            -553.400830
 Sum of electronic and thermal Free Energies=         -553.448972

                     E (Thermal)             CV                S
                      KCal/Mol        Cal/Mol-Kelvin    Cal/Mol-Kelvin
 Total                  111.077             39.096            101.323
 Electronic               0.000              0.000              0.000
 Translational            0.889              2.981             41.176
 Rotational               0.889              2.981             30.608
 Vibrational            109.300             33.134             29.539
 Vibration     1          0.594              1.983              5.596
 Vibration     2          0.599              1.967              4.060
 Vibration     3          0.605              1.945              3.352
 Vibration     4          0.619              1.898              2.623
 Vibration     5          0.646              1.814              1.975
 Vibration     6          0.652              1.794              1.875
 Vibration     7          0.679              1.714              1.546
 Vibration     8          0.724              1.584              1.186
 Vibration     9          0.729              1.571              1.157
 Vibration    10          0.781              1.432              0.900
 Vibration    11          0.896              1.161              0.564
 Vibration    12          0.916              1.116              0.522
 Vibration    13          0.944              1.060              0.473
 Vibration    14          0.946              1.056              0.469

 Optimization completed.
    -- Stationary point found.
 Normal termination of Gaussian 16 at Wed Dec  9 18:23:42 2020.

 ----------------------------------------------------------------------
 # B3LYP/6-311++G(d,p) empiricaldispersion=gd3bj scf=xqc pop=npa geom=c
 heck
 ----------------------------------------------------------------------

 --------------------------------------
 CID_58134038_JID_2882_Energie_neutraal
 --------------------------------------
 Structure from the checkpoint file:  "JID_2882.chk"
 Charge =  0 Multiplicity = 1

 SCF Done:  E(RB3LYP) =  -553.733523502     A.U. after   16 cycles
 Normal termination of Gaussian 16 at Wed Dec  9 18:26:08 2020.

 ----------------------------------------------------------------------
 # B3LYP/6-311++G(d,p) empiricaldispersion=gd3bj scf=xqc pop=npa geom=c
 heck
 ----------------------------------------------------------------------

 ------------------------------------
 CID_58134038_JID_2882_Energie_kation
 ------------------------------------
 Structure from the checkpoint file:  "JID_2882.chk"
 Charge =  1 Multiplicity = 2

 SCF Done:  E(UB3LYP) =  -553.442825740     A.U. after   25 cycles
 Normal termination of Gaussian 16 at Wed Dec  9 18:30:39 2020.
 Gaussian 16:  ES64L-G16RevA.03 25-Dec-2016

 ----------------------------------------------------------------------
 # B3LYP/6-311++G(d,p) empiricaldispersion=gd3bj scf=xqc pop=npa geom=c
 heck
 ----------------------------------------------------------------------

 -----------------------------------
 CID_58134038_JID_2882_Energie_anion
 -----------------------------------
 Structure from the checkpoint file:  "JID_2882.chk"
 Charge = -1 Multiplicity = 2

                         Standard orientation:
 ---------------------------------------------------------------------
 Center     Atomic      Atomic             Coordinates (Angstroms)
 Number     Number       Type             X           Y           Z
 ---------------------------------------------------------------------
      1          6           0        3.434182   -1.157650    0.844783
      2          6           0        3.006550   -0.532485   -0.494871
      3          6           0        1.985858    0.568982   -0.270374
      4          8           0        2.328153    1.739552   -0.095655
      5          6           0        0.577627    0.205616   -0.202453
      6          6           0       -0.100762   -1.014085   -0.356161
      7          6           0       -1.451255   -0.694190   -0.152885
      8          6           0       -1.588998    0.668767    0.112848
      9          7           0       -0.341082    1.211318    0.081243
     10          6           0       -2.983542    0.919730    0.303708
     11          6           0       -3.573976   -0.304085    0.139885
     12          8           0       -2.672639   -1.307557   -0.138978
     13          1           0        3.850214   -0.391258    1.506490
     14          1           0        4.197091   -1.926902    0.686839
     15          1           0        2.581423   -1.619874    1.353294
     16          1           0        3.870164   -0.077835   -0.989243
     17          1           0        2.600225   -1.304657   -1.157847
     18          1           0        0.346826   -1.970339   -0.580447
     19          1           0       -0.039975    2.164636    0.225661
     20          1           0       -3.491600    1.846325    0.527135
     21          1           0       -4.605018   -0.618878    0.189592
 ---------------------------------------------------------------------

 SCF Done:  E(UB3LYP) =  -553.738326136     A.U. after   28 cycles

 The electronic state is 2-A.
 Alpha  occ. eigenvalues --  -19.04840 -18.91419 -14.20244 -10.08338 -10.07150
 Alpha  occ. eigenvalues --  -10.05796 -10.05528 -10.04770 -10.04320 -10.03352
 Alpha  occ. eigenvalues --  -10.02800 -10.01879  -0.96988  -0.85832  -0.82605
 Alpha  occ. eigenvalues --   -0.66015  -0.64358  -0.63222  -0.58119  -0.51571
 Alpha  occ. eigenvalues --   -0.48971  -0.46294  -0.42409  -0.40570  -0.38001
 Alpha  occ. eigenvalues --   -0.33370  -0.32853  -0.32469  -0.30490  -0.29162
 Alpha  occ. eigenvalues --   -0.28590  -0.27241  -0.26640  -0.25383  -0.24387
 Alpha  occ. eigenvalues --   -0.22523  -0.21970  -0.21086  -0.19356  -0.15260
 Alpha  occ. eigenvalues --   -0.10186  -0.08382  -0.06743   0.05157
 Alpha virt. eigenvalues --    0.08504   0.08654   0.10180   0.10989   0.11557
 Alpha virt. eigenvalues --    0.12329   0.13606   0.14089   0.14566   0.14813
 Alpha virt. eigenvalues --    0.16162   0.16251   0.17280   0.17956   0.18701

  Beta  occ. eigenvalues --  -19.04782 -18.90873 -14.20059 -10.08066 -10.07246
  Beta  occ. eigenvalues --  -10.05434 -10.05410 -10.04803 -10.04295 -10.03297
  Beta  occ. eigenvalues --  -10.02833 -10.01672  -0.96860  -0.84981  -0.82186
  Beta  occ. eigenvalues --   -0.65785  -0.64087  -0.62992  -0.57733  -0.51084
  Beta  occ. eigenvalues --   -0.48845  -0.45961  -0.42211  -0.40446  -0.37501
  Beta  occ. eigenvalues --   -0.33218  -0.32631  -0.32052  -0.30340  -0.28838
  Beta  occ. eigenvalues --   -0.28321  -0.27068  -0.25984  -0.24975  -0.23961
  Beta  occ. eigenvalues --   -0.22236  -0.21833  -0.20955  -0.17242  -0.14378
  Beta  occ. eigenvalues --   -0.09258  -0.07905  -0.05292
  Beta virt. eigenvalues --    0.08472   0.08705   0.10150   0.10945   0.11165
  Beta virt. eigenvalues --    0.11636   0.12385   0.13638   0.14534   0.14655
  Beta virt. eigenvalues --    0.15452   0.16122   0.16330   0.17281   0.17947

 Mulliken charges and spin densities:
               1          2
     1  C   -0.047828  -0.503906
     2  C   -0.302817   0.306055
     3  C   -0.238877   0.194399
     4  O   -0.464991   0.195352
     5  C    0.032061  -0.097485
     6  C   -0.181037   0.151665
     7  C   -0.217959  -0.147194
     8  C    0.610065   0.076403
     9  N   -0.153996   0.080188
    10  C   -0.620930  -0.068179
    11  C   -0.005966   0.227321
    12  O   -0.139687   0.004152
    13  H    0.143464  -0.009527
    14  H   -0.228930   0.341996
    15  H    0.109262   0.012463
    16  H    0.003209   0.158239
    17  H    0.037955   0.065830
    18  H    0.119280   0.033395
    19  H    0.284076  -0.007799
    20  H    0.116490   0.001831
    21  H    0.147156  -0.015199
 Sum of Mulliken charges =  -1.00000   1.00000

 Dipole moment (field-independent basis, Debye):
    X=             -4.2782    Y=             -0.2556    Z=              0.6272  Tot=              4.3315
 Quadrupole moment (field-independent basis, Debye-Ang):
   XX=           -115.8559   YY=            -86.9164   ZZ=            -81.3438
   XY=             -7.0917   XZ=             -0.8843   YZ=              1.6465

 Summary of Natural Population Analysis:

                                       Natural Population
                Natural  -----------------------------------------------
    Atom  No    Charge         Core      Valence    Rydberg      Total
 -----------------------------------------------------------------------
      C    1   -0.27944      0.99966     2.27385    0.00592     3.27944
      C    2   -0.22847      0.99962     2.21867    0.01017     3.22847
      C    3    0.29887      0.99958     1.68034    0.02120     2.70113
      O    4   -0.27237      0.99988     3.26621    0.00628     4.27237
      C    5    0.04399      0.99954     1.94471    0.01176     2.95601
      C    6   -0.12153      0.99949     2.11419    0.00785     3.12153
      C    7    0.09864      0.99930     1.88792    0.01414     2.90136
      C    8    0.05101      0.99944     1.93861    0.01094     2.94899
      N    9   -0.24008      0.99963     2.73289    0.00756     3.74008
      C   10   -0.18316      0.99954     2.17578    0.00784     3.18316
      C   11    0.10511      0.99954     1.88001    0.01534     2.89489
      O   12   -0.23996      0.99986     3.23215    0.00795     4.23996
      H   13    0.09646      0.00000     0.40249    0.00105     0.40354
      H   14    0.09062      0.00000     0.40774    0.00164     0.40938
      H   15    0.09654      0.00000     0.40237    0.00109     0.40346
      H   16    0.09953      0.00000     0.39866    0.00181     0.40047
      H   17    0.09484      0.00000     0.40348    0.00167     0.40516
      H   18    0.10167      0.00000     0.39715    0.00117     0.39833
      H   19    0.20444      0.00000     0.29347    0.00209     0.29556
      H   20    0.10184      0.00000     0.39724    0.00092     0.39816
      H   21    0.08144      0.00000     0.41763    0.00093     0.41856
 =======================================================================
   * Total *   -0.00000     11.99508    30.86557    0.13935    43.00000

 Normal termination of Gaussian 16 at Wed Dec  9 18:35:38 2020.
