 Gaussian 16, Revision A.03,

 -----------------------------------------------------------
 # opt freq B3LYP/6-31G(d) empiricaldispersion=gd3bj scf=xqc
 -----------------------------------------------------------

 ------------------------------
 CID_76845074_JID_2896_neutraal
 ------------------------------
 Symbolic Z-matrix:
 Charge =  0 Multiplicity = 1

 SCF Done:  E(RB3LYP) =  -1251.46594366     A.U. after   16 cycles
 SCF Done:  E(RB3LYP) =  -1251.47622437     A.U. after   14 cycles
 SCF Done:  E(RB3LYP) =  -1251.47696331     A.U. after   13 cycles
 SCF Done:  E(RB3LYP) =  -1251.47733683     A.U. after   12 cycles
 SCF Done:  E(RB3LYP) =  -1251.47752865     A.U. after   12 cycles
 SCF Done:  E(RB3LYP) =  -1251.47754692     A.U. after   11 cycles
 SCF Done:  E(RB3LYP) =  -1251.47755424     A.U. after   10 cycles
 SCF Done:  E(RB3LYP) =  -1251.47755620     A.U. after    9 cycles
 SCF Done:  E(RB3LYP) =  -1251.47755682     A.U. after    9 cycles
 SCF Done:  E(RB3LYP) =  -1251.47755694     A.U. after    7 cycles
 Optimization completed.
    -- Stationary point found.
 Normal termination of Gaussian 16 at Wed Dec  9 17:55:13 2020.

 --------------------------------------------------------------------
 #N Geom=AllCheck Guess=TCheck SCRF=Check GenChk RB3LYP/6-31G(d) Freq
 --------------------------------------------------------------------

 Structure from the checkpoint file:  "JID_2896.chk"
 ------------------------------
 CID_76845074_JID_2896_neutraal
 ------------------------------
 Charge =  0 Multiplicity = 1

 SCF Done:  E(RB3LYP) =  -1251.47755694     A.U. after    1 cycles

  Exact polarizability: 209.156   7.707 121.712  -2.067   2.185  60.337
 Approx polarizability: 335.999  44.608 240.983  -4.364   0.653  99.574

                      1                      2                      3
                      A                      A                      A
 Frequencies --     55.3988               101.9302               118.5605
 Red. masses --      6.3166                 3.7480                 1.3952
 Frc consts  --      0.0114                 0.0229                 0.0116
 IR Inten    --      3.0826                 2.3514                 0.3548

                      4                      5                      6
                      A                      A                      A
 Frequencies --    151.3323               153.9205               181.0124
 Red. masses --      3.6684                 3.8036                 6.1254
 Frc consts  --      0.0495                 0.0531                 0.1182
 IR Inten    --      1.9520                 2.7480                 2.0634

                      7                      8                      9
                      A                      A                      A
 Frequencies --    220.0823               281.8051               331.2136
 Red. masses --     11.0692                 5.5848                 7.6216
 Frc consts  --      0.3159                 0.2613                 0.4926
 IR Inten    --      5.4110                 3.5114                 4.0823

                     10                     11                     12
                      A                      A                      A
 Frequencies --    375.3144               449.2298               498.4271
 Red. masses --      7.3764                 5.0878                 9.2220
 Frc consts  --      0.6122                 0.6049                 1.3498
 IR Inten    --      1.6468                 6.4247                 0.9663

                     13                     14                     15
                      A                      A                      A
 Frequencies --    517.4511               589.5303               624.8772
 Red. masses --     12.5405                 4.9209                 4.6199
 Frc consts  --      1.9784                 1.0076                 1.0629
 IR Inten    --      0.2559                 5.7732                 4.6638

                     16                     17                     18
                      A                      A                      A
 Frequencies --    641.3104               685.0302               696.1533
 Red. masses --     11.8636                10.1781                 8.5195
 Frc consts  --      2.8748                 2.8141                 2.4326
 IR Inten    --      4.2613                18.0193                13.4376

                     19                     20                     21
                      A                      A                      A
 Frequencies --    720.3016               787.1515               816.3602
 Red. masses --      6.5434                 1.5194                 3.4671
 Frc consts  --      2.0002                 0.5547                 1.3614
 IR Inten    --      4.5803                37.7870                62.9929

                     22                     23                     24
                      A                      A                      A
 Frequencies --    848.2895               925.1635               947.7626
 Red. masses --      5.5847                 4.9238                 1.4778
 Frc consts  --      2.3678                 2.4830                 0.7821
 IR Inten    --     12.6838                33.3968                 4.0519

                     25                     26                     27
                      A                      A                      A
 Frequencies --    950.8830               974.6260               996.8697
 Red. masses --      4.8309                 3.3937                 1.1924
 Frc consts  --      2.5736                 1.8993                 0.6982
 IR Inten    --     20.3499                 6.2644                 3.9619

                     28                     29                     30
                      A                      A                      A
 Frequencies --   1014.5209              1113.3608              1121.6907
 Red. masses --      1.4731                 1.9496                 1.5112
 Frc consts  --      0.8933                 1.4238                 1.1203
 IR Inten    --      3.7441                50.1643                50.3754

                     31                     32                     33
                      A                      A                      A
 Frequencies --   1185.7400              1189.2371              1246.6357
 Red. masses --      1.6841                 1.4362                 7.7918
 Frc consts  --      1.3951                 1.1967                 7.1346
 IR Inten    --     15.4564                90.5480               468.0991

                     34                     35                     36
                      A                      A                      A
 Frequencies --   1279.9216              1386.6086              1392.4852
 Red. masses --      2.0827                 1.1944                 2.9570
 Frc consts  --      2.0102                 1.3530                 3.3782
 IR Inten    --     41.5486                13.8174                34.1086

                     37                     38                     39
                      A                      A                      A
 Frequencies --   1484.6226              1486.4501              1501.3008
 Red. masses --      2.8135                 1.1023                 1.3241
 Frc consts  --      3.6537                 1.4350                 1.7583
 IR Inten    --    175.5733                16.8751                49.4768

                     40                     41                     42
                      A                      A                      A
 Frequencies --   1568.2272              1640.9268              1808.1381
 Red. masses --      6.7308                11.0202                12.8886
 Frc consts  --      9.7529                17.4831                24.8267
 IR Inten    --    125.1200               619.5700               270.1558

                     43                     44                     45
                      A                      A                      A
 Frequencies --   3032.0695              3085.1563              3177.5412
 Red. masses --      1.0809                 1.0294                 1.1059
 Frc consts  --      5.8548                 5.7731                 6.5789
 IR Inten    --      6.8355                10.7387                 6.6057

                     46                     47                     48
                      A                      A                      A
 Frequencies --   3186.7138              3238.4193              3256.4513
 Red. masses --      1.1073                 1.0881                 1.1003
 Frc consts  --      6.6254                 6.7234                 6.8744
 IR Inten    --      2.0204                 0.7043                 0.2635

 - Thermochemistry -
 -------------------
 Temperature   298.150 Kelvin.  Pressure   1.00000 Atm.
 Atom     1 has atomic number  6 and mass  12.00000

 Molecular mass:   197.99216 amu.
 Principal axes and moments of inertia in atomic units:
                           1         2         3
     Eigenvalues --  1088.184303829.942454837.86335
           X            0.99958  -0.02884  -0.00170
           Y            0.02886   0.99954   0.00939
           Z            0.00143  -0.00943   0.99995
 This molecule is an asymmetric top.
 Rotational symmetry number  1.
 Warning -- assumption of classical behavior for rotation
           may cause significant error
 Rotational temperatures (Kelvin)      0.07959     0.02261     0.01790
 Rotational constants (GHZ):           1.65849     0.47122     0.37305
 Zero-point vibrational energy     323208.3 (Joules/Mol)
                                   77.24863 (Kcal/Mol)
 Warning -- explicit consideration of  14 degrees of freedom as
           vibrations may cause significant error
 Vibrational temperatures:     79.71   146.65   170.58   217.73   221.46
          (Kelvin)            260.44   316.65   405.45   476.54   539.99
                              646.34   717.13   744.50   848.20   899.06
                              922.70   985.61  1001.61  1036.35  1132.54
                             1174.56  1220.50  1331.10  1363.62  1368.11
                             1402.27  1434.27  1459.67  1601.88  1613.86
                             1706.02  1711.05  1793.63  1841.52  1995.02
                             2003.48  2136.04  2138.67  2160.04  2256.33
                             2360.93  2601.51  4362.47  4438.85  4571.77
                             4584.97  4659.36  4685.31

 Zero-point correction=                           0.123104 (Hartree/Particle)
 Thermal correction to Energy=                    0.133859
 Thermal correction to Enthalpy=                  0.134803
 Thermal correction to Gibbs Free Energy=         0.085618
 Sum of electronic and zero-point Energies=          -1251.354453
 Sum of electronic and thermal Energies=             -1251.343698
 Sum of electronic and thermal Enthalpies=           -1251.342754
 Sum of electronic and thermal Free Energies=        -1251.391939

                     E (Thermal)             CV                S
                      KCal/Mol        Cal/Mol-Kelvin    Cal/Mol-Kelvin
 Total                   83.998             39.660            103.518
 Electronic               0.000              0.000              0.000
 Translational            0.889              2.981             41.754
 Rotational               0.889              2.981             31.378
 Vibrational             82.220             33.698             30.386
 Vibration     1          0.596              1.975              4.615
 Vibration     2          0.604              1.948              3.417
 Vibration     3          0.609              1.934              3.124
 Vibration     4          0.619              1.901              2.655
 Vibration     5          0.619              1.898              2.623
 Vibration     6          0.630              1.866              2.318
 Vibration     7          0.647              1.810              1.958
 Vibration     8          0.681              1.707              1.523
 Vibration     9          0.714              1.613              1.254
 Vibration    10          0.746              1.523              1.058
 Vibration    11          0.808              1.363              0.798
 Vibration    12          0.854              1.254              0.662
 Vibration    13          0.872              1.211              0.616
 Vibration    14          0.947              1.054              0.468

 Optimization completed.
    -- Stationary point found.
 Normal termination of Gaussian 16 at Wed Dec  9 17:58:47 2020.

 ----------------------------------------------------------------------
 # B3LYP/6-311++G(d,p) empiricaldispersion=gd3bj scf=xqc pop=npa geom=c
 heck
 ----------------------------------------------------------------------

 --------------------------------------
 CID_76845074_JID_2896_Energie_neutraal
 --------------------------------------
 Structure from the checkpoint file:  "JID_2896.chk"
 Charge =  0 Multiplicity = 1

 SCF Done:  E(RB3LYP) =  -1251.65415422     A.U. after   17 cycles
 Normal termination of Gaussian 16 at Wed Dec  9 18:00:37 2020.

 ----------------------------------------------------------------------
 # B3LYP/6-311++G(d,p) empiricaldispersion=gd3bj scf=xqc pop=npa geom=c
 heck
 ----------------------------------------------------------------------

 ------------------------------------
 CID_76845074_JID_2896_Energie_kation
 ------------------------------------
 Structure from the checkpoint file:  "JID_2896.chk"
 Charge =  1 Multiplicity = 2

 SCF Done:  E(UB3LYP) =  -1251.34054340     A.U. after   28 cycles
 Normal termination of Gaussian 16 at Wed Dec  9 18:04:26 2020.
 Gaussian 16:  ES64L-G16RevA.03 25-Dec-2016

 ----------------------------------------------------------------------
 # B3LYP/6-311++G(d,p) empiricaldispersion=gd3bj scf=xqc pop=npa geom=c
 heck
 ----------------------------------------------------------------------

 -----------------------------------
 CID_76845074_JID_2896_Energie_anion
 -----------------------------------
 Structure from the checkpoint file:  "JID_2896.chk"
 Charge = -1 Multiplicity = 2

                         Standard orientation:
 ---------------------------------------------------------------------
 Center     Atomic      Atomic             Coordinates (Angstroms)
 Number     Number       Type             X           Y           Z
 ---------------------------------------------------------------------
      1          6           0       -3.918939    0.669504    0.067076
      2         16           0       -2.994811   -0.901068    0.016563
      3          6           0       -1.345513   -0.309600   -0.034467
      4          7           0       -1.107923    0.974518   -0.090923
      5          6           0        0.212033    1.408524   -0.068558
      6          8           0        0.566214    2.528379   -0.372500
      7          6           0        1.188020    0.368668    0.488560
      8          6           0        0.800236   -1.030053    0.065246
      9          7           0       -0.443684   -1.370006   -0.095335
     10          6           0        1.952057   -1.849289   -0.178349
     11          6           0        3.106986   -1.131450   -0.180744
     12         16           0        2.971800    0.582171    0.128293
     13          1           0       -4.977466    0.400531    0.096303
     14          1           0       -3.699631    1.261788   -0.822033
     15          1           0       -3.649402    1.242306    0.955667
     16          1           0        1.083690    0.421295    1.583152
     17          1           0        1.881554   -2.904309   -0.411679
     18          1           0        4.091688   -1.535695   -0.387881
 ---------------------------------------------------------------------

 SCF Done:  E(UB3LYP) =  -1251.70634393     A.U. after   22 cycles

 The electronic state is 2-A.
 Alpha  occ. eigenvalues --  -88.72490 -88.72278 -18.94855 -14.15508 -14.14587
 Alpha  occ. eigenvalues --  -10.12346 -10.11352 -10.07620 -10.07585 -10.06742
 Alpha  occ. eigenvalues --  -10.06657 -10.04156  -7.81130  -7.80950  -5.77475
 Alpha  occ. eigenvalues --   -5.77332  -5.77134  -5.76912  -5.76609  -5.76407
 Alpha  occ. eigenvalues --   -0.89695  -0.82503  -0.74508  -0.71197  -0.66881
 Alpha  occ. eigenvalues --   -0.61054  -0.59091  -0.53869  -0.48041  -0.45637
 Alpha  occ. eigenvalues --   -0.41511  -0.39434  -0.35829  -0.33573  -0.31369
 Alpha  occ. eigenvalues --   -0.31150  -0.30401  -0.28784  -0.27369  -0.25846
 Alpha  occ. eigenvalues --   -0.24159  -0.23469  -0.22148  -0.20985  -0.20076
 Alpha  occ. eigenvalues --   -0.17048  -0.14446  -0.12406  -0.11209  -0.10141
 Alpha  occ. eigenvalues --   -0.08697   0.00823
 Alpha virt. eigenvalues --    0.08527   0.08958   0.10612   0.10935   0.11541
 Alpha virt. eigenvalues --    0.12265   0.13299   0.13833   0.14080   0.14931
 Alpha virt. eigenvalues --    0.15625   0.15858   0.16750   0.17008   0.17370

  Beta  occ. eigenvalues --  -88.72442 -88.72254 -18.94655 -14.15539 -14.14496
  Beta  occ. eigenvalues --  -10.12252 -10.11026 -10.07642 -10.07623 -10.06218
  Beta  occ. eigenvalues --  -10.06149 -10.04331  -7.81086  -7.80929  -5.77443
  Beta  occ. eigenvalues --   -5.77324  -5.77106  -5.76907  -5.76469  -5.76321
  Beta  occ. eigenvalues --   -0.89348  -0.82050  -0.74060  -0.70857  -0.66701
  Beta  occ. eigenvalues --   -0.60775  -0.58596  -0.53686  -0.47352  -0.45251
  Beta  occ. eigenvalues --   -0.41068  -0.39214  -0.35259  -0.33401  -0.31214
  Beta  occ. eigenvalues --   -0.30896  -0.30159  -0.28328  -0.27023  -0.25316
  Beta  occ. eigenvalues --   -0.23657  -0.22513  -0.21759  -0.20814  -0.18663
  Beta  occ. eigenvalues --   -0.16334  -0.13618  -0.12225  -0.10506  -0.09912
  Beta  occ. eigenvalues --   -0.08200
  Beta virt. eigenvalues --    0.07261   0.08527   0.08972   0.10921   0.11290
  Beta virt. eigenvalues --    0.12165   0.12474   0.13353   0.13856   0.14145
  Beta virt. eigenvalues --    0.15087   0.15675   0.16143   0.17074   0.17098

 Mulliken charges and spin densities:
               1          2
     1  C   -0.609157  -0.000287
     2  S   -0.164643   0.043660
     3  C   -0.066980   0.187830
     4  N   -0.066507   0.048866
     5  C   -0.229336   0.062461
     6  O   -0.352287   0.068733
     7  C    0.756154  -0.138723
     8  C   -0.563086   0.418668
     9  N    0.025513  -0.026828
    10  C   -0.014446  -0.164580
    11  C   -0.482079   0.383415
    12  S   -0.222118   0.029654
    13  H    0.110593  -0.000504
    14  H    0.180132   0.002027
    15  H    0.174580   0.001013
    16  H    0.187907   0.095116
    17  H    0.133511   0.007481
    18  H    0.202251  -0.018003
 Sum of Mulliken charges =  -1.00000   1.00000

 Dipole moment (field-independent basis, Debye):
    X=             -0.6436    Y=             -2.0745    Z=              1.2635  Tot=              2.5128
 Quadrupole moment (field-independent basis, Debye-Ang):
   XX=           -104.8100   YY=           -110.6627   ZZ=            -90.3964
   XY=             -8.5177   XZ=             -1.0051   YZ=              3.4456

 Summary of Natural Population Analysis:

                                       Natural Population
                Natural  -----------------------------------------------
    Atom  No    Charge         Core      Valence    Rydberg      Total
 -----------------------------------------------------------------------
      C    1   -0.35296      0.99962     2.34795    0.00539     3.35296
      S    2    0.13608      4.99950     2.84217    0.02225     7.86392
      C    3    0.20635      0.99960     1.77291    0.02113     2.79365
      N    4   -0.31819      0.99959     2.80371    0.01489     3.81819
      C    5    0.34851      0.99962     1.62569    0.02618     2.65149
      O    6   -0.28403      0.99987     3.27743    0.00674     4.28403
      C    7   -0.23579      0.99946     2.22564    0.01069     3.23579
      C    8    0.23802      0.99953     1.74725    0.01520     2.76198
      N    9   -0.30146      0.99962     2.78881    0.01303     3.80146
      C   10   -0.19676      0.99948     2.18636    0.01092     3.19676
      C   11   -0.04041      0.99954     2.03110    0.00976     3.04041
      S   12    0.15935      4.99955     2.81795    0.02315     7.84065
      H   13    0.09494      0.00000     0.40394    0.00112     0.40506
      H   14    0.11009      0.00000     0.38868    0.00123     0.38991
      H   15    0.10651      0.00000     0.39228    0.00122     0.39349
      H   16    0.13371      0.00000     0.36481    0.00148     0.36629
      H   17    0.10434      0.00000     0.39419    0.00147     0.39566
      H   18    0.09169      0.00000     0.40736    0.00095     0.40831
 =======================================================================
   * Total *   -0.00000     19.99500    30.81822    0.18678    51.00000

 Normal termination of Gaussian 16 at Wed Dec  9 18:07:14 2020.
