 Gaussian 16, Revision A.03,

 -----------------------------------------------------------
 # opt freq B3LYP/6-31G(d) empiricaldispersion=gd3bj scf=xqc
 -----------------------------------------------------------

 ------------------------------
 CID_143629252_JID_750_neutraal
 ------------------------------
 Symbolic Z-matrix:
 Charge =  0 Multiplicity = 1

 SCF Done:  E(RB3LYP) =  -423.979586916     A.U. after   14 cycles
 SCF Done:  E(RB3LYP) =  -423.985175929     A.U. after   13 cycles
 SCF Done:  E(RB3LYP) =  -423.985564363     A.U. after   12 cycles
 SCF Done:  E(RB3LYP) =  -423.985650418     A.U. after   11 cycles
 SCF Done:  E(RB3LYP) =  -423.985693866     A.U. after   10 cycles
 SCF Done:  E(RB3LYP) =  -423.985715470     A.U. after   10 cycles
 SCF Done:  E(RB3LYP) =  -423.985723508     A.U. after    9 cycles
 SCF Done:  E(RB3LYP) =  -423.985727730     A.U. after    9 cycles
 SCF Done:  E(RB3LYP) =  -423.985729798     A.U. after    8 cycles
 SCF Done:  E(RB3LYP) =  -423.985731186     A.U. after    8 cycles
 SCF Done:  E(RB3LYP) =  -423.985731915     A.U. after    8 cycles
 SCF Done:  E(RB3LYP) =  -423.985732131     A.U. after    8 cycles
 SCF Done:  E(RB3LYP) =  -423.985732191     A.U. after    7 cycles
 SCF Done:  E(RB3LYP) =  -423.985732215     A.U. after    7 cycles
 Optimization completed.
    -- Stationary point found.

 1\1\GINC-NODE126\FOpt\RB3LYP\6-31G(d)\C8H16N2\VSC10255\08-Dec-2020\0\\
 # opt freq B3LYP/6-31G(d) empiricaldispersion=gd3bj scf=xqc\\CID_14362
 9252_JID_750_neutraal\\0,1\C,1.0236373294,0.0266280633,0.0577032177\C,
 0.4364033362,-0.3756333426,1.4185840417\C,-0.0937832581,0.8209256098,2
 .1651190639\N,-1.2545998311,1.0117122411,2.6483876434\C,-2.2642959407,
 0.0299348296,2.5733162596\C,-3.0668663033,-0.1471120944,1.5120356129\C
 ,-2.9665951832,0.5866825183,0.2069588213\C,-2.4280086222,-0.7547949742
 ,3.852426452\N,-1.3119424052,-1.6869354624,4.0272223727\C,-1.344207952

 Normal termination of Gaussian 16 at Tue Dec  8 12:51:20 2020.

 --------------------------------------------------------------------
 #N Geom=AllCheck Guess=TCheck SCRF=Check GenChk RB3LYP/6-31G(d) Freq
 --------------------------------------------------------------------

 Structure from the checkpoint file:  "JID_750.chk"
 ------------------------------
 CID_143629252_JID_750_neutraal
 ------------------------------
 Charge =  0 Multiplicity = 1

 SCF Done:  E(RB3LYP) =  -423.985732215     A.U. after    1 cycles

  Exact polarizability: 110.482  -0.505 108.141  -2.860  -7.799  81.972
 Approx polarizability: 136.026  -2.719 152.932  -8.380 -14.526 128.382

                      1                      2                      3
                      A                      A                      A
 Frequencies --     38.6335                64.9988                72.9902
 Red. masses --      3.0600                 2.8577                 2.5672
 Frc consts  --      0.0027                 0.0071                 0.0081
 IR Inten    --      0.9235                 0.4390                 1.0338

                      4                      5                      6
                      A                      A                      A
 Frequencies --     98.1552               110.0306               127.6907
 Red. masses --      2.1559                 1.6130                 1.4211
 Frc consts  --      0.0122                 0.0115                 0.0137
 IR Inten    --      1.6192                 1.1863                 0.7358

                      7                      8                      9
                      A                      A                      A
 Frequencies --    170.4609               200.8623               241.2689
 Red. masses --      2.5613                 1.5192                 1.3554
 Frc consts  --      0.0438                 0.0361                 0.0465
 IR Inten    --      0.1422                 0.6995                 1.0284

                     10                     11                     12
                      A                      A                      A
 Frequencies --    263.3807               277.9812               297.8552
 Red. masses --      1.7748                 2.0241                 2.7580
 Frc consts  --      0.0725                 0.0922                 0.1442
 IR Inten    --      1.2088                 3.1382                 1.5053

                     13                     14                     15
                      A                      A                      A
 Frequencies --    350.5880               388.4763               467.1690
 Red. masses --      3.3527                 2.4480                 2.7597
 Frc consts  --      0.2428                 0.2177                 0.3549
 IR Inten    --      0.9617                 1.9512                 3.4526

                     16                     17                     18
                      A                      A                      A
 Frequencies --    511.8183               659.2084               718.8935
 Red. masses --      3.7838                 2.7330                 4.3446
 Frc consts  --      0.5840                 0.6998                 1.3229
 IR Inten    --      8.0882                19.0873                 2.5579

                     19                     20                     21
                      A                      A                      A
 Frequencies --    784.2756               819.8515               824.1977
 Red. masses --      1.3963                 1.4628                 2.5665
 Frc consts  --      0.5060                 0.5793                 1.0272
 IR Inten    --     12.0700                60.3356                29.0043

                     22                     23                     24
                      A                      A                      A
 Frequencies --    834.5016               904.4660               930.7346
 Red. masses --      1.1916                 1.6068                 1.2815
 Frc consts  --      0.4889                 0.7744                 0.6541
 IR Inten    --     16.2156                 6.4975                 7.7686

                     25                     26                     27
                      A                      A                      A
 Frequencies --    948.3277               991.1031              1026.5995
 Red. masses --      1.9473                 1.6934                 2.3080
 Frc consts  --      1.0318                 0.9800                 1.4331
 IR Inten    --     21.4547                 6.9684                 7.7184

                     28                     29                     30
                      A                      A                      A
 Frequencies --   1043.2616              1068.8679              1105.0206
 Red. masses --      1.6696                 1.4555                 3.3622
 Frc consts  --      1.0707                 0.9797                 2.4189
 IR Inten    --     31.4055                 1.1044                 6.2643

                     31                     32                     33
                      A                      A                      A
 Frequencies --   1114.5229              1141.1975              1164.3432
 Red. masses --      1.7383                 2.1085                 1.7764
 Frc consts  --      1.2722                 1.6179                 1.4189
 IR Inten    --      2.8201                17.9256                24.8567

                     34                     35                     36
                      A                      A                      A
 Frequencies --   1175.5007              1192.3703              1228.2488
 Red. masses --      2.0742                 1.6487                 2.2926
 Frc consts  --      1.6887                 1.3811                 2.0378
 IR Inten    --     10.1638                 7.0741                 4.4306

                     37                     38                     39
                      A                      A                      A
 Frequencies --   1292.2046              1294.6737              1349.9261
 Red. masses --      1.2108                 1.2826                 1.4020
 Frc consts  --      1.1912                 1.2667                 1.5053
 IR Inten    --      1.7638                 6.0463                 1.9714

                     40                     41                     42
                      A                      A                      A
 Frequencies --   1377.0849              1397.3523              1436.5474
 Red. masses --      1.4042                 1.3732                 1.2302
 Frc consts  --      1.5689                 1.5798                 1.4957
 IR Inten    --     18.6461                17.4014                 2.8872

                     43                     44                     45
                      A                      A                      A
 Frequencies --   1439.2200              1457.9399              1481.3216
 Red. masses --      1.2314                 1.3686                 1.1813
 Frc consts  --      1.5028                 1.7140                 1.5273
 IR Inten    --      0.7629                 7.2607                 1.7737

                     46                     47                     48
                      A                      A                      A
 Frequencies --   1499.1039              1500.8685              1517.3072
 Red. masses --      1.0911                 1.2046                 1.0469
 Frc consts  --      1.4447                 1.5988                 1.4201
 IR Inten    --      0.9601                17.5044                 4.4173

                     49                     50                     51
                      A                      A                      A
 Frequencies --   1517.8966              1520.8618              1527.2924
 Red. masses --      1.0552                 1.0593                 1.0773
 Frc consts  --      1.4324                 1.4437                 1.4805
 IR Inten    --     12.6737                 2.9993                 6.6997

                     52                     53                     54
                      A                      A                      A
 Frequencies --   1530.9292              1535.3662              1545.3197
 Red. masses --      1.0430                 1.0548                 1.0457
 Frc consts  --      1.4403                 1.4650                 1.4713
 IR Inten    --      6.2576                 4.0907                 7.6079

                     55                     56                     57
                      A                      A                      A
 Frequencies --   1734.0622              1767.7687              2952.3487
 Red. masses --      7.1561                 9.6746                 1.0616
 Frc consts  --     12.6781                17.8129                 5.4519
 IR Inten    --     13.4635               116.0206                76.9555

                     58                     59                     60
                      A                      A                      A
 Frequencies --   2962.0557              3026.5358              3045.2507
 Red. masses --      1.0706                 1.0432                 1.0685
 Frc consts  --      5.5342                 5.6302                 5.8383
 IR Inten    --    115.6226                39.9908                10.9482

                     61                     62                     63
                      A                      A                      A
 Frequencies --   3050.0290              3064.5204              3072.2563
 Red. masses --      1.0364                 1.0891                 1.0960
 Frc consts  --      5.6805                 6.0259                 6.0950
 IR Inten    --     31.6305                22.8989                32.8935

                     64                     65                     66
                      A                      A                      A
 Frequencies --   3075.4776              3076.3764              3108.9494
 Red. masses --      1.0739                 1.0843                 1.0988
 Frc consts  --      5.9846                 6.0461                 6.2576
 IR Inten    --     23.5378                67.9272                 7.9025

                     67                     68                     69
                      A                      A                      A
 Frequencies --   3121.1411              3124.7097              3130.0833
 Red. masses --      1.1031                 1.1023                 1.0966
 Frc consts  --      6.3310                 6.3413                 6.3303
 IR Inten    --     30.2279                31.1559                14.8712

                     70                     71                     72
                      A                      A                      A
 Frequencies --   3133.3090              3163.9733              3487.0543
 Red. masses --      1.0971                 1.0890                 1.0740
 Frc consts  --      6.3462                 6.4232                 7.6944
 IR Inten    --     32.1362                27.5690                 0.9000

 - Thermochemistry -
 -------------------
 Temperature   298.150 Kelvin.  Pressure   1.00000 Atm.
 Atom     1 has atomic number  6 and mass  12.00000

 Molecular mass:   140.13135 amu.
 Principal axes and moments of inertia in atomic units:
                           1         2         3
     Eigenvalues --  1160.672212052.691072729.61347
           X            0.99998  -0.00141  -0.00535
           Y            0.00139   0.99999  -0.00481
           Z            0.00535   0.00481   0.99997
 This molecule is an asymmetric top.
 Rotational symmetry number  1.
 Warning -- assumption of classical behavior for rotation
           may cause significant error
 Rotational temperatures (Kelvin)      0.07462     0.04220     0.03173
 Rotational constants (GHZ):           1.55491     0.87921     0.66117
 Zero-point vibrational energy     614132.7 (Joules/Mol)
                                  146.78124 (Kcal/Mol)
 Warning -- explicit consideration of  16 degrees of freedom as
           vibrations may cause significant error
 Vibrational temperatures:     55.59    93.52   105.02   141.22   158.31
          (Kelvin)            183.72   245.26   289.00   347.13   378.95
                              399.95   428.55   504.42   558.93   672.15
                              736.39   948.45  1034.33  1128.40  1179.58
                             1185.84  1200.66  1301.32  1339.12  1364.43
                             1425.98  1477.05  1501.02  1537.86  1589.88
                             1603.55  1641.93  1675.23  1691.28  1715.55
                             1767.18  1859.19  1862.75  1942.24  1981.32
                             2010.48  2066.87  2070.72  2097.65  2131.29
                             2156.88  2159.42  2183.07  2183.91  2188.18
                             2197.43  2202.67  2209.05  2223.37  2494.93
                             2543.42  4247.77  4261.74  4354.51  4381.44
                             4388.31  4409.16  4420.29  4424.93  4426.22
                             4473.08  4490.63  4495.76  4503.49  4508.13
                             4552.25  5017.09

 Zero-point correction=                           0.233911 (Hartree/Particle)
 Thermal correction to Energy=                    0.246547
 Thermal correction to Enthalpy=                  0.247491
 Thermal correction to Gibbs Free Energy=         0.194429
 Sum of electronic and zero-point Energies=           -423.751821
 Sum of electronic and thermal Energies=              -423.739186
 Sum of electronic and thermal Enthalpies=            -423.738241
 Sum of electronic and thermal Free Energies=         -423.791303

                     E (Thermal)             CV                S
                      KCal/Mol        Cal/Mol-Kelvin    Cal/Mol-Kelvin
 Total                  154.710             44.241            111.678
 Electronic               0.000              0.000              0.000
 Translational            0.889              2.981             40.724
 Rotational               0.889              2.981             30.254
 Vibrational            152.933             38.279             40.700
 Vibration     1          0.594              1.981              5.328
 Vibration     2          0.597              1.971              4.299
 Vibration     3          0.599              1.967              4.071
 Vibration     4          0.604              1.950              3.491
 Vibration     5          0.606              1.941              3.268
 Vibration     6          0.611              1.926              2.981
 Vibration     7          0.626              1.879              2.430
 Vibration     8          0.638              1.839              2.125
 Vibration     9          0.658              1.777              1.794
 Vibration    10          0.670              1.740              1.639
 Vibration    11          0.679              1.714              1.546
 Vibration    12          0.691              1.678              1.429
 Vibration    13          0.727              1.574              1.164
 Vibration    14          0.757              1.495              1.006
 Vibration    15          0.824              1.323              0.746
 Vibration    16          0.867              1.224              0.629

 Optimization completed.
    -- Stationary point found.

 1\1\GINC-NODE126\Freq\RB3LYP\6-31G(d)\C8H16N2\VSC10255\08-Dec-2020\0\\
 #N Geom=AllCheck Guess=TCheck SCRF=Check GenChk RB3LYP/6-31G(d) Freq\\
 CID_143629252_JID_750_neutraal\\0,1\C,1.0236373294,0.0266280633,0.0577
 032177\C,0.4364033362,-0.3756333426,1.4185840417\C,-0.0937832581,0.820
 9256098,2.1651190639\N,-1.2545998311,1.0117122411,2.6483876434\C,-2.26
 42959407,0.0299348296,2.5733162596\C,-3.0668663033,-0.1471120944,1.512
 0356129\C,-2.9665951832,0.5866825183,0.2069588213\C,-2.4280086222,-0.7
 547949742,3.852426452\N,-1.3119424052,-1.6869354624,4.0272223727\C,-1.

 Normal termination of Gaussian 16 at Tue Dec  8 13:08:24 2020.

 ----------------------------------------------------------------------
 # B3LYP/6-311++G(d,p) empiricaldispersion=gd3bj scf=xqc pop=npa geom=c
 heck
 ----------------------------------------------------------------------

 --------------------------------------
 CID_143629252_JID_750_Energie_neutraal
 --------------------------------------
 Structure from the checkpoint file:  "JID_750.chk"
 Charge =  0 Multiplicity = 1

 SCF Done:  E(RB3LYP) =  -424.108684367     A.U. after   14 cycles
 Normal termination of Gaussian 16 at Tue Dec  8 13:17:15 2020.

 ----------------------------------------------------------------------
 # B3LYP/6-311++G(d,p) empiricaldispersion=gd3bj scf=xqc pop=npa geom=c
 heck
 ----------------------------------------------------------------------

 ------------------------------------
 CID_143629252_JID_750_Energie_kation
 ------------------------------------
 Structure from the checkpoint file:  "JID_750.chk"
 Charge =  1 Multiplicity = 2

 SCF Done:  E(UB3LYP) =  -423.822080147     A.U. after   22 cycles
 Normal termination of Gaussian 16 at Tue Dec  8 13:26:52 2020.
 Gaussian 16:  ES64L-G16RevA.03 25-Dec-2016

 -----------------------------------
 CID_143629252_JID_750_Energie_anion
 -----------------------------------
 Structure from the checkpoint file:  "JID_750.chk"
 Charge = -1 Multiplicity = 2

                         Standard orientation:
 ---------------------------------------------------------------------
 Center     Atomic      Atomic             Coordinates (Angstroms)
 Number     Number       Type             X           Y           Z
 ---------------------------------------------------------------------
      1          6           0        2.724653   -1.765061   -0.536541
      2          6           0        1.229520   -1.513740   -0.291452
      3          6           0        0.991032   -0.878283    1.053718
      4          7           0        0.372956    0.198041    1.331120
      5          6           0       -0.251698    0.977217    0.335279
      6          6           0        0.382300    1.892265   -0.414731
      7          6           0        1.856823    2.170025   -0.395602
      8          6           0       -1.742400    0.754259    0.252680
      9          7           0       -2.032330   -0.545597   -0.356711
     10          6           0       -3.452199   -0.875441   -0.334920
     11          1           0        3.280780   -0.821704   -0.564225
     12          1           0        2.882651   -2.279396   -1.490201
     13          1           0        3.159372   -2.386741    0.255168
     14          1           0        0.809392   -0.883151   -1.078682
     15          1           0        0.685391   -2.467969   -0.312184
     16          1           0        1.424389   -1.417517    1.905193
     17          1           0       -0.228376    2.501824   -1.078606
     18          1           0        2.335934    1.870910   -1.338886
     19          1           0        2.057443    3.241513   -0.267156
     20          1           0        2.353620    1.632497    0.417078
     21          1           0       -2.155668    0.737364    1.269305
     22          1           0       -2.215313    1.599157   -0.279732
     23          1           0       -1.705977   -0.522226   -1.321275
     24          1           0       -4.105892   -0.108804   -0.791905
     25          1           0       -3.615536   -1.822403   -0.859595
     26          1           0       -3.774789   -1.007910    0.704251
 ---------------------------------------------------------------------

 SCF Done:  E(UB3LYP) =  -424.093193944     A.U. after   31 cycles

 The electronic state is 2-A.
 Alpha  occ. eigenvalues --  -14.20038 -14.19334 -10.10842 -10.09271 -10.09080
 Alpha  occ. eigenvalues --  -10.08154 -10.06470 -10.06225 -10.05778 -10.05714
 Alpha  occ. eigenvalues --   -0.82982  -0.79516  -0.68895  -0.66152  -0.62298
 Alpha  occ. eigenvalues --   -0.56755  -0.53862  -0.52061  -0.49501  -0.40878
 Alpha  occ. eigenvalues --   -0.39214  -0.37243  -0.35704  -0.34486  -0.33951
 Alpha  occ. eigenvalues --   -0.31687  -0.31158  -0.30724  -0.29261  -0.27971
 Alpha  occ. eigenvalues --   -0.27162  -0.26447  -0.25945  -0.25113  -0.24312
 Alpha  occ. eigenvalues --   -0.19476  -0.18282  -0.12671  -0.11366   0.04672
 Alpha virt. eigenvalues --    0.06705   0.07495   0.08451   0.08886   0.09220
 Alpha virt. eigenvalues --    0.09661   0.10032   0.10640   0.11517   0.11788
 Alpha virt. eigenvalues --    0.12151   0.12517   0.12872   0.13161   0.14523

  Beta  occ. eigenvalues --  -14.19982 -14.19318 -10.10800 -10.09275 -10.09065
  Beta  occ. eigenvalues --  -10.08115 -10.06461 -10.06208 -10.05761 -10.05659
  Beta  occ. eigenvalues --   -0.82894  -0.79477  -0.68849  -0.66096  -0.62260
  Beta  occ. eigenvalues --   -0.56681  -0.53757  -0.51992  -0.49433  -0.40817
  Beta  occ. eigenvalues --   -0.39156  -0.37185  -0.35649  -0.34428  -0.33904
  Beta  occ. eigenvalues --   -0.31640  -0.31118  -0.30689  -0.29180  -0.27924
  Beta  occ. eigenvalues --   -0.27105  -0.26408  -0.25883  -0.25054  -0.24267
  Beta  occ. eigenvalues --   -0.19294  -0.18198  -0.12636  -0.11310
  Beta virt. eigenvalues --    0.06988   0.07660   0.07939   0.08905   0.09351
  Beta virt. eigenvalues --    0.09575   0.10295   0.10497   0.11074   0.11782
  Beta virt. eigenvalues --    0.12286   0.12552   0.12890   0.13246   0.13403

 Mulliken charges and spin densities:
               1          2
     1  C    1.667936  -2.292578
     2  C   -0.741248   0.676507
     3  C   -0.408935   0.341484
     4  N    0.045192   0.017030
     5  C   -0.259397   0.329107
     6  C   -0.089232   0.294516
     7  C    0.657601  -1.408185
     8  C   -0.130314  -0.733686
     9  N   -0.236644   0.216927
    10  C    0.928499  -1.294341
    11  H   -0.097553   0.230926
    12  H   -0.673512   0.830004
    13  H   -0.333582   0.462286
    14  H    0.267778  -0.143398
    15  H   -0.087988   0.276838
    16  H   -0.106859   0.289516
    17  H   -0.302444   0.469317
    18  H   -0.200700   0.360798
    19  H    0.103143   0.017988
    20  H    0.041287   0.123045
    21  H    0.074532   0.084825
    22  H   -0.065589   0.196936
    23  H   -0.184361   0.397131
    24  H   -0.378026   0.498700
    25  H   -0.429565   0.563839
    26  H   -0.060018   0.194465
 Sum of Mulliken charges =  -1.00000   1.00000

 Dipole moment (field-independent basis, Debye):
    X=             -0.0483    Y=              3.3822    Z=              3.4160  Tot=              4.8073
 Quadrupole moment (field-independent basis, Debye-Ang):
   XX=           -129.3701   YY=           -106.6279   ZZ=            -98.7404
   XY=              5.9407   XZ=             -0.2811   YZ=             -5.7348

 Summary of Natural Population Analysis:

                                       Natural Population
                Natural  -----------------------------------------------
    Atom  No    Charge         Core      Valence    Rydberg      Total
 -----------------------------------------------------------------------
      C    1   -0.28232      0.99966     2.27734    0.00532     3.28232
      C    2   -0.23056      0.99962     2.22169    0.00924     3.23056
      C    3    0.10135      0.99960     1.88359    0.01547     2.89865
      N    4   -0.22881      0.99964     2.71656    0.01261     3.72881
      C    5    0.06991      0.99941     1.91571    0.01497     2.93009
      C    6   -0.11998      0.99945     2.11136    0.00916     3.11998
      C    7   -0.30295      0.99965     2.29673    0.00656     3.30295
      C    8   -0.09709      0.99957     2.08503    0.01249     3.09709
      N    9   -0.33637      0.99975     2.82449    0.01213     3.83637
      C   10   -0.17698      0.99966     2.16851    0.00881     3.17698
      H   11    0.09730      0.00000     0.40131    0.00139     0.40270
      H   12    0.10439      0.00000     0.39294    0.00268     0.39561
      H   13    0.09495      0.00000     0.40370    0.00135     0.40505
      H   14    0.10529      0.00000     0.39263    0.00207     0.39471
      H   15    0.10928      0.00000     0.38905    0.00167     0.39072
      H   16    0.07655      0.00000     0.42207    0.00138     0.42345
      H   17    0.09446      0.00000     0.40452    0.00102     0.40554
      H   18    0.10312      0.00000     0.39565    0.00124     0.39688
      H   19    0.09751      0.00000     0.40168    0.00080     0.40249
      H   20    0.10486      0.00000     0.39408    0.00105     0.39514
      H   21    0.09632      0.00000     0.40227    0.00141     0.40368
      H   22    0.08430      0.00000     0.41402    0.00167     0.41570
      H   23    0.17135      0.00000     0.32449    0.00416     0.32865
      H   24    0.07878      0.00000     0.41909    0.00213     0.42122
      H   25    0.09652      0.00000     0.40220    0.00128     0.40348
      H   26    0.08880      0.00000     0.40987    0.00133     0.41120
 =======================================================================
   * Total *    0.00000      9.99603    28.87057    0.13340    39.00000

 Normal termination of Gaussian 16 at Tue Dec  8 13:37:28 2020.
