 Gaussian 16, Revision A.03,

 -----------------------------------------------------------
 # opt freq B3LYP/6-31G(d) empiricaldispersion=gd3bj scf=xqc
 -----------------------------------------------------------

 ------------------------------
 CID_70192608_JID_4777_neutraal
 ------------------------------
 Symbolic Z-matrix:
 Charge =  0 Multiplicity = 1

 SCF Done:  E(RB3LYP) =  -649.482589492     A.U. after   15 cycles
 SCF Done:  E(RB3LYP) =  -649.487544816     A.U. after   13 cycles
 SCF Done:  E(RB3LYP) =  -649.487777849     A.U. after   13 cycles
 SCF Done:  E(RB3LYP) =  -649.489640396     A.U. after   12 cycles
 SCF Done:  E(RB3LYP) =  -649.489952462     A.U. after   13 cycles
 SCF Done:  E(RB3LYP) =  -649.490208915     A.U. after   13 cycles
 SCF Done:  E(RB3LYP) =  -649.490464974     A.U. after   12 cycles
 SCF Done:  E(RB3LYP) =  -649.490539647     A.U. after   12 cycles
 SCF Done:  E(RB3LYP) =  -649.490569218     A.U. after   10 cycles
 SCF Done:  E(RB3LYP) =  -649.490586893     A.U. after   10 cycles
 SCF Done:  E(RB3LYP) =  -649.490600503     A.U. after   10 cycles
 SCF Done:  E(RB3LYP) =  -649.490606293     A.U. after   10 cycles
 SCF Done:  E(RB3LYP) =  -649.490608576     A.U. after    9 cycles
 SCF Done:  E(RB3LYP) =  -649.490609831     A.U. after    8 cycles
 SCF Done:  E(RB3LYP) =  -649.490609651     A.U. after    7 cycles
 SCF Done:  E(RB3LYP) =  -649.490609612     A.U. after    7 cycles
 Optimization completed.
    -- Stationary point found.
 Normal termination of Gaussian 16 at Thu Dec 10 10:39:49 2020.

 --------------------------------------------------------------------
 #N Geom=AllCheck Guess=TCheck SCRF=Check GenChk RB3LYP/6-31G(d) Freq
 --------------------------------------------------------------------

 Structure from the checkpoint file:  "JID_4777.chk"
 ------------------------------
 CID_70192608_JID_4777_neutraal
 ------------------------------
 Charge =  0 Multiplicity = 1

 SCF Done:  E(RB3LYP) =  -649.490609612     A.U. after    1 cycles

  Exact polarizability: 207.639  15.926 117.930 -15.900   6.928  77.894
 Approx polarizability: 286.810  38.737 201.230 -30.207  11.876 111.534

                      1                      2                      3
                      A                      A                      A
 Frequencies --     21.3470                35.1447                60.2813
 Red. masses --      4.1643                 4.1220                 3.8211
 Frc consts  --      0.0011                 0.0030                 0.0082
 IR Inten    --      1.2758                 4.0716                 0.0570

                      4                      5                      6
                      A                      A                      A
 Frequencies --     70.7575                93.0190               116.9096
 Red. masses --      4.5954                 4.9402                 3.5659
 Frc consts  --      0.0136                 0.0252                 0.0287
 IR Inten    --      0.5296                 0.2874                 1.8703

                      7                      8                      9
                      A                      A                      A
 Frequencies --    155.3161               161.3417               199.1119
 Red. masses --      2.2532                 3.2948                 2.7109
 Frc consts  --      0.0320                 0.0505                 0.0633
 IR Inten    --      0.9297                 2.5836                 3.2023

                     10                     11                     12
                      A                      A                      A
 Frequencies --    242.1879               277.1580               326.5739
 Red. masses --      2.6027                 1.5619                 3.4866
 Frc consts  --      0.0899                 0.0707                 0.2191
 IR Inten    --      2.2464                 0.8129                 0.3716

                     13                     14                     15
                      A                      A                      A
 Frequencies --    341.1681               374.2521               392.6981
 Red. masses --      3.2810                 4.8402                 2.0608
 Frc consts  --      0.2250                 0.3994                 0.1872
 IR Inten    --      5.8942                18.3208                 1.0318

                     16                     17                     18
                      A                      A                      A
 Frequencies --    481.9764               524.1126               543.1808
 Red. masses --      3.1174                 1.4523                 3.0922
 Frc consts  --      0.4267                 0.2350                 0.5375
 IR Inten    --      2.2222                90.0898                 1.1981

                     19                     20                     21
                      A                      A                      A
 Frequencies --    647.8924               673.0145               676.2034
 Red. masses --      2.7452                 2.6036                 4.2005
 Frc consts  --      0.6789                 0.6948                 1.1316
 IR Inten    --     25.5760                 1.7858                10.8486

                     22                     23                     24
                      A                      A                      A
 Frequencies --    727.8826               763.4180               801.1036
 Red. masses --      5.1619                 1.4382                 3.3191
 Frc consts  --      1.6113                 0.4939                 1.2550
 IR Inten    --      3.0447                 3.4150                28.0664

                     25                     26                     27
                      A                      A                      A
 Frequencies --    804.7684               819.4027               851.3809
 Red. masses --      1.4082                 2.6210                 2.5398
 Frc consts  --      0.5374                 1.0368                 1.0847
 IR Inten    --     11.1296                 2.9248                 2.6669

                     28                     29                     30
                      A                      A                      A
 Frequencies --    855.4820               880.2595               907.4589
 Red. masses --      1.4563                 2.2043                 1.7560
 Frc consts  --      0.6280                 1.0063                 0.8520
 IR Inten    --     16.3038                 9.9303                 6.0761

                     31                     32                     33
                      A                      A                      A
 Frequencies --    940.1715               974.9750              1002.4295
 Red. masses --      6.1455                 2.0476                 1.6732
 Frc consts  --      3.2005                 1.1468                 0.9906
 IR Inten    --      5.0621                 1.8189                15.5001

                     34                     35                     36
                      A                      A                      A
 Frequencies --   1012.3656              1037.5286              1051.7054
 Red. masses --      1.1139                 3.2750                 2.1525
 Frc consts  --      0.6726                 2.0771                 1.4028
 IR Inten    --     27.1267                30.3904                68.5994

                     37                     38                     39
                      A                      A                      A
 Frequencies --   1098.4222              1133.0751              1148.7884
 Red. masses --      2.6103                 1.5323                 1.8509
 Frc consts  --      1.8555                 1.1591                 1.4392
 IR Inten    --     65.0179                96.6054                 9.8753

                     40                     41                     42
                      A                      A                      A
 Frequencies --   1172.6386              1173.0084              1216.4784
 Red. masses --      2.1329                 2.0139                 1.8854
 Frc consts  --      1.7280                 1.6327                 1.6438
 IR Inten    --      9.4784                53.9373                42.8258

                     43                     44                     45
                      A                      A                      A
 Frequencies --   1273.3906              1282.1477              1293.0320
 Red. masses --      1.5870                 1.7063                 1.4806
 Frc consts  --      1.5161                 1.6526                 1.4585
 IR Inten    --    269.1081               254.2223                36.7826

                     46                     47                     48
                      A                      A                      A
 Frequencies --   1302.9624              1326.7060              1342.2981
 Red. masses --      1.5294                 1.9287                 1.2085
 Frc consts  --      1.5298                 2.0002                 1.2829
 IR Inten    --    191.0195                 7.5992                 2.4151

                     49                     50                     51
                      A                      A                      A
 Frequencies --   1344.1687              1389.5653              1397.5385
 Red. masses --      1.6678                 1.5995                 2.5397
 Frc consts  --      1.7754                 1.8197                 2.9226
 IR Inten    --     20.5473                10.8995                18.4965

                     52                     53                     54
                      A                      A                      A
 Frequencies --   1411.5868              1432.8679              1448.1600
 Red. masses --      1.4726                 1.3996                 1.2614
 Frc consts  --      1.7288                 1.6931                 1.5587
 IR Inten    --      2.6751                16.3909                17.0513

                     55                     56                     57
                      A                      A                      A
 Frequencies --   1449.6397              1490.7178              1504.7284
 Red. masses --      2.9559                 3.6733                 1.0887
 Frc consts  --      3.6598                 4.8095                 1.4524
 IR Inten    --     43.8043                68.0950                 0.9878

                     58                     59                     60
                      A                      A                      A
 Frequencies --   1524.6182              1525.8962              1534.8199
 Red. masses --      1.0584                 1.0853                 1.0706
 Frc consts  --      1.4495                 1.4889                 1.4859
 IR Inten    --      1.7952                15.2385                10.6937

                     61                     62                     63
                      A                      A                      A
 Frequencies --   1553.2481              1605.7049              1699.1906
 Red. masses --      1.0562                 3.9775                 5.9556
 Frc consts  --      1.5014                 6.0421                10.1311
 IR Inten    --      3.3718                12.8831               137.2433

                     64                     65                     66
                      A                      A                      A
 Frequencies --   1787.5402              3031.8702              3041.5931
 Red. masses --     10.2605                 1.0615                 1.0628
 Frc consts  --     19.3167                 5.7490                 5.7931
 IR Inten    --    401.6571                23.1394                21.0378

                     67                     68                     69
                      A                      A                      A
 Frequencies --   3045.2156              3070.2026              3077.1416
 Red. masses --      1.0414                 1.0985                 1.0988
 Frc consts  --      5.6901                 6.1010                 6.1300
 IR Inten    --     31.7872                30.6010                43.8397

                     70                     71                     72
                      A                      A                      A
 Frequencies --   3087.5556              3108.0403              3139.3515
 Red. masses --      1.0672                 1.1002                 1.1008
 Frc consts  --      5.9943                 6.2616                 6.3921
 IR Inten    --     64.7429                45.0995                20.1436

                     73                     74                     75
                      A                      A                      A
 Frequencies --   3158.5202              3186.1884              3221.1230
 Red. masses --      1.1013                 1.0892                 1.0901
 Frc consts  --      6.4732                 6.5146                 6.6638
 IR Inten    --      9.1952                 2.6952                 5.2029

                     76                     77                     78
                      A                      A                      A
 Frequencies --   3265.5303              3273.9516              3644.4348
 Red. masses --      1.0955                 1.0981                 1.0811
 Frc consts  --      6.8829                 6.9349                 8.4598
 IR Inten    --      2.9544                 0.7757                45.8720

 - Thermochemistry -
 -------------------
 Temperature   298.150 Kelvin.  Pressure   1.00000 Atm.
 Atom     1 has atomic number  6 and mass  12.00000

 Molecular mass:   194.10553 amu.
 Principal axes and moments of inertia in atomic units:
                           1         2         3
     Eigenvalues --  1093.825427105.533107374.72054
           X            0.99996  -0.00332   0.00859
           Y            0.00288   0.99865   0.05179
           Z           -0.00875  -0.05177   0.99862
 This molecule is an asymmetric top.
 Rotational symmetry number  1.
 Warning -- assumption of classical behavior for rotation
           may cause significant error
 Rotational temperatures (Kelvin)      0.07918     0.01219     0.01174
 Rotational constants (GHZ):           1.64994     0.25399     0.24472
 Zero-point vibrational energy     616421.6 (Joules/Mol)
                                  147.32829 (Kcal/Mol)
 Warning -- explicit consideration of  18 degrees of freedom as
           vibrations may cause significant error
 Vibrational temperatures:     30.71    50.57    86.73   101.80   133.83
          (Kelvin)            168.21   223.47   232.13   286.48   348.45
                              398.77   469.87   490.86   538.47   565.00
                              693.46   754.08   781.52   932.17   968.32
                              972.91  1047.26  1098.39  1152.61  1157.88
                             1178.94  1224.95  1230.85  1266.50  1305.63
                             1352.70  1402.77  1442.27  1456.57  1492.77
                             1513.17  1580.38  1630.24  1652.85  1687.17
                             1687.70  1750.24  1832.13  1844.72  1860.38
                             1874.67  1908.83  1931.27  1933.96  1999.27
                             2010.75  2030.96  2061.58  2083.58  2085.71
                             2144.81  2164.97  2193.59  2195.42  2208.26
                             2234.78  2310.25  2444.76  2571.87  4362.18
                             4376.17  4381.39  4417.34  4427.32  4442.30
                             4471.78  4516.83  4544.41  4584.21  4634.48
                             4698.37  4710.49  5243.53

 Zero-point correction=                           0.234783 (Hartree/Particle)
 Thermal correction to Energy=                    0.248784
 Thermal correction to Enthalpy=                  0.249728
 Thermal correction to Gibbs Free Energy=         0.191530
 Sum of electronic and zero-point Energies=           -649.255827
 Sum of electronic and thermal Energies=              -649.241826
 Sum of electronic and thermal Enthalpies=            -649.240882
 Sum of electronic and thermal Free Energies=         -649.299080

                     E (Thermal)             CV                S
                      KCal/Mol        Cal/Mol-Kelvin    Cal/Mol-Kelvin
 Total                  156.114             50.790            122.489
 Electronic               0.000              0.000              0.000
 Translational            0.889              2.981             41.695
 Rotational               0.889              2.981             32.416
 Vibrational            154.337             44.829             48.378
 Vibration     1          0.593              1.985              6.505
 Vibration     2          0.594              1.982              5.516
 Vibration     3          0.597              1.973              4.448
 Vibration     4          0.598              1.968              4.132
 Vibration     5          0.602              1.954              3.596
 Vibration     6          0.608              1.935              3.151
 Vibration     7          0.620              1.897              2.606
 Vibration     8          0.622              1.890              2.534
 Vibration     9          0.637              1.841              2.141
 Vibration    10          0.658              1.776              1.787
 Vibration    11          0.678              1.716              1.551
 Vibration    12          0.710              1.622              1.277
 Vibration    13          0.721              1.593              1.207
 Vibration    14          0.745              1.525              1.062
 Vibration    15          0.760              1.486              0.990
 Vibration    16          0.838              1.290              0.705
 Vibration    17          0.879              1.197              0.600
 Vibration    18          0.898              1.155              0.558

 Optimization completed.
    -- Stationary point found.
 Normal termination of Gaussian 16 at Thu Dec 10 10:46:01 2020.

 ----------------------------------------------------------------------
 # B3LYP/6-311++G(d,p) empiricaldispersion=gd3bj scf=xqc pop=npa geom=c
 heck
 ----------------------------------------------------------------------

 --------------------------------------
 CID_70192608_JID_4777_Energie_neutraal
 --------------------------------------
 Structure from the checkpoint file:  "JID_4777.chk"
 Charge =  0 Multiplicity = 1

 SCF Done:  E(RB3LYP) =  -649.676205670     A.U. after   15 cycles
 Normal termination of Gaussian 16 at Thu Dec 10 10:49:14 2020.

 ----------------------------------------------------------------------
 # B3LYP/6-311++G(d,p) empiricaldispersion=gd3bj scf=xqc pop=npa geom=c
 heck
 ----------------------------------------------------------------------

 ------------------------------------
 CID_70192608_JID_4777_Energie_kation
 ------------------------------------
 Structure from the checkpoint file:  "JID_4777.chk"
 Charge =  1 Multiplicity = 2

 SCF Done:  E(UB3LYP) =  -649.372891025     A.U. after   22 cycles
 Normal termination of Gaussian 16 at Thu Dec 10 10:57:01 2020.
 Gaussian 16:  ES64L-G16RevA.03 25-Dec-2016

 ----------------------------------------------------------------------
 # B3LYP/6-311++G(d,p) empiricaldispersion=gd3bj scf=xqc pop=npa geom=c
 heck
 ----------------------------------------------------------------------

 -----------------------------------
 CID_70192608_JID_4777_Energie_anion
 -----------------------------------
 Structure from the checkpoint file:  "JID_4777.chk"
 Charge = -1 Multiplicity = 2

                         Standard orientation:
 ---------------------------------------------------------------------
 Center     Atomic      Atomic             Coordinates (Angstroms)
 Number     Number       Type             X           Y           Z
 ---------------------------------------------------------------------
      1          6           0       -4.220813   -0.505062   -1.396256
      2          6           0       -3.398542    0.780660   -1.266468
      3          6           0       -3.421262    1.402423    0.136935
      4          6           0       -2.802339    0.536756    1.229283
      5          8           0       -1.398946    0.329877    0.960624
      6          6           0       -1.002661   -0.918594    0.597404
      7          8           0       -1.745841   -1.881986    0.538493
      8          6           0        0.430705   -0.986749    0.280900
      9          6           0        1.258217    0.077992    0.309690
     10          6           0        2.662531    0.056120    0.001125
     11          6           0        3.550400   -0.939135   -0.387015
     12          7           0        4.811383   -0.440153   -0.562615
     13          6           0        4.718448    0.850253   -0.288893
     14          7           0        3.450164    1.201085    0.054830
     15          1           0       -3.801012   -1.310060   -0.786177
     16          1           0       -4.237515   -0.851353   -2.435620
     17          1           0       -5.260137   -0.340786   -1.084187
     18          1           0       -2.357604    0.584303   -1.554311
     19          1           0       -3.773304    1.529450   -1.976216
     20          1           0       -2.898393    2.367430    0.119532
     21          1           0       -4.459298    1.611650    0.432652
     22          1           0       -2.846929    1.044916    2.197245
     23          1           0       -3.289297   -0.435683    1.313236
     24          1           0        0.777799   -1.978132    0.009063
     25          1           0        0.832735    1.039345    0.589169
     26          1           0        3.333415   -1.986570   -0.545907
     27          1           0        5.530685    1.563230   -0.324739
     28          1           0        3.128214    2.124609    0.307593
 ---------------------------------------------------------------------

 SCF Done:  E(UB3LYP) =  -649.692288520     A.U. after   28 cycles

 The electronic state is 2-A.
 Alpha  occ. eigenvalues --  -19.00908 -18.93040 -14.22591 -14.16113 -10.11656
 Alpha  occ. eigenvalues --  -10.10110 -10.08527 -10.06576 -10.06298 -10.05820
 Alpha  occ. eigenvalues --  -10.05203 -10.03169 -10.00496  -9.99393  -0.94388
 Alpha  occ. eigenvalues --   -0.87787  -0.85241  -0.73711  -0.69276  -0.64805
 Alpha  occ. eigenvalues --   -0.62057  -0.58532  -0.54323  -0.49512  -0.48039
 Alpha  occ. eigenvalues --   -0.46777  -0.44556  -0.41911  -0.38868  -0.37189
 Alpha  occ. eigenvalues --   -0.35699  -0.33323  -0.32125  -0.30476  -0.30133
 Alpha  occ. eigenvalues --   -0.30033  -0.29767  -0.28121  -0.27318  -0.26913
 Alpha  occ. eigenvalues --   -0.26683  -0.23760  -0.22979  -0.22653  -0.21613
 Alpha  occ. eigenvalues --   -0.20291  -0.16495  -0.15681  -0.14772  -0.14119
 Alpha  occ. eigenvalues --   -0.11701  -0.07235   0.04471
 Alpha virt. eigenvalues --    0.07054   0.08117   0.08919   0.09425   0.10414
 Alpha virt. eigenvalues --    0.11147   0.12009   0.12159   0.12801   0.13410
 Alpha virt. eigenvalues --    0.13951   0.14288   0.14712   0.15559   0.16423

  Beta  occ. eigenvalues --  -19.00862 -18.92693 -14.22395 -14.16193 -10.11456
  Beta  occ. eigenvalues --  -10.10114 -10.08399 -10.06568 -10.06297 -10.05870
  Beta  occ. eigenvalues --  -10.05200 -10.02936 -10.00056  -9.99184  -0.94151
  Beta  occ. eigenvalues --   -0.87566  -0.84729  -0.73528  -0.69246  -0.64165
  Beta  occ. eigenvalues --   -0.61936  -0.58132  -0.54176  -0.48925  -0.47908
  Beta  occ. eigenvalues --   -0.46527  -0.44241  -0.41773  -0.38518  -0.37089
  Beta  occ. eigenvalues --   -0.35579  -0.33207  -0.31843  -0.30281  -0.29794
  Beta  occ. eigenvalues --   -0.29692  -0.29407  -0.27944  -0.27199  -0.26709
  Beta  occ. eigenvalues --   -0.25867  -0.23705  -0.22874  -0.22380  -0.21376
  Beta  occ. eigenvalues --   -0.20166  -0.15519  -0.14672  -0.14150  -0.13075
  Beta  occ. eigenvalues --   -0.11341  -0.05558
  Beta virt. eigenvalues --    0.06968   0.08061   0.08842   0.09322   0.10336
  Beta virt. eigenvalues --    0.10843   0.11082   0.11947   0.12078   0.12717
  Beta virt. eigenvalues --    0.13316   0.13999   0.14420   0.14658   0.15555

 Mulliken charges and spin densities:
               1          2
     1  C   -0.507369  -0.048671
     2  C   -0.073078   0.043006
     3  C   -0.227199  -0.098227
     4  C   -0.176200   0.008308
     5  O   -0.022219   0.005637
     6  C   -0.498654   0.224909
     7  O   -0.351525   0.109271
     8  C   -0.036530   0.091630
     9  C   -0.691828   0.292348
    10  C    0.425155  -0.020613
    11  C   -0.443956   0.203441
    12  N   -0.171488  -0.044702
    13  C    0.102919   0.108239
    14  N   -0.187776   0.056526
    15  H    0.183103   0.009276
    16  H    0.112674   0.000937
    17  H    0.079430   0.018290
    18  H    0.152961  -0.000510
    19  H    0.111983   0.015426
    20  H    0.123687   0.015919
    21  H    0.034248   0.058668
    22  H    0.113352   0.031195
    23  H    0.175732  -0.015474
    24  H    0.131954  -0.015840
    25  H    0.146956  -0.028809
    26  H    0.110303  -0.011721
    27  H    0.124678  -0.007255
    28  H    0.258687  -0.001202
 Sum of Mulliken charges =  -1.00000   1.00000

 Dipole moment (field-independent basis, Debye):
    X=             -4.7495    Y=              5.9740    Z=              0.2007  Tot=              7.6345
 Quadrupole moment (field-independent basis, Debye-Ang):
   XX=           -146.3212   YY=            -95.0485   ZZ=            -95.2982
   XY=              5.8634   XZ=              5.5021   YZ=              2.6872

 Summary of Natural Population Analysis:

                                       Natural Population
                Natural  -----------------------------------------------
    Atom  No    Charge         Core      Valence    Rydberg      Total
 -----------------------------------------------------------------------
      C    1   -0.29349      0.99967     2.28933    0.00449     3.29349
      C    2   -0.19400      0.99964     2.18630    0.00805     3.19400
      C    3   -0.19712      0.99963     2.18950    0.00799     3.19712
      C    4   -0.01812      0.99957     2.00841    0.01014     3.01812
      O    5   -0.29661      0.99986     3.28672    0.01003     4.29661
      C    6    0.40798      0.99965     1.56849    0.02388     2.59202
      O    7   -0.30433      0.99987     3.29875    0.00571     4.30433
      C    8   -0.11339      0.99950     2.10473    0.00915     3.11339
      C    9   -0.01474      0.99953     2.00681    0.00839     3.01474
      C   10    0.03397      0.99955     1.95504    0.01143     2.96603
      C   11    0.01357      0.99955     1.97281    0.01407     2.98643
      N   12   -0.27842      0.99973     2.76568    0.01300     3.77842
      C   13    0.10424      0.99970     1.87672    0.01934     2.89576
      N   14   -0.24693      0.99966     2.74004    0.00723     3.74693
      H   15    0.11651      0.00000     0.38241    0.00108     0.38349
      H   16    0.09380      0.00000     0.40535    0.00085     0.40620
      H   17    0.08584      0.00000     0.41286    0.00130     0.41416
      H   18    0.10555      0.00000     0.39327    0.00118     0.39445
      H   19    0.08778      0.00000     0.41082    0.00140     0.41222
      H   20    0.09585      0.00000     0.40262    0.00153     0.40415
      H   21    0.08882      0.00000     0.40925    0.00192     0.41118
      H   22    0.08053      0.00000     0.41773    0.00174     0.41947
      H   23    0.09917      0.00000     0.39932    0.00151     0.40083
      H   24    0.09199      0.00000     0.40662    0.00139     0.40801
      H   25    0.08910      0.00000     0.40939    0.00151     0.41090
      H   26    0.08984      0.00000     0.40913    0.00103     0.41016
      H   27    0.08004      0.00000     0.41882    0.00114     0.41996
      H   28    0.19255      0.00000     0.30558    0.00187     0.30745
 =======================================================================
   * Total *    0.00000     13.99511    37.83253    0.17236    52.00000

 Normal termination of Gaussian 16 at Thu Dec 10 11:06:08 2020.
