 Gaussian 16, Revision A.03,

 -----------------------------------------------------------
 # opt freq B3LYP/6-31G(d) empiricaldispersion=gd3bj scf=xqc
 -----------------------------------------------------------

 -------------------------------
 CID_116285545_JID_8918_neutraal
 -------------------------------
 Symbolic Z-matrix:
 Charge =  0 Multiplicity = 1

 SCF Done:  E(RB3LYP) =  -1273.23116416     A.U. after   15 cycles
 SCF Done:  E(RB3LYP) =  -1273.23904402     A.U. after   13 cycles
 SCF Done:  E(RB3LYP) =  -1273.24022440     A.U. after   12 cycles
 SCF Done:  E(RB3LYP) =  -1273.24092720     A.U. after   12 cycles
 SCF Done:  E(RB3LYP) =  -1273.24154619     A.U. after   13 cycles
 SCF Done:  E(RB3LYP) =  -1273.24227276     A.U. after   12 cycles
 SCF Done:  E(RB3LYP) =  -1273.24314548     A.U. after   11 cycles
 SCF Done:  E(RB3LYP) =  -1273.24402347     A.U. after   14 cycles
 SCF Done:  E(RB3LYP) =  -1273.24449463     A.U. after   12 cycles
 SCF Done:  E(RB3LYP) =  -1273.24513956     A.U. after   12 cycles
 SCF Done:  E(RB3LYP) =  -1273.24832433     A.U. after   11 cycles
 SCF Done:  E(RB3LYP) =  -1273.24832929     A.U. after   10 cycles
 SCF Done:  E(RB3LYP) =  -1273.24833207     A.U. after   10 cycles
 SCF Done:  E(RB3LYP) =  -1273.24833268     A.U. after    8 cycles
 SCF Done:  E(RB3LYP) =  -1273.24833280     A.U. after    7 cycles
 Optimization completed.
    -- Stationary point found.
 Normal termination of Gaussian 16 at Fri Dec 11 21:42:47 2020.

 --------------------------------------------------------------------
 #N Geom=AllCheck Guess=TCheck SCRF=Check GenChk RB3LYP/6-31G(d) Freq
 --------------------------------------------------------------------

 Structure from the checkpoint file:  "JID_8918.chk"
 -------------------------------
 CID_116285545_JID_8918_neutraal
 -------------------------------
 Charge =  0 Multiplicity = 1

 SCF Done:  E(RB3LYP) =  -1273.24833280     A.U. after    1 cycles

  Exact polarizability: 212.466  -3.723 121.118  -4.580  14.430 123.872
 Approx polarizability: 287.506   2.145 171.158 -10.568  36.852 221.674

                      1                      2                      3
                      A                      A                      A
 Frequencies --     14.1699                27.4566                42.4838
 Red. masses --      5.5920                 4.7305                 4.4583
 Frc consts  --      0.0007                 0.0021                 0.0047
 IR Inten    --      1.1977                 0.7442                 0.2307

                      4                      5                      6
                      A                      A                      A
 Frequencies --     45.6199                55.6625                81.4143
 Red. masses --      8.5190                 5.1598                 1.8263
 Frc consts  --      0.0104                 0.0094                 0.0071
 IR Inten    --      1.1715                 0.2697                 1.2219

                      7                      8                      9
                      A                      A                      A
 Frequencies --     92.3026               127.7503               129.7984
 Red. masses --      5.3477                 3.6653                 7.7944
 Frc consts  --      0.0268                 0.0352                 0.0774
 IR Inten    --      0.4355                 0.3185                 3.7070

                     10                     11                     12
                      A                      A                      A
 Frequencies --    163.0521               185.8535               220.8782
 Red. masses --      4.8791                 5.5879                 3.1162
 Frc consts  --      0.0764                 0.1137                 0.0896
 IR Inten    --      1.0640                 0.8123                 0.8828

                     13                     14                     15
                      A                      A                      A
 Frequencies --    253.6002               266.8794               288.8078
 Red. masses --      5.7396                 1.3680                 8.2921
 Frc consts  --      0.2175                 0.0574                 0.4075
 IR Inten    --      1.2950                 1.3904                 0.9545

                     16                     17                     18
                      A                      A                      A
 Frequencies --    324.2911               349.5868               359.1494
 Red. masses --      3.7037                 5.4655                 4.5392
 Frc consts  --      0.2295                 0.3935                 0.3450
 IR Inten    --      0.8874                 1.6812                14.9606

                     19                     20                     21
                      A                      A                      A
 Frequencies --    380.8992               418.7524               441.4708
 Red. masses --      4.3292                 3.1990                 4.8641
 Frc consts  --      0.3701                 0.3305                 0.5585
 IR Inten    --     12.2099                 0.4594                 0.7056

                     22                     23                     24
                      A                      A                      A
 Frequencies --    473.7784               493.8205               501.6612
 Red. masses --      4.6677                 4.5312                 3.2095
 Frc consts  --      0.6173                 0.6510                 0.4759
 IR Inten    --     14.6881                17.4589                17.6690

                     25                     26                     27
                      A                      A                      A
 Frequencies --    517.6447               537.2295               580.5140
 Red. masses --      2.3111                 4.2918                 4.7747
 Frc consts  --      0.3649                 0.7298                 0.9480
 IR Inten    --     10.7047               120.5385                92.6693

                     28                     29                     30
                      A                      A                      A
 Frequencies --    634.0947               646.1070               651.2520
 Red. masses --      2.2403                 5.5723                 4.1429
 Frc consts  --      0.5307                 1.3705                 1.0353
 IR Inten    --    135.5576                 1.9171                51.3315

                     31                     32                     33
                      A                      A                      A
 Frequencies --    685.4238               691.1941               721.0333
 Red. masses --      1.6175                 5.5027                 4.3004
 Frc consts  --      0.4477                 1.5489                 1.3173
 IR Inten    --    105.3448                 5.4708                 5.4051

                     34                     35                     36
                      A                      A                      A
 Frequencies --    774.8686               818.8451               827.6059
 Red. masses --      2.5345                 1.2051                 1.5287
 Frc consts  --      0.8966                 0.4761                 0.6169
 IR Inten    --    173.4095                31.5958                27.1100

                     37                     38                     39
                      A                      A                      A
 Frequencies --    852.5904               872.7982               874.7404
 Red. masses --      1.4825                 3.3871                 2.0534
 Frc consts  --      0.6349                 1.5202                 0.9257
 IR Inten    --     41.0157                 9.3737               161.7097

                     40                     41                     42
                      A                      A                      A
 Frequencies --    903.9384               939.4715               949.1722
 Red. masses --      2.7151                 2.1890                 1.3043
 Frc consts  --      1.3071                 1.1383                 0.6924
 IR Inten    --     50.0788                32.2662                 0.8765

                     43                     44                     45
                      A                      A                      A
 Frequencies --    980.6327               999.5914              1034.4663
 Red. masses --      1.2918                 2.5362                 3.3048
 Frc consts  --      0.7319                 1.4931                 2.0836
 IR Inten    --      0.9229                95.7454                20.5712

                     46                     47                     48
                      A                      A                      A
 Frequencies --   1056.7818              1074.4712              1094.9569
 Red. masses --      2.5192                 3.0977                 4.9056
 Frc consts  --      1.6576                 2.1071                 3.4652
 IR Inten    --     15.0647                42.3352                66.9728

                     49                     50                     51
                      A                      A                      A
 Frequencies --   1136.8842              1144.2389              1150.8977
 Red. masses --      4.5399                 3.4748                 2.0888
 Frc consts  --      3.4572                 2.6805                 1.6301
 IR Inten    --    210.7254               174.7160                23.4152

                     52                     53                     54
                      A                      A                      A
 Frequencies --   1154.8687              1174.3979              1181.8451
 Red. masses --      1.4645                 1.7106                 2.5475
 Frc consts  --      1.1508                 1.3900                 2.0965
 IR Inten    --      7.0726                76.0081               154.3434

                     55                     56                     57
                      A                      A                      A
 Frequencies --   1215.9045              1285.7473              1298.7966
 Red. masses --      1.1874                 3.2323                 1.2000
 Frc consts  --      1.0343                 3.1483                 1.1927
 IR Inten    --      3.5472                24.1641                11.0017

                     58                     59                     60
                      A                      A                      A
 Frequencies --   1302.0946              1325.5495              1339.4209
 Red. masses --      1.7304                 2.4461                 1.5658
 Frc consts  --      1.7286                 2.5323                 1.6551
 IR Inten    --     35.2315               101.5217                29.4201

                     61                     62                     63
                      A                      A                      A
 Frequencies --   1341.2493              1373.0093              1385.5220
 Red. masses --      1.3552                 6.3405                 1.2550
 Frc consts  --      1.4364                 7.0424                 1.4195
 IR Inten    --      1.5391                22.3862                 7.2528

                     64                     65                     66
                      A                      A                      A
 Frequencies --   1440.4829              1441.5805              1447.9549
 Red. masses --      1.2234                 1.8456                 1.4047
 Frc consts  --      1.4956                 2.2598                 1.7352
 IR Inten    --      7.6481                14.4564                24.3646

                     67                     68                     69
                      A                      A                      A
 Frequencies --   1449.9644              1481.9288              1512.7343
 Red. masses --      2.0879                 1.0954                 1.4279
 Frc consts  --      2.5863                 1.4173                 1.9251
 IR Inten    --     21.5929                10.8530                16.1065

                     70                     71                     72
                      A                      A                      A
 Frequencies --   1522.8628              1528.3155              1545.2819
 Red. masses --      1.0432                 1.0426                 2.2679
 Frc consts  --      1.4254                 1.4349                 3.1907
 IR Inten    --      8.1760                 2.9436                39.3104

                     73                     74                     75
                      A                      A                      A
 Frequencies --   1549.5787              1642.4254              1660.7231
 Red. masses --      1.1082                 5.7649                 5.5454
 Frc consts  --      1.5679                 9.1625                 9.0111
 IR Inten    --      2.8425                 4.6384               111.0789

                     76                     77                     78
                      A                      A                      A
 Frequencies --   1867.5053              3047.4539              3052.4692
 Red. masses --     10.1994                 1.0635                 1.0381
 Frc consts  --     20.9580                 5.8192                 5.6989
 IR Inten    --    274.6910                23.6999                23.8540

                     79                     80                     81
                      A                      A                      A
 Frequencies --   3062.5796              3095.5075              3113.8053
 Red. masses --      1.0594                 1.0994                 1.1043
 Frc consts  --      5.8542                 6.2066                 6.3084
 IR Inten    --     31.3233                 7.7087                 7.2801

                     82                     83                     84
                      A                      A                      A
 Frequencies --   3121.3366              3139.7030              3183.2044
 Red. masses --      1.1007                 1.1037                 1.0894
 Frc consts  --      6.3184                 6.4102                 6.5037
 IR Inten    --     33.9008                27.3324                12.9241

                     85                     86                     87
                      A                      A                      A
 Frequencies --   3229.0841              3231.1320              3276.5281
 Red. masses --      1.0928                 1.0905                 1.0919
 Frc consts  --      6.7134                 6.7079                 6.9064
 IR Inten    --      1.1002                 0.4063                 1.4938

                     88                     89                     90
                      A                      A                      A
 Frequencies --   3472.1772              3501.1442              3683.9799
 Red. masses --      1.0762                 1.0745                 1.0641
 Frc consts  --      7.6443                 7.7602                 8.5089
 IR Inten    --      2.9377                18.1363                54.0640

 - Thermochemistry -
 -------------------
 Temperature   298.150 Kelvin.  Pressure   1.00000 Atm.
 Atom     1 has atomic number  6 and mass  12.00000

 Molecular mass:   274.06234 amu.
 Principal axes and moments of inertia in atomic units:
                           1         2         3
     Eigenvalues --  2496.90985********************
           X            0.99978  -0.02027   0.00518
           Y            0.02030   0.99978  -0.00595
           Z           -0.00506   0.00605   0.99997
 This molecule is an asymmetric top.
 Rotational symmetry number  1.
 Warning -- assumption of classical behavior for rotation
           may cause significant error
 Rotational temperatures (Kelvin)      0.03469     0.00792     0.00720
 Rotational constants (GHZ):           0.72279     0.16506     0.15005
 Zero-point vibrational energy     655376.7 (Joules/Mol)
                                  156.63880 (Kcal/Mol)
 Warning -- explicit consideration of  27 degrees of freedom as
           vibrations may cause significant error
 Vibrational temperatures:     20.39    39.50    61.12    65.64    80.09
          (Kelvin)            117.14   132.80   183.80   186.75   234.60
                              267.40   317.79   364.87   383.98   415.53
                              466.58   502.98   516.74   548.03   602.49
                              635.18   681.66   710.50   721.78   744.78
                              772.95   835.23   912.32   929.60   937.01
                              986.17   994.47  1037.41  1114.86  1178.14
                             1190.74  1226.69  1255.76  1258.56  1300.57
                             1351.69  1365.65  1410.91  1438.19  1488.37
                             1520.47  1545.92  1575.40  1635.72  1646.30
                             1655.89  1661.60  1689.70  1700.41  1749.42
                             1849.90  1868.68  1873.42  1907.17  1927.13
                             1929.76  1975.45  1993.46  2072.53  2074.11
                             2083.28  2086.18  2132.17  2176.49  2191.06
                             2198.91  2223.32  2229.50  2363.08  2389.41
                             2686.92  4384.61  4391.82  4406.37  4453.74
                             4480.07  4490.91  4517.33  4579.92  4645.93
                             4648.88  4714.19  4995.69  5037.37  5300.43

 Zero-point correction=                           0.249620 (Hartree/Particle)
 Thermal correction to Energy=                    0.267804
 Thermal correction to Enthalpy=                  0.268749
 Thermal correction to Gibbs Free Energy=         0.200041
 Sum of electronic and zero-point Energies=          -1272.998713
 Sum of electronic and thermal Energies=             -1272.980528
 Sum of electronic and thermal Enthalpies=           -1272.979584
 Sum of electronic and thermal Free Energies=        -1273.048292

                     E (Thermal)             CV                S
                      KCal/Mol        Cal/Mol-Kelvin    Cal/Mol-Kelvin
 Total                  168.050             66.565            144.608
 Electronic               0.000              0.000              0.000
 Translational            0.889              2.981             42.723
 Rotational               0.889              2.981             34.151
 Vibrational            166.272             60.604             67.734
 Vibration     1          0.593              1.986              7.319
 Vibration     2          0.593              1.984              6.005
 Vibration     3          0.595              1.980              5.140
 Vibration     4          0.595              1.979              4.999
 Vibration     5          0.596              1.975              4.605
 Vibration     6          0.600              1.962              3.856
 Vibration     7          0.602              1.955              3.611
 Vibration     8          0.611              1.925              2.980
 Vibration     9          0.612              1.923              2.949
 Vibration    10          0.623              1.888              2.514
 Vibration    11          0.632              1.859              2.269
 Vibration    12          0.648              1.809              1.952
 Vibration    13          0.665              1.757              1.705
 Vibration    14          0.672              1.734              1.616
 Vibration    15          0.685              1.695              1.481
 Vibration    16          0.709              1.627              1.288
 Vibration    17          0.727              1.576              1.168
 Vibration    18          0.734              1.556              1.126
 Vibration    19          0.751              1.511              1.036
 Vibration    20          0.782              1.429              0.896
 Vibration    21          0.801              1.380              0.822
 Vibration    22          0.831              1.308              0.727
 Vibration    23          0.849              1.264              0.674
 Vibration    24          0.857              1.246              0.654
 Vibration    25          0.873              1.211              0.615
 Vibration    26          0.892              1.168              0.571
 Vibration    27          0.937              1.073              0.484

                           ! Non-Optimized Parameters !
 Normal termination of Gaussian 16 at Fri Dec 11 21:54:59 2020.

 ----------------------------------------------------------------------
 # B3LYP/6-311++G(d,p) empiricaldispersion=gd3bj scf=xqc pop=npa geom=c
 heck
 ----------------------------------------------------------------------

 ---------------------------------------
 CID_116285545_JID_8918_Energie_neutraal
 ---------------------------------------
 Structure from the checkpoint file:  "JID_8918.chk"
 Charge =  0 Multiplicity = 1

 SCF Done:  E(RB3LYP) =  -1273.54038021     A.U. after   16 cycles
 Normal termination of Gaussian 16 at Fri Dec 11 22:01:05 2020.

 ----------------------------------------------------------------------
 # B3LYP/6-311++G(d,p) empiricaldispersion=gd3bj scf=xqc pop=npa geom=c
 heck
 ----------------------------------------------------------------------

 -------------------------------------
 CID_116285545_JID_8918_Energie_kation
 -------------------------------------
 Structure from the checkpoint file:  "JID_8918.chk"
 Charge =  1 Multiplicity = 2

 SCF Done:  E(UB3LYP) =  -1273.23781145     A.U. after   25 cycles
 Normal termination of Gaussian 16 at Fri Dec 11 22:15:17 2020.
 Gaussian 16:  ES64L-G16RevA.03 25-Dec-2016

 ----------------------------------------------------------------------
 # B3LYP/6-311++G(d,p) empiricaldispersion=gd3bj scf=xqc pop=npa geom=c
 heck
 ----------------------------------------------------------------------

 ------------------------------------
 CID_116285545_JID_8918_Energie_anion
 ------------------------------------
 Structure from the checkpoint file:  "JID_8918.chk"
 Charge = -1 Multiplicity = 2

                         Standard orientation:
 ---------------------------------------------------------------------
 Center     Atomic      Atomic             Coordinates (Angstroms)
 Number     Number       Type             X           Y           Z
 ---------------------------------------------------------------------
      1          6           0       -3.598023    3.037727   -1.133708
      2          6           0       -3.210524    2.014752   -0.072068
      3          7           0       -3.519140    0.659786   -0.558598
      4         16           0       -3.074088   -0.620815    0.458269
      5          8           0       -3.192367   -0.239428    1.872554
      6          8           0       -3.800457   -1.780858   -0.069246
      7          6           0       -1.340973   -0.770465    0.086207
      8          6           0       -0.392208   -0.361930    1.022554
      9          6           0        0.964198   -0.472914    0.731215
     10          6           0        1.362008   -1.003158   -0.500950
     11          6           0        0.398783   -1.427093   -1.433050
     12          6           0       -0.951853   -1.303957   -1.145056
     13          7           0        2.719044   -1.070051   -0.881779
     14          8           0        3.586673   -1.262525    0.239978
     15          6           0        4.713703   -0.430290    0.085398
     16          6           0        4.401230    1.045584    0.289151
     17          8           0        3.420418    1.500990    0.825271
     18          8           0        5.418063    1.803634   -0.182022
     19          1           0       -3.071330    2.840537   -2.072325
     20          1           0       -3.347360    4.048364   -0.795164
     21          1           0       -4.676134    3.011457   -1.333837
     22          1           0       -2.130918    2.051674    0.108822
     23          1           0       -3.709129    2.225974    0.882740
     24          1           0       -4.505471    0.528240   -0.784451
     25          1           0       -0.722844    0.034246    1.976091
     26          1           0        1.715514   -0.140547    1.432890
     27          1           0        0.714104   -1.849236   -2.384107
     28          1           0       -1.702820   -1.632794   -1.854785
     29          1           0        2.882423   -1.872953   -1.489177
     30          1           0        5.418357   -0.745501    0.863432
     31          1           0        5.196419   -0.569355   -0.889134
     32          1           0        5.188582    2.730739    0.018894
 ---------------------------------------------------------------------

 SCF Done:  E(UB3LYP) =  -1273.53655964     A.U. after   33 cycles
 SCF Done:  E(UB3LYP) =  -1273.53655964     a.u. after    3 cycles

 The electronic state is 2-A.
 Alpha  occ. eigenvalues --  -88.97836 -19.08879 -19.08569 -19.03421 -19.03334
 Alpha  occ. eigenvalues --  -19.03264 -14.29168 -14.26138 -10.22405 -10.15308
 Alpha  occ. eigenvalues --  -10.14067 -10.13497 -10.11820 -10.10630 -10.10429
 Alpha  occ. eigenvalues --  -10.09814 -10.09739 -10.08867  -8.04032  -6.00313
 Alpha  occ. eigenvalues --   -6.00277  -6.00114  -1.03465  -1.03003  -1.00942
 Alpha  occ. eigenvalues --   -0.94002  -0.92478  -0.84724  -0.81869  -0.76936
 Alpha  occ. eigenvalues --   -0.69139  -0.67760  -0.67317  -0.64302  -0.58264
 Alpha  occ. eigenvalues --   -0.55566  -0.54777  -0.52264  -0.50747  -0.46580
 Alpha  occ. eigenvalues --   -0.45087  -0.44519  -0.42981  -0.41994  -0.41082
 Alpha  occ. eigenvalues --   -0.40515  -0.39924  -0.38783  -0.37581  -0.36765
 Alpha  occ. eigenvalues --   -0.36076  -0.35510  -0.35023  -0.33082  -0.32896
 Alpha  occ. eigenvalues --   -0.32399  -0.31119  -0.30465  -0.29634  -0.29178
 Alpha  occ. eigenvalues --   -0.27199  -0.26236  -0.24515  -0.24243  -0.23824
 Alpha  occ. eigenvalues --   -0.23186  -0.22728  -0.22285  -0.19851  -0.19381
 Alpha  occ. eigenvalues --   -0.18112  -0.14335   0.03436
 Alpha virt. eigenvalues --    0.04735   0.04945   0.05624   0.06220   0.07040
 Alpha virt. eigenvalues --    0.07462   0.07822   0.08181   0.08832   0.09875
 Alpha virt. eigenvalues --    0.10121   0.10777   0.10882   0.11738   0.12177

  Beta  occ. eigenvalues --  -88.97835 -19.08876 -19.08511 -19.03410 -19.03331
  Beta  occ. eigenvalues --  -19.03262 -14.29127 -14.26128 -10.22402 -10.15261
  Beta  occ. eigenvalues --  -10.14073 -10.13493 -10.11825 -10.10599 -10.10408
  Beta  occ. eigenvalues --  -10.09779 -10.09716 -10.08839  -8.04029  -6.00311
  Beta  occ. eigenvalues --   -6.00275  -6.00112  -1.03458  -1.02941  -1.00914
  Beta  occ. eigenvalues --   -0.93944  -0.92471  -0.84711  -0.81825  -0.76888
  Beta  occ. eigenvalues --   -0.69113  -0.67691  -0.67269  -0.64216  -0.58224
  Beta  occ. eigenvalues --   -0.55528  -0.54692  -0.52174  -0.50693  -0.46536
  Beta  occ. eigenvalues --   -0.45037  -0.44483  -0.42969  -0.41941  -0.41052
  Beta  occ. eigenvalues --   -0.40482  -0.39887  -0.38762  -0.37542  -0.36719
  Beta  occ. eigenvalues --   -0.36047  -0.35477  -0.34986  -0.33051  -0.32872
  Beta  occ. eigenvalues --   -0.32350  -0.31094  -0.30393  -0.29601  -0.29129
  Beta  occ. eigenvalues --   -0.27166  -0.26230  -0.24474  -0.24237  -0.23792
  Beta  occ. eigenvalues --   -0.23157  -0.22699  -0.22279  -0.19823  -0.19353
  Beta  occ. eigenvalues --   -0.17933  -0.14268
  Beta virt. eigenvalues --    0.04895   0.05132   0.06197   0.06427   0.07092
  Beta virt. eigenvalues --    0.07394   0.07713   0.08108   0.08347   0.09267
  Beta virt. eigenvalues --    0.10158   0.10178   0.10838   0.11170   0.11853

 Mulliken charges and spin densities:
               1          2
     1  C    0.111838  -0.627972
     2  C   -0.434365   0.124016
     3  N   -0.193183   0.063696
     4  S    0.616645  -0.370493
     5  O   -0.184145   0.003622
     6  O   -0.235858  -0.006386
     7  C    0.240301  -0.327376
     8  C   -0.615974   0.318337
     9  C   -0.115136  -0.002547
    10  C    0.775972  -0.992556
    11  C   -0.611752   0.286695
    12  C   -0.176465   0.099998
    13  N   -0.301441   0.161604
    14  O    0.009356   0.023078
    15  C    1.807474  -2.135269
    16  C   -0.586618   0.696114
    17  O   -0.257970  -0.036541
    18  O   -0.173728   0.040601
    19  H    0.036440   0.125899
    20  H    0.019122   0.124426
    21  H   -0.145057   0.272478
    22  H    0.174966  -0.002727
    23  H    0.132376   0.068239
    24  H    0.228272   0.048999
    25  H    0.164341   0.060926
    26  H    0.243349  -0.003016
    27  H   -0.452571   0.623638
    28  H    0.140712   0.102010
    29  H   -0.146386   0.457809
    30  H   -0.295882   0.503966
    31  H   -0.276206   0.502544
    32  H   -0.498427   0.796188
 Sum of Mulliken charges =  -1.00000   1.00000

 Dipole moment (field-independent basis, Debye):
    X=             -6.3934    Y=              0.4639    Z=              0.9875  Tot=              6.4858
 Quadrupole moment (field-independent basis, Debye-Ang):
   XX=           -224.4026   YY=           -159.5879   ZZ=           -144.9367
   XY=            -15.0652   XZ=             11.7823   YZ=             -1.3350

 Summary of Natural Population Analysis:

                                       Natural Population
                Natural  -----------------------------------------------
    Atom  No    Charge         Core      Valence    Rydberg      Total
 -----------------------------------------------------------------------
      C    1   -0.28760      0.99966     2.28313    0.00480     3.28760
      C    2   -0.09774      0.99964     2.08774    0.01035     3.09774
      N    3   -0.43192      0.99976     2.91976    0.01240     3.93192
      S    4    1.10042      4.99918     1.79926    0.10114     6.89958
      O    5   -0.46620      0.99991     3.46100    0.00530     4.46620
      O    6   -0.46505      0.99991     3.45975    0.00540     4.46505
      C    7   -0.16495      0.99937     2.14934    0.01624     3.16495
      C    8   -0.08335      0.99951     2.07475    0.00909     3.08335
      C    9   -0.10805      0.99951     2.10000    0.00855     3.10805
      C   10    0.08704      0.99948     1.90110    0.01238     2.91296
      C   11   -0.11157      0.99952     2.10244    0.00961     3.11157
      C   12   -0.07827      0.99951     2.06798    0.01078     3.07827
      N   13   -0.15538      0.99965     2.64184    0.01389     3.65538
      O   14   -0.21702      0.99990     3.20624    0.01088     4.21702
      C   15   -0.05570      0.99955     2.04185    0.01430     3.05570
      C   16    0.39450      0.99974     1.58107    0.02469     2.60550
      O   17   -0.30054      0.99987     3.29367    0.00700     4.30054
      O   18   -0.34284      0.99988     3.33608    0.00688     4.34284
      H   19    0.10374      0.00000     0.39507    0.00118     0.39626
      H   20    0.10271      0.00000     0.39635    0.00094     0.39729
      H   21    0.09574      0.00000     0.40289    0.00136     0.40426
      H   22    0.10128      0.00000     0.39724    0.00148     0.39872
      H   23    0.09265      0.00000     0.40579    0.00156     0.40735
      H   24    0.19135      0.00000     0.30655    0.00209     0.30865
      H   25    0.11535      0.00000     0.38362    0.00104     0.38465
      H   26    0.12279      0.00000     0.37581    0.00140     0.37721
      H   27    0.10633      0.00000     0.39241    0.00127     0.39367
      H   28    0.11283      0.00000     0.38615    0.00102     0.38717
      H   29    0.18284      0.00000     0.31108    0.00608     0.31716
      H   30    0.10802      0.00000     0.39034    0.00165     0.39198
      H   31    0.10253      0.00000     0.39506    0.00241     0.39747
      H   32    0.24608      0.00000     0.23720    0.01673     0.25392
 =======================================================================
   * Total *    0.00000     21.99352    49.68258    0.32390    72.00000

 Normal termination of Gaussian 16 at Fri Dec 11 23:15:23 2020.
