 Gaussian 16, Revision A.03,

 -----------------------------------------------------------
 # opt freq B3LYP/6-31G(d) empiricaldispersion=gd3bj scf=xqc
 -----------------------------------------------------------

 -----------------------------
 CID_84081945_JID_514_neutraal
 -----------------------------
 Symbolic Z-matrix:
 Charge =  0 Multiplicity = 1

 SCF Done:  E(RB3LYP) =  -445.048910591     A.U. after   13 cycles
 SCF Done:  E(RB3LYP) =  -445.051477259     A.U. after   11 cycles
 SCF Done:  E(RB3LYP) =  -445.051017241     A.U. after   11 cycles
 SCF Done:  E(RB3LYP) =  -445.051895866     A.U. after   11 cycles
 SCF Done:  E(RB3LYP) =  -445.052065088     A.U. after   10 cycles
 SCF Done:  E(RB3LYP) =  -445.052121699     A.U. after   10 cycles
 SCF Done:  E(RB3LYP) =  -445.052138293     A.U. after    9 cycles
 SCF Done:  E(RB3LYP) =  -445.052141161     A.U. after    8 cycles
 SCF Done:  E(RB3LYP) =  -445.052144286     A.U. after    8 cycles
 SCF Done:  E(RB3LYP) =  -445.052146619     A.U. after    9 cycles
 SCF Done:  E(RB3LYP) =  -445.052147982     A.U. after    8 cycles
 SCF Done:  E(RB3LYP) =  -445.052148567     A.U. after    8 cycles
 SCF Done:  E(RB3LYP) =  -445.052148651     A.U. after    7 cycles
 Optimization completed.
    -- Stationary point found.
 Normal termination of Gaussian 16 at Tue Dec  8 12:17:02 2020.

 --------------------------------------------------------------------
 #N Geom=AllCheck Guess=TCheck SCRF=Check GenChk RB3LYP/6-31G(d) Freq
 --------------------------------------------------------------------

 Structure from the checkpoint file:  "JID_514.chk"
 -----------------------------
 CID_84081945_JID_514_neutraal
 -----------------------------
 Charge =  0 Multiplicity = 1

 SCF Done:  E(RB3LYP) =  -445.052148651     A.U. after    1 cycles

  Exact polarizability: 100.215   0.483  91.323   0.264  -1.119  84.305
 Approx polarizability: 125.587  -0.389 124.431  -0.475  -1.985 126.322

                      1                      2                      3
                      A                      A                      A
 Frequencies --     47.6731                62.0593                94.9056
 Red. masses --      3.4888                 3.3160                 2.8414
 Frc consts  --      0.0047                 0.0075                 0.0151
 IR Inten    --      2.6886                 2.5586                 0.1692

                      4                      5                      6
                      A                      A                      A
 Frequencies --    116.4964               157.3471               196.7848
 Red. masses --      2.4054                 1.5927                 2.0235
 Frc consts  --      0.0192                 0.0232                 0.0462
 IR Inten    --      0.3031                 1.4392                 0.2576

                      7                      8                      9
                      A                      A                      A
 Frequencies --    208.2168               212.3780               263.9246
 Red. masses --      1.7582                 1.5977                 1.6455
 Frc consts  --      0.0449                 0.0425                 0.0675
 IR Inten    --      0.0826                 0.0486                 2.0388

                     10                     11                     12
                      A                      A                      A
 Frequencies --    316.2920               348.6786               404.2479
 Red. masses --      2.1802                 2.0923                 2.2960
 Frc consts  --      0.1285                 0.1499                 0.2211
 IR Inten    --      0.9791                 0.4661                 0.4959

                     13                     14                     15
                      A                      A                      A
 Frequencies --    409.9152               456.3680               528.5927
 Red. masses --      2.0638                 1.9223                 2.4775
 Frc consts  --      0.2043                 0.2359                 0.4079
 IR Inten    --      2.9966                 7.1904                 5.3090

                     16                     17                     18
                      A                      A                      A
 Frequencies --    649.0847               782.8707               793.5817
 Red. masses --      2.8763                 1.3602                 1.3454
 Frc consts  --      0.7140                 0.4912                 0.4992
 IR Inten    --      0.1263                37.6388                56.3321

                     19                     20                     21
                      A                      A                      A
 Frequencies --    827.4484               871.3211               886.9684
 Red. masses --      2.7030                 2.4128                 1.7683
 Frc consts  --      1.0904                 1.0793                 0.8196
 IR Inten    --      9.7501                 8.6078                 0.9896

                     22                     23                     24
                      A                      A                      A
 Frequencies --    941.2011               966.7530               982.4123
 Red. masses --      2.2377                 1.8153                 1.5957
 Frc consts  --      1.1679                 0.9996                 0.9074
 IR Inten    --      5.7361                 2.3755                 6.9967

                     25                     26                     27
                      A                      A                      A
 Frequencies --    993.6602              1014.4863              1033.3012
 Red. masses --      1.9010                 2.5851                 2.5843
 Frc consts  --      1.1059                 1.5675                 1.6257
 IR Inten    --      3.6645                 9.6567                22.1363

                     28                     29                     30
                      A                      A                      A
 Frequencies --   1046.5978              1070.9550              1078.6756
 Red. masses --      6.1427                 1.7246                 1.7811
 Frc consts  --      3.9643                 1.1654                 1.2210
 IR Inten    --     56.1614                 3.1439                 1.7215

                     31                     32                     33
                      A                      A                      A
 Frequencies --   1114.8169              1158.6812              1171.7899
 Red. masses --      1.9892                 1.3432                 1.1295
 Frc consts  --      1.4566                 1.0625                 0.9137
 IR Inten    --      5.7097                 2.9038                 0.9198

                     34                     35                     36
                      A                      A                      A
 Frequencies --   1171.9492              1180.5453              1207.2435
 Red. masses --      1.2522                 2.7095                 2.2347
 Frc consts  --      1.0133                 2.2249                 1.9189
 IR Inten    --      2.8807                21.4299                12.0199

                     37                     38                     39
                      A                      A                      A
 Frequencies --   1214.7250              1268.2094              1303.7431
 Red. masses --      1.9256                 1.7415                 1.3994
 Frc consts  --      1.6741                 1.6503                 1.4014
 IR Inten    --      9.6817                 2.0903                 1.7364

                     40                     41                     42
                      A                      A                      A
 Frequencies --   1320.2222              1340.5650              1348.4562
 Red. masses --      1.2791                 1.1717                 1.4217
 Frc consts  --      1.3136                 1.2407                 1.5231
 IR Inten    --      2.7847                13.5918                 0.4507

                     43                     44                     45
                      A                      A                      A
 Frequencies --   1393.8569              1402.6997              1413.5891
 Red. masses --      1.5119                 1.4800                 1.6085
 Frc consts  --      1.7306                 1.7157                 1.8937
 IR Inten    --      2.9732                 0.3222                 0.2309

                     46                     47                     48
                      A                      A                      A
 Frequencies --   1424.3789              1437.3480              1481.0361
 Red. masses --      1.3317                 1.2722                 1.1764
 Frc consts  --      1.5918                 1.5486                 1.5203
 IR Inten    --     16.9299                 6.5814                 1.3379

                     49                     50                     51
                      A                      A                      A
 Frequencies --   1505.3951              1511.5306              1512.8330
 Red. masses --      1.1542                 1.1219                 1.0803
 Frc consts  --      1.5411                 1.5102                 1.4567
 IR Inten    --      3.6108                 7.2211                 4.9400

                     52                     53                     54
                      A                      A                      A
 Frequencies --   1518.9964              1526.9638              1528.2906
 Red. masses --      1.0619                 1.0565                 1.0952
 Frc consts  --      1.4436                 1.4514                 1.5071
 IR Inten    --      2.6259                 3.5563                 4.4290

                     55                     56                     57
                      A                      A                      A
 Frequencies --   1540.4710              1543.2042              1547.6169
 Red. masses --      1.0666                 1.0698                 1.0550
 Frc consts  --      1.4913                 1.5011                 1.4888
 IR Inten    --      3.0619                 3.2115                 3.2038

                     58                     59                     60
                      A                      A                      A
 Frequencies --   1566.6425              2937.7591              2954.3094
 Red. masses --      1.1094                 1.0734                 1.0611
 Frc consts  --      1.6043                 5.4583                 5.4568
 IR Inten    --      2.9172                70.9538               122.8801

                     61                     62                     63
                      A                      A                      A
 Frequencies --   3014.1020              3023.2712              3032.9163
 Red. masses --      1.0535                 1.0615                 1.0666
 Frc consts  --      5.6392                 5.7164                 5.7804
 IR Inten    --    112.3189                 2.3800                40.1108

                     64                     65                     66
                      A                      A                      A
 Frequencies --   3042.5983              3047.9409              3060.8244
 Red. masses --      1.0616                 1.0441                 1.1006
 Frc consts  --      5.7900                 5.7150                 6.0752
 IR Inten    --     11.8228                26.0915                32.1685

                     67                     68                     69
                      A                      A                      A
 Frequencies --   3063.8371              3067.2781              3080.3486
 Red. masses --      1.0992                 1.1081                 1.0886
 Frc consts  --      6.0792                 6.1426                 6.0856
 IR Inten    --     18.7325               100.4537                10.7323

                     70                     71                     72
                      A                      A                      A
 Frequencies --   3086.3540              3098.0129              3112.2020
 Red. masses --      1.0813                 1.0934                 1.0981
 Frc consts  --      6.0687                 6.1829                 6.2664
 IR Inten    --     70.5270                12.1765                40.9734

                     73                     74                     75
                      A                      A                      A
 Frequencies --   3126.0954              3140.0855              3507.1623
 Red. masses --      1.1029                 1.0992                 1.0746
 Frc consts  --      6.3505                 6.3856                 7.7876
 IR Inten    --     33.9591                36.8395                 0.3562

 - Thermochemistry -
 -------------------
 Temperature   298.150 Kelvin.  Pressure   1.00000 Atm.
 Atom     1 has atomic number  6 and mass  12.00000

 Molecular mass:   143.13101 amu.
 Principal axes and moments of inertia in atomic units:
                           1         2         3
     Eigenvalues --   856.925542156.273932570.13983
           X            0.99986   0.01417   0.00858
           Y           -0.01408   0.99984  -0.01061
           Z           -0.00873   0.01049   0.99991
 This molecule is an asymmetric top.
 Rotational symmetry number  1.
 Warning -- assumption of classical behavior for rotation
           may cause significant error
 Rotational temperatures (Kelvin)      0.10108     0.04017     0.03370
 Rotational constants (GHZ):           2.10607     0.83697     0.70220
 Zero-point vibrational energy     650852.8 (Joules/Mol)
                                  155.55756 (Kcal/Mol)
 Warning -- explicit consideration of  15 degrees of freedom as
           vibrations may cause significant error
 Vibrational temperatures:     68.59    89.29   136.55   167.61   226.39
          (Kelvin)            283.13   299.58   305.56   379.73   455.07
                              501.67   581.62   589.78   656.61   760.53
                              933.89  1126.38  1141.79  1190.51  1253.64
                             1276.15  1354.18  1390.94  1413.47  1429.66
                             1459.62  1486.69  1505.82  1540.87  1551.97
                             1603.97  1667.08  1685.94  1686.17  1698.54
                             1736.95  1747.72  1824.67  1875.80  1899.51
                             1928.77  1940.13  2005.45  2018.17  2033.84
                             2049.36  2068.02  2130.88  2165.93  2174.76
                             2176.63  2185.50  2196.96  2198.87  2216.39
                             2220.33  2226.68  2254.05  4226.78  4250.59
                             4336.62  4349.81  4363.69  4377.62  4385.31
                             4403.84  4408.18  4413.13  4431.93  4440.58
                             4457.35  4477.76  4497.75  4517.88  5046.02

 Zero-point correction=                           0.247897 (Hartree/Particle)
 Thermal correction to Energy=                    0.259483
 Thermal correction to Enthalpy=                  0.260427
 Thermal correction to Gibbs Free Energy=         0.210201
 Sum of electronic and zero-point Energies=           -444.804252
 Sum of electronic and thermal Energies=              -444.792666
 Sum of electronic and thermal Enthalpies=            -444.791722
 Sum of electronic and thermal Free Energies=         -444.841947

                     E (Thermal)             CV                S
                      KCal/Mol        Cal/Mol-Kelvin    Cal/Mol-Kelvin
 Total                  162.828             42.337            105.708
 Electronic               0.000              0.000              0.000
 Translational            0.889              2.981             40.787
 Rotational               0.889              2.981             29.942
 Vibrational            161.050             36.375             34.980
 Vibration     1          0.595              1.978              4.912
 Vibration     2          0.597              1.972              4.391
 Vibration     3          0.603              1.953              3.556
 Vibration     4          0.608              1.936              3.158
 Vibration     5          0.621              1.894              2.581
 Vibration     6          0.636              1.844              2.163
 Vibration     7          0.642              1.828              2.059
 Vibration     8          0.643              1.822              2.023
 Vibration     9          0.670              1.739              1.636
 Vibration    10          0.703              1.643              1.329
 Vibration    11          0.726              1.578              1.172
 Vibration    12          0.769              1.461              0.947
 Vibration    13          0.774              1.449              0.927
 Vibration    14          0.815              1.347              0.777
 Vibration    15          0.884              1.187              0.590

                           ! Non-Optimized Parameters !
 Normal termination of Gaussian 16 at Tue Dec  8 12:23:00 2020.

 ----------------------------------------------------------------------
 # B3LYP/6-311++G(d,p) empiricaldispersion=gd3bj scf=xqc pop=npa geom=c
 heck
 ----------------------------------------------------------------------

 -------------------------------------
 CID_84081945_JID_514_Energie_neutraal
 -------------------------------------
 Structure from the checkpoint file:  "JID_514.chk"
 Charge =  0 Multiplicity = 1

 SCF Done:  E(RB3LYP) =  -445.183850653     A.U. after   13 cycles
 Normal termination of Gaussian 16 at Tue Dec  8 12:26:18 2020.

 ----------------------------------------------------------------------
 # B3LYP/6-311++G(d,p) empiricaldispersion=gd3bj scf=xqc pop=npa geom=c
 heck
 ----------------------------------------------------------------------

 -----------------------------------
 CID_84081945_JID_514_Energie_kation
 -----------------------------------
 Structure from the checkpoint file:  "JID_514.chk"
 Charge =  1 Multiplicity = 2

 SCF Done:  E(UB3LYP) =  -444.875321157     A.U. after   25 cycles
 Normal termination of Gaussian 16 at Tue Dec  8 12:40:03 2020.
 Gaussian 16:  ES64L-G16RevA.03 25-Dec-2016

 ----------------------------------------------------------------------
 # B3LYP/6-311++G(d,p) empiricaldispersion=gd3bj scf=xqc pop=npa geom=c
 heck
 ----------------------------------------------------------------------

 ----------------------------------
 CID_84081945_JID_514_Energie_anion
 ----------------------------------
 Structure from the checkpoint file:  "JID_514.chk"
 Charge = -1 Multiplicity = 2

                         Standard orientation:
 ---------------------------------------------------------------------
 Center     Atomic      Atomic             Coordinates (Angstroms)
 Number     Number       Type             X           Y           Z
 ---------------------------------------------------------------------
      1          6           0       -0.226134    2.344745   -0.061114
      2          6           0        0.406872    1.259418    0.811788
      3          6           0        0.891453    0.036879    0.027719
      4          6           0        2.146176    0.279559   -0.851189
      5          8           0        2.893094   -0.748217   -0.164062
      6          6           0        1.838509   -0.911361    0.808381
      7          6           0       -0.201369   -0.727160   -0.734979
      8          6           0       -1.308964   -1.336670    0.135865
      9          7           0       -2.307929   -0.356730    0.570627
     10          6           0       -3.309917   -0.059963   -0.446772
     11          1           0        0.442308    2.645856   -0.877881
     12          1           0       -0.447705    3.239185    0.531193
     13          1           0       -1.166592    1.998494   -0.498135
     14          1           0        1.270177    1.681066    1.345206
     15          1           0       -0.318783    0.942845    1.567723
     16          1           0        2.044113    0.065608   -1.923100
     17          1           0        2.605522    1.270370   -0.725619
     18          1           0        2.136110   -0.544272    1.800756
     19          1           0        1.524220   -1.959933    0.896276
     20          1           0       -0.644604   -0.077163   -1.499510
     21          1           0        0.286409   -1.544348   -1.282787
     22          1           0       -1.775768   -2.172993   -0.418622
     23          1           0       -0.855804   -1.773734    1.034473
     24          1           0       -2.779718   -0.714529    1.397277
     25          1           0       -3.817135   -0.956380   -0.850549
     26          1           0       -4.067671    0.608976   -0.026943
     27          1           0       -2.844094    0.461125   -1.289834
 ---------------------------------------------------------------------

 SCF Done:  E(UB3LYP) =  -445.167646728     A.U. after   30 cycles

 The electronic state is 2-A.
 Alpha  occ. eigenvalues --  -19.01921 -14.18531 -10.11447 -10.11298 -10.08271
 Alpha  occ. eigenvalues --  -10.08196 -10.07262 -10.06203 -10.05843 -10.05254
 Alpha  occ. eigenvalues --   -0.94351  -0.79292  -0.70732  -0.64137  -0.60083
 Alpha  occ. eigenvalues --   -0.59332  -0.55815  -0.51027  -0.48957  -0.43155
 Alpha  occ. eigenvalues --   -0.40041  -0.38544  -0.37429  -0.36241  -0.33293
 Alpha  occ. eigenvalues --   -0.32824  -0.32267  -0.30575  -0.30010  -0.28351
 Alpha  occ. eigenvalues --   -0.27494  -0.27380  -0.24907  -0.24547  -0.24450
 Alpha  occ. eigenvalues --   -0.21784  -0.20410  -0.19374  -0.15623  -0.11757
 Alpha  occ. eigenvalues --    0.04828
 Alpha virt. eigenvalues --    0.07119   0.07584   0.07910   0.09452   0.09777
 Alpha virt. eigenvalues --    0.09914   0.10491   0.10621   0.12290   0.12723
 Alpha virt. eigenvalues --    0.13063   0.13449   0.13749   0.14559   0.14947

  Beta  occ. eigenvalues --  -19.01920 -14.18496 -10.11436 -10.11282 -10.08241
  Beta  occ. eigenvalues --  -10.08197 -10.07214 -10.06189 -10.05831 -10.05232
  Beta  occ. eigenvalues --   -0.94345  -0.79238  -0.70714  -0.64100  -0.60043
  Beta  occ. eigenvalues --   -0.59299  -0.55729  -0.50975  -0.48864  -0.43105
  Beta  occ. eigenvalues --   -0.39989  -0.38503  -0.37383  -0.36221  -0.33253
  Beta  occ. eigenvalues --   -0.32788  -0.32218  -0.30545  -0.29981  -0.28312
  Beta  occ. eigenvalues --   -0.27453  -0.27344  -0.24860  -0.24489  -0.24422
  Beta  occ. eigenvalues --   -0.21760  -0.20382  -0.19360  -0.15612  -0.11685
  Beta virt. eigenvalues --    0.07074   0.08092   0.08262   0.08564   0.10156
  Beta virt. eigenvalues --    0.10229   0.10504   0.10876   0.11030   0.12720
  Beta virt. eigenvalues --    0.13178   0.13621   0.13764   0.14228   0.14759

 Mulliken charges and spin densities:
               1          2
     1  C   -0.096364  -0.565657
     2  C   -0.350133   0.124982
     3  C   -1.038633   1.565373
     4  C    0.185436  -0.454290
     5  O   -0.198682   0.017759
     6  C    0.843242  -1.080474
     7  C    0.332387  -0.665416
     8  C    0.980114  -1.695152
     9  N   -0.524958   0.417750
    10  C    1.235496  -1.605643
    11  H   -0.107525   0.231638
    12  H   -0.199194   0.334261
    13  H    0.015225   0.118948
    14  H   -0.096880   0.240053
    15  H    0.162046   0.030689
    16  H   -0.163112   0.321485
    17  H    0.096435   0.047607
    18  H   -0.131358   0.279682
    19  H   -0.014752   0.175518
    20  H    0.080047   0.051373
    21  H    0.035949   0.122127
    22  H   -0.255625   0.378454
    23  H   -0.337516   0.511899
    24  H   -0.329666   0.583054
    25  H   -0.478920   0.603689
    26  H   -0.506325   0.654057
    27  H   -0.136732   0.256231
 Sum of Mulliken charges =  -1.00000   1.00000

 Dipole moment (field-independent basis, Debye):
    X=              5.6351    Y=              1.3339    Z=             -1.2404  Tot=              5.9222
 Quadrupole moment (field-independent basis, Debye-Ang):
   XX=           -134.4166   YY=           -105.1238   ZZ=            -97.7649
   XY=             -1.9384   XZ=              2.9912   YZ=             -0.1298

 Summary of Natural Population Analysis:

                                       Natural Population
                Natural  -----------------------------------------------
    Atom  No    Charge         Core      Valence    Rydberg      Total
 -----------------------------------------------------------------------
      C    1   -0.28659      0.99966     2.28146    0.00548     3.28659
      C    2   -0.19165      0.99959     2.18253    0.00953     3.19165
      C    3   -0.05758      0.99954     2.04639    0.01165     3.05758
      C    4    0.00303      0.99957     1.98641    0.01099     2.99697
      O    5   -0.30945      0.99991     3.30119    0.00835     4.30945
      C    6    0.00215      0.99957     1.98560    0.01267     2.99785
      C    7   -0.19419      0.99958     2.18379    0.01082     3.19419
      C    8   -0.08800      0.99961     2.07502    0.01337     3.08800
      N    9   -0.34279      0.99975     2.82884    0.01420     3.84279
      C   10   -0.17850      0.99965     2.16938    0.00946     3.17850
      H   11    0.09120      0.00000     0.40766    0.00114     0.40880
      H   12    0.09880      0.00000     0.40031    0.00090     0.40120
      H   13    0.10338      0.00000     0.39520    0.00141     0.39662
      H   14    0.09105      0.00000     0.40753    0.00143     0.40895
      H   15    0.11033      0.00000     0.38785    0.00182     0.38967
      H   16    0.08261      0.00000     0.41582    0.00156     0.41739
      H   17    0.08017      0.00000     0.41824    0.00159     0.41983
      H   18    0.08098      0.00000     0.41743    0.00160     0.41902
      H   19    0.08418      0.00000     0.41412    0.00170     0.41582
      H   20    0.10146      0.00000     0.39716    0.00138     0.39854
      H   21    0.09989      0.00000     0.39833    0.00178     0.40011
      H   22    0.08260      0.00000     0.41543    0.00197     0.41740
      H   23    0.09397      0.00000     0.40399    0.00204     0.40603
      H   24    0.17741      0.00000     0.31651    0.00607     0.32259
      H   25    0.08025      0.00000     0.41736    0.00238     0.41975
      H   26    0.09767      0.00000     0.40061    0.00172     0.40233
      H   27    0.08761      0.00000     0.41079    0.00160     0.41239
 =======================================================================
   * Total *   -0.00000      9.99644    29.86496    0.13860    40.00000

 Normal termination of Gaussian 16 at Tue Dec  8 12:50:15 2020.
