 Gaussian 16, Revision A.03,

 -----------------------------------------------------------
 # opt freq B3LYP/6-31G(d) empiricaldispersion=gd3bj scf=xqc
 -----------------------------------------------------------

 -------------------------------
 CID_123965774_JID_7280_neutraal
 -------------------------------
 Symbolic Z-matrix:
 Charge =  0 Multiplicity = 1

 SCF Done:  E(RB3LYP) =  -794.692108260     A.U. after   15 cycles
 SCF Done:  E(RB3LYP) =  -794.697565735     A.U. after   13 cycles
 SCF Done:  E(RB3LYP) =  -794.698174940     A.U. after   12 cycles
 SCF Done:  E(RB3LYP) =  -794.698456338     A.U. after   12 cycles
 SCF Done:  E(RB3LYP) =  -794.698678315     A.U. after   12 cycles
 SCF Done:  E(RB3LYP) =  -794.698891088     A.U. after   12 cycles
 SCF Done:  E(RB3LYP) =  -794.698948346     A.U. after   11 cycles
 SCF Done:  E(RB3LYP) =  -794.699086566     A.U. after   11 cycles
 SCF Done:  E(RB3LYP) =  -794.699230939     A.U. after   12 cycles
 SCF Done:  E(RB3LYP) =  -794.699344658     A.U. after   11 cycles
 SCF Done:  E(RB3LYP) =  -794.699506458     A.U. after   11 cycles
 SCF Done:  E(RB3LYP) =  -794.699508784     A.U. after   11 cycles
 SCF Done:  E(RB3LYP) =  -794.699509301     A.U. after    8 cycles
 SCF Done:  E(RB3LYP) =  -794.699509634     A.U. after    8 cycles
 SCF Done:  E(RB3LYP) =  -794.699509870     A.U. after    9 cycles
 SCF Done:  E(RB3LYP) =  -794.699509884     A.U. after    7 cycles
 Optimization completed.
    -- Stationary point found.
 Normal termination of Gaussian 16 at Fri Dec 11 12:08:12 2020.

 --------------------------------------------------------------------
 #N Geom=AllCheck Guess=TCheck SCRF=Check GenChk RB3LYP/6-31G(d) Freq
 --------------------------------------------------------------------

 Structure from the checkpoint file:  "JID_7280.chk"
 -------------------------------
 CID_123965774_JID_7280_neutraal
 -------------------------------
 Charge =  0 Multiplicity = 1

 SCF Done:  E(RB3LYP) =  -794.699509884     A.U. after    1 cycles

  Exact polarizability: 240.464 -11.497 117.574   8.049   4.544  87.589
 Approx polarizability: 326.113 -29.729 210.543  16.395  12.316 150.681

                      1                      2                      3
                      A                      A                      A
 Frequencies --     14.9100                23.1270                33.5015
 Red. masses --      4.9916                 4.3292                 5.5399
 Frc consts  --      0.0007                 0.0014                 0.0037
 IR Inten    --      0.0645                 2.0602                 0.7956

                      4                      5                      6
                      A                      A                      A
 Frequencies --     69.5546                87.9638               147.7770
 Red. masses --      7.1489                 6.1813                 5.8591
 Frc consts  --      0.0204                 0.0282                 0.0754
 IR Inten    --      1.0902                 0.1381                 0.5770

                      7                      8                      9
                      A                      A                      A
 Frequencies --    189.9767               233.6497               240.0177
 Red. masses --      3.7773                 4.3461                 5.0807
 Frc consts  --      0.0803                 0.1398                 0.1725
 IR Inten    --      0.4565                 1.5697                 2.6896

                     10                     11                     12
                      A                      A                      A
 Frequencies --    251.9097               277.4788               362.2587
 Red. masses --      3.4951                 1.2492                 4.8619
 Frc consts  --      0.1307                 0.0567                 0.3759
 IR Inten    --      0.9792                 0.6848                18.7243

                     13                     14                     15
                      A                      A                      A
 Frequencies --    386.7472               422.5653               428.0617
 Red. masses --      6.5753                 6.9411                 4.4115
 Frc consts  --      0.5795                 0.7302                 0.4763
 IR Inten    --      1.7088                 3.8836                 0.6620

                     16                     17                     18
                      A                      A                      A
 Frequencies --    459.8310               473.2901               556.1398
 Red. masses --      3.9452                 4.8680                 2.5448
 Frc consts  --      0.4915                 0.6425                 0.4637
 IR Inten    --      0.4718                 3.5551                12.2279

                     19                     20                     21
                      A                      A                      A
 Frequencies --    559.3238               619.0339               631.5717
 Red. masses --      3.1386                 7.2501                 8.9381
 Frc consts  --      0.5785                 1.6369                 2.1006
 IR Inten    --     16.6272                 3.5580                 8.5701

                     22                     23                     24
                      A                      A                      A
 Frequencies --    645.0271               658.1878               706.6893
 Red. masses --      8.0567                 5.4030                 6.3780
 Frc consts  --      1.9750                 1.3791                 1.8767
 IR Inten    --      6.2602                11.4607                11.6727

                     25                     26                     27
                      A                      A                      A
 Frequencies --    733.9464               744.1293               750.9826
 Red. masses --      1.6018                 2.1906                 1.6247
 Frc consts  --      0.5084                 0.7147                 0.5399
 IR Inten    --     64.8045                14.4800                32.6553

                     28                     29                     30
                      A                      A                      A
 Frequencies --    782.6207               795.5622               835.7557
 Red. masses --      3.1502                 2.7458                 5.6460
 Frc consts  --      1.1368                 1.0239                 2.3235
 IR Inten    --     29.8025                29.9872                 7.2708

                     31                     32                     33
                      A                      A                      A
 Frequencies --    863.1221               902.4024               924.3512
 Red. masses --      1.4149                 6.6353                 1.7962
 Frc consts  --      0.6210                 3.1835                 0.9042
 IR Inten    --      0.1148                16.6984                 8.6316

                     34                     35                     36
                      A                      A                      A
 Frequencies --    975.5944               989.0993               994.8207
 Red. masses --      1.3608                 1.2768                 1.5083
 Frc consts  --      0.7631                 0.7360                 0.8795
 IR Inten    --      0.1247                 0.0488                 0.4027

                     37                     38                     39
                      A                      A                      A
 Frequencies --   1003.3933              1012.2476              1054.8512
 Red. masses --      6.4798                 2.4215                 2.3279
 Frc consts  --      3.8437                 1.4619                 1.5262
 IR Inten    --      1.6879                11.6464                12.0193

                     40                     41                     42
                      A                      A                      A
 Frequencies --   1063.0394              1069.4086              1132.8914
 Red. masses --      2.7063                 1.7198                 1.5644
 Frc consts  --      1.8019                 1.1588                 1.1830
 IR Inten    --     77.9596                 7.4707                 6.1895

                     43                     44                     45
                      A                      A                      A
 Frequencies --   1153.1202              1203.2640              1218.5765
 Red. masses --      3.8970                 1.1748                 1.7674
 Frc consts  --      3.0530                 1.0021                 1.5463
 IR Inten    --      0.0074                32.9028                15.3895

                     46                     47                     48
                      A                      A                      A
 Frequencies --   1255.6926              1269.5428              1288.1748
 Red. masses --     11.1385                 2.5655                 2.8292
 Frc consts  --     10.3477                 2.4362                 2.7661
 IR Inten    --      1.6356                90.2283               577.3341

                     49                     50                     51
                      A                      A                      A
 Frequencies --   1332.0131              1339.0691              1374.5585
 Red. masses --      3.7392                 3.0106                 1.2800
 Frc consts  --      3.9088                 3.1806                 1.4249
 IR Inten    --    249.2707               287.8066                 1.0947

                     52                     53                     54
                      A                      A                      A
 Frequencies --   1378.0997              1423.2573              1427.1904
 Red. masses --      3.7385                 1.5473                 2.1301
 Frc consts  --      4.1832                 1.8467                 2.5563
 IR Inten    --     77.8326                81.4728                80.8667

                     55                     56                     57
                      A                      A                      A
 Frequencies --   1460.6534              1480.3122              1498.4533
 Red. masses --      3.2103                 2.0123                 2.6101
 Frc consts  --      4.0354                 2.5980                 3.4529
 IR Inten    --    362.6204                 5.0979               371.7801

                     58                     59                     60
                      A                      A                      A
 Frequencies --   1508.7241              1517.3556              1550.7144
 Red. masses --      1.0739                 1.0521                 2.6152
 Frc consts  --      1.4403                 1.4272                 3.7053
 IR Inten    --      5.2364                10.1505                86.6463

                     61                     62                     63
                      A                      A                      A
 Frequencies --   1611.4426              1630.5813              1643.8574
 Red. masses --      6.0873                 5.4461                 5.4991
 Frc consts  --      9.3133                 8.5314                 8.7552
 IR Inten    --     38.2749                90.6336               115.0248

                     64                     65                     66
                      A                      A                      A
 Frequencies --   1661.2995              1799.3113              3064.2537
 Red. masses --      7.0819                 8.1373                 1.0391
 Frc consts  --     11.5158                15.5218                 5.7483
 IR Inten    --    273.5500               439.9902                 3.4480

                     67                     68                     69
                      A                      A                      A
 Frequencies --   3131.2559              3179.9036              3186.9252
 Red. masses --      1.1001                 1.1013                 1.0915
 Frc consts  --      6.3548                 6.5614                 6.5316
 IR Inten    --      7.3246                 8.5294                19.8765

                     70                     71                     72
                      A                      A                      A
 Frequencies --   3192.6199              3205.6808              3206.0292
 Red. masses --      1.0916                 1.0924                 1.0904
 Frc consts  --      6.5557                 6.6141                 6.6034
 IR Inten    --     13.8185                16.9970                 9.9576

                     73                     74                     75
                      A                      A                      A
 Frequencies --   3246.3311              3288.6894              3571.9182
 Red. masses --      1.0933                 1.0910                 1.0754
 Frc consts  --      6.7882                 6.9523                 8.0836
 IR Inten    --      2.2890                 2.0130                44.7491

 - Thermochemistry -
 -------------------
 Temperature   298.150 Kelvin.  Pressure   1.00000 Atm.
 Atom     1 has atomic number  6 and mass  12.00000

 Molecular mass:   230.08038 amu.
 Principal axes and moments of inertia in atomic units:
                           1         2         3
     Eigenvalues --  1088.659239796.50113**********
           X            0.99997   0.00803   0.00153
           Y           -0.00804   0.99995   0.00512
           Z           -0.00149  -0.00513   0.99999
 This molecule is an asymmetric top.
 Rotational symmetry number  1.
 Warning -- assumption of classical behavior for rotation
           may cause significant error
 Rotational temperatures (Kelvin)      0.07956     0.00884     0.00846
 Rotational constants (GHZ):           1.65777     0.18422     0.17637
 Zero-point vibrational energy     540746.1 (Joules/Mol)
                                  129.24141 (Kcal/Mol)
 Warning -- explicit consideration of  20 degrees of freedom as
           vibrations may cause significant error
 Vibrational temperatures:     21.45    33.27    48.20   100.07   126.56
          (Kelvin)            212.62   273.33   336.17   345.33   362.44
                              399.23   521.21   556.44   607.98   615.89
                              661.59   680.96   800.16   804.74   890.65
                              908.69   928.05   946.99  1016.77  1055.99
                             1070.64  1080.50  1126.02  1144.64  1202.47
                             1241.84  1298.36  1329.94  1403.66  1423.09
                             1431.33  1443.66  1456.40  1517.70  1529.48
                             1538.64  1629.98  1659.08  1731.23  1753.26
                             1806.66  1826.59  1853.40  1916.47  1926.62
                             1977.68  1982.78  2047.75  2053.41  2101.55
                             2129.84  2155.94  2170.72  2183.14  2231.13
                             2318.51  2346.04  2365.14  2390.24  2588.81
                             4408.78  4505.18  4575.17  4585.27  4593.47
                             4612.26  4612.76  4670.75  4731.69  5139.19

 Zero-point correction=                           0.205959 (Hartree/Particle)
 Thermal correction to Energy=                    0.220131
 Thermal correction to Enthalpy=                  0.221075
 Thermal correction to Gibbs Free Energy=         0.161476
 Sum of electronic and zero-point Energies=           -794.493551
 Sum of electronic and thermal Energies=              -794.479379
 Sum of electronic and thermal Enthalpies=            -794.478435
 Sum of electronic and thermal Free Energies=         -794.538034

                     E (Thermal)             CV                S
                      KCal/Mol        Cal/Mol-Kelvin    Cal/Mol-Kelvin
 Total                  138.134             53.312            125.437
 Electronic               0.000              0.000              0.000
 Translational            0.889              2.981             42.202
 Rotational               0.889              2.981             33.056
 Vibrational            136.357             47.350             50.179
 Vibration     1          0.593              1.986              7.217
 Vibration     2          0.593              1.985              6.346
 Vibration     3          0.594              1.983              5.610
 Vibration     4          0.598              1.969              4.166
 Vibration     5          0.601              1.958              3.705
 Vibration     6          0.617              1.905              2.701
 Vibration     7          0.633              1.854              2.228
 Vibration     8          0.654              1.789              1.851
 Vibration     9          0.657              1.779              1.803
 Vibration    10          0.664              1.760              1.717
 Vibration    11          0.678              1.715              1.549
 Vibration    12          0.736              1.550              1.112
 Vibration    13          0.755              1.498              1.013
 Vibration    14          0.785              1.421              0.883
 Vibration    15          0.790              1.409              0.865
 Vibration    16          0.818              1.339              0.767
 Vibration    17          0.830              1.309              0.728
 Vibration    18          0.912              1.126              0.532
 Vibration    19          0.915              1.119              0.525
 Vibration    20          0.979              0.992              0.418

 Optimization completed.
    -- Stationary point found.
 Normal termination of Gaussian 16 at Fri Dec 11 12:16:54 2020.

 ----------------------------------------------------------------------
 # B3LYP/6-311++G(d,p) empiricaldispersion=gd3bj scf=xqc pop=npa geom=c
 heck
 ----------------------------------------------------------------------

 ---------------------------------------
 CID_123965774_JID_7280_Energie_neutraal
 ---------------------------------------
 Structure from the checkpoint file:  "JID_7280.chk"
 Charge =  0 Multiplicity = 1

 SCF Done:  E(RB3LYP) =  -794.915855392     A.U. after   16 cycles
 Normal termination of Gaussian 16 at Fri Dec 11 12:20:45 2020.

 ----------------------------------------------------------------------
 # B3LYP/6-311++G(d,p) empiricaldispersion=gd3bj scf=xqc pop=npa geom=c
 heck
 ----------------------------------------------------------------------

 -------------------------------------
 CID_123965774_JID_7280_Energie_kation
 -------------------------------------
 Structure from the checkpoint file:  "JID_7280.chk"
 Charge =  1 Multiplicity = 2

 SCF Done:  E(UB3LYP) =  -794.606973171     A.U. after   25 cycles
 Normal termination of Gaussian 16 at Fri Dec 11 12:29:34 2020.
 Gaussian 16:  ES64L-G16RevA.03 25-Dec-2016

 ----------------------------------------------------------------------
 # B3LYP/6-311++G(d,p) empiricaldispersion=gd3bj scf=xqc pop=npa geom=c
 heck
 ----------------------------------------------------------------------

 ------------------------------------
 CID_123965774_JID_7280_Energie_anion
 ------------------------------------
 Structure from the checkpoint file:  "JID_7280.chk"
 Charge = -1 Multiplicity = 2

                         Standard orientation:
 ---------------------------------------------------------------------
 Center     Atomic      Atomic             Coordinates (Angstroms)
 Number     Number       Type             X           Y           Z
 ---------------------------------------------------------------------
      1          6           0        4.944795    0.910476    0.418445
      2          6           0        4.493631   -0.523993    0.250846
      3          8           0        5.262610   -1.462809    0.374882
      4          7           0        3.160442   -0.791453   -0.041632
      5          6           0        2.011117   -0.018043   -0.206735
      6          7           0        0.891304   -0.757428   -0.145270
      7          6           0       -0.274673   -0.156880   -0.304843
      8          6           0       -0.432414    1.214105   -0.532562
      9          6           0        0.736671    1.965607   -0.600044
     10          6           0        1.982716    1.364865   -0.444524
     11          8           0       -1.336153   -1.032603   -0.268712
     12          6           0       -2.600579   -0.556231   -0.021286
     13          6           0       -3.627177   -0.833236   -0.920682
     14          7           0       -4.887436   -0.455295   -0.683486
     15          6           0       -5.100585    0.205490    0.458635
     16          7           0       -4.191383    0.518815    1.389794
     17          6           0       -2.937679    0.129031    1.146866
     18          1           0        5.957941    0.887011    0.820574
     19          1           0        4.291238    1.468797    1.095529
     20          1           0        4.963669    1.429817   -0.546257
     21          1           0        2.957385   -1.786138   -0.027693
     22          1           0       -1.407536    1.662395   -0.670995
     23          1           0        0.678997    3.032469   -0.794662
     24          1           0        2.883339    1.951626   -0.533546
     25          1           0       -3.419076   -1.377382   -1.839492
     26          1           0       -6.122472    0.520211    0.654561
     27          1           0       -2.180556    0.364869    1.892082
 ---------------------------------------------------------------------

 SCF Done:  E(UB3LYP) =  -794.933694649     A.U. after   26 cycles

 The electronic state is 2-A.
 Alpha  occ. eigenvalues --  -19.04979 -18.99202 -14.24404 -14.18258 -14.17641
 Alpha  occ. eigenvalues --  -14.17573 -10.17856 -10.15376 -10.13323 -10.11429
 Alpha  occ. eigenvalues --  -10.10406 -10.09071 -10.07469 -10.07409 -10.06629
 Alpha  occ. eigenvalues --  -10.06497 -10.05462  -0.97525  -0.94766  -0.86241
 Alpha  occ. eigenvalues --   -0.84992  -0.79779  -0.75495  -0.69346  -0.66832
 Alpha  occ. eigenvalues --   -0.65446  -0.63183  -0.55589  -0.54045  -0.52893
 Alpha  occ. eigenvalues --   -0.51117  -0.47231  -0.44504  -0.40808  -0.40292
 Alpha  occ. eigenvalues --   -0.39453  -0.39119  -0.38325  -0.36751  -0.36269
 Alpha  occ. eigenvalues --   -0.32743  -0.32182  -0.31726  -0.30701  -0.29699
 Alpha  occ. eigenvalues --   -0.29188  -0.28596  -0.28360  -0.27402  -0.26496
 Alpha  occ. eigenvalues --   -0.25069  -0.20357  -0.19167  -0.18057  -0.17368
 Alpha  occ. eigenvalues --   -0.16863  -0.16009  -0.14164  -0.12397  -0.10955
 Alpha  occ. eigenvalues --    0.03598
 Alpha virt. eigenvalues --    0.06715   0.07082   0.08687   0.08759   0.09576
 Alpha virt. eigenvalues --    0.09878   0.10290   0.10599   0.10899   0.11374
 Alpha virt. eigenvalues --    0.12031   0.12858   0.13371   0.13688   0.14555

  Beta  occ. eigenvalues --  -19.04992 -18.99083 -14.24457 -14.18051 -14.17378
  Beta  occ. eigenvalues --  -14.17296 -10.17746 -10.15404 -10.13120 -10.11519
  Beta  occ. eigenvalues --  -10.10469 -10.09080 -10.07210 -10.07160 -10.06583
  Beta  occ. eigenvalues --  -10.06360 -10.05405  -0.97536  -0.94561  -0.85999
  Beta  occ. eigenvalues --   -0.84579  -0.79624  -0.74882  -0.69017  -0.66628
  Beta  occ. eigenvalues --   -0.65338  -0.62951  -0.55504  -0.53662  -0.52370
  Beta  occ. eigenvalues --   -0.50838  -0.47117  -0.44391  -0.40672  -0.40100
  Beta  occ. eigenvalues --   -0.39276  -0.39019  -0.38223  -0.36530  -0.36103
  Beta  occ. eigenvalues --   -0.32640  -0.31747  -0.31542  -0.30440  -0.29317
  Beta  occ. eigenvalues --   -0.28818  -0.28420  -0.28124  -0.27238  -0.26201
  Beta  occ. eigenvalues --   -0.24575  -0.19682  -0.17669  -0.17300  -0.17159
  Beta  occ. eigenvalues --   -0.16143  -0.15697  -0.13432  -0.12020  -0.10571
  Beta virt. eigenvalues --    0.06718   0.08173   0.08669   0.09138   0.09493
  Beta virt. eigenvalues --    0.09851   0.10165   0.10568   0.10607   0.10924
  Beta virt. eigenvalues --    0.11363   0.12051   0.12870   0.13595   0.13925

 Mulliken charges and spin densities:
               1          2
     1  C   -0.408684  -0.010828
     2  C    0.095809   0.058565
     3  O   -0.354643   0.039319
     4  N   -0.145472  -0.031245
     5  C   -0.793222   0.128593
     6  N   -0.288231   0.100557
     7  C   -0.561630  -0.026893
     8  C    0.737168   0.089231
     9  C   -0.955389   0.176991
    10  C    0.855742  -0.054737
    11  O    0.005413   0.010306
    12  C   -0.346525  -0.046192
    13  C   -0.028336   0.184492
    14  N   -0.157635   0.119482
    15  C   -0.110826  -0.039973
    16  N   -0.124945   0.118856
    17  C   -0.126983   0.200345
    18  H    0.180558  -0.000301
    19  H    0.153904   0.002752
    20  H    0.138165   0.018030
    21  H    0.309619   0.000542
    22  H    0.194338  -0.000618
    23  H    0.147335  -0.010652
    24  H    0.111719   0.006093
    25  H    0.149794  -0.017973
    26  H    0.154487   0.001582
    27  H    0.168471  -0.016324
 Sum of Mulliken charges =  -1.00000   1.00000

 Dipole moment (field-independent basis, Debye):
    X=              4.3224    Y=              3.6603    Z=             -0.7158  Tot=              5.7091
 Quadrupole moment (field-independent basis, Debye-Ang):
   XX=           -190.5134   YY=           -111.1356   ZZ=           -110.9356
   XY=             14.5309   XZ=             -0.2412   YZ=             -0.9393

 Summary of Natural Population Analysis:

                                       Natural Population
                Natural  -----------------------------------------------
    Atom  No    Charge         Core      Valence    Rydberg      Total
 -----------------------------------------------------------------------
      C    1   -0.33546      0.99963     2.33190    0.00393     3.33546
      C    2    0.35497      0.99973     1.62443    0.02088     2.64503
      O    3   -0.31124      0.99988     3.30439    0.00698     4.31124
      N    4   -0.31461      0.99964     2.80642    0.00855     3.81461
      C    5    0.22697      0.99954     1.76012    0.01337     2.77303
      N    6   -0.23961      0.99962     2.73000    0.01000     3.73961
      C    7    0.27073      0.99941     1.71213    0.01773     2.72927
      C    8   -0.15813      0.99951     2.15073    0.00788     3.15813
      C    9   -0.02630      0.99959     2.01796    0.00875     3.02630
      C   10   -0.17649      0.99953     2.16955    0.00740     3.17649
      O   11   -0.26672      0.99983     3.25530    0.01159     4.26672
      C   12    0.09694      0.99934     1.89023    0.01349     2.90306
      C   13    0.05991      0.99955     1.92578    0.01476     2.94009
      N   14   -0.21655      0.99971     2.70486    0.01198     3.71655
      C   15    0.10982      0.99968     1.86945    0.02105     2.89018
      N   16   -0.21779      0.99971     2.70609    0.01198     3.71779
      C   17    0.05925      0.99955     1.92747    0.01374     2.94075
      H   18    0.10947      0.00000     0.38943    0.00110     0.39053
      H   19    0.10992      0.00000     0.38892    0.00116     0.39008
      H   20    0.10767      0.00000     0.39133    0.00100     0.39233
      H   21    0.20364      0.00000     0.29412    0.00224     0.29636
      H   22    0.11191      0.00000     0.38699    0.00110     0.38809
      H   23    0.09141      0.00000     0.40724    0.00135     0.40859
      H   24    0.09941      0.00000     0.39937    0.00122     0.40059
      H   25    0.08681      0.00000     0.41175    0.00144     0.41319
      H   26    0.07497      0.00000     0.42376    0.00127     0.42503
      H   27    0.08909      0.00000     0.40938    0.00153     0.41091
 =======================================================================
   * Total *   -0.00000     16.99345    42.78909    0.21747    60.00000

 Normal termination of Gaussian 16 at Fri Dec 11 12:40:37 2020.
