 Gaussian 16, Revision A.03,

 -----------------------------------------------------------
 # opt freq B3LYP/6-31G(d) empiricaldispersion=gd3bj scf=xqc
 -----------------------------------------------------------

 ------------------------------
 CID_21534156_JID_2601_neutraal
 ------------------------------
 Symbolic Z-matrix:
 Charge =  0 Multiplicity = 1

 SCF Done:  E(RB3LYP) =  -550.786134735     A.U. after   14 cycles
 SCF Done:  E(RB3LYP) =  -550.792824137     A.U. after   13 cycles
 SCF Done:  E(RB3LYP) =  -550.797068750     A.U. after   13 cycles
 SCF Done:  E(RB3LYP) =  -550.799143683     A.U. after   13 cycles
 SCF Done:  E(RB3LYP) =  -550.799829067     A.U. after   12 cycles
 SCF Done:  E(RB3LYP) =  -550.800773113     A.U. after   11 cycles
 SCF Done:  E(RB3LYP) =  -550.800993566     A.U. after   11 cycles
 SCF Done:  E(RB3LYP) =  -550.801119719     A.U. after   11 cycles
 SCF Done:  E(RB3LYP) =  -550.801137726     A.U. after   10 cycles
 SCF Done:  E(RB3LYP) =  -550.801143215     A.U. after   10 cycles
 SCF Done:  E(RB3LYP) =  -550.801148394     A.U. after    8 cycles
 SCF Done:  E(RB3LYP) =  -550.801149395     A.U. after    8 cycles
 SCF Done:  E(RB3LYP) =  -550.801149656     A.U. after    7 cycles
 Optimization completed.
    -- Stationary point found.

 1\1\GINC-NODE313\FOpt\RB3LYP\6-31G(d)\C7H17N5\VSC10255\09-Dec-2020\0\\
 # opt freq B3LYP/6-31G(d) empiricaldispersion=gd3bj scf=xqc\\CID_21534
 156_JID_2601_neutraal\\0,1\C,0.992055927,-0.2600978026,0.1888252594\C,
 1.1833455526,1.0367040995,0.9910605413\N,1.8902545415,2.0581566882,0.2
 406798556\C,3.1939976291,2.0540396172,0.2131673722\N,3.9719504336,1.13
 02464375,0.8891634946\C,5.4131157597,0.9690760257,0.6977658392\C,5.978
 322104,0.1987298742,1.8922919865\C,5.7421239903,0.2838274365,-0.634679
 9724\N,3.9568144724,2.9940534527,-0.4618571623\C,3.4055321087,4.017696

 Normal termination of Gaussian 16 at Wed Dec  9 17:45:48 2020.

 --------------------------------------------------------------------
 #N Geom=AllCheck Guess=TCheck SCRF=Check GenChk RB3LYP/6-31G(d) Freq
 --------------------------------------------------------------------

 Structure from the checkpoint file:  "JID_2601.chk"
 ------------------------------
 CID_21534156_JID_2601_neutraal
 ------------------------------
 Charge =  0 Multiplicity = 1

 SCF Done:  E(RB3LYP) =  -550.801149656     A.U. after    1 cycles

  Exact polarizability: 139.796   4.674 130.335  -2.657  -2.673  75.302
 Approx polarizability: 187.179   1.649 180.185  -5.534  -2.468 105.673

                      1                      2                      3
                      A                      A                      A
 Frequencies --     49.6124                52.2737                76.1291
 Red. masses --      2.7394                 3.8514                 2.9714
 Frc consts  --      0.0040                 0.0062                 0.0101
 IR Inten    --      0.4984                 3.6617                 0.5032

                      4                      5                      6
                      A                      A                      A
 Frequencies --     84.3281               116.9563               144.6772
 Red. masses --      3.4111                 3.8544                 3.7938
 Frc consts  --      0.0143                 0.0311                 0.0468
 IR Inten    --      1.9918                 1.1229                 1.8515

                      7                      8                      9
                      A                      A                      A
 Frequencies --    202.1783               215.2305               239.4387
 Red. masses --      1.4025                 4.1331                 1.0355
 Frc consts  --      0.0338                 0.1128                 0.0350
 IR Inten    --      2.3300                18.7349                 0.0950

                     10                     11                     12
                      A                      A                      A
 Frequencies --    255.5835               273.6469               285.2527
 Red. masses --      1.4265                 1.3448                 2.3431
 Frc consts  --      0.0549                 0.0593                 0.1123
 IR Inten    --      2.4490                 1.3642                 9.0200

                     13                     14                     15
                      A                      A                      A
 Frequencies --    339.3857               384.6406               393.1700
 Red. masses --      2.1657                 2.7296                 1.9494
 Frc consts  --      0.1470                 0.2379                 0.1775
 IR Inten    --      7.0964                29.5463                33.0323

                     16                     17                     18
                      A                      A                      A
 Frequencies --    412.1224               444.6514               465.4990
 Red. masses --      1.3814                 1.7534                 1.9449
 Frc consts  --      0.1382                 0.2043                 0.2483
 IR Inten    --     76.3417                34.3633                42.1119

                     19                     20                     21
                      A                      A                      A
 Frequencies --    477.6048               488.4249               523.9289
 Red. masses --      1.6434                 2.4049                 2.0825
 Frc consts  --      0.2209                 0.3380                 0.3368
 IR Inten    --    109.8321                37.4231                23.0236

                     22                     23                     24
                      A                      A                      A
 Frequencies --    605.3289               631.8255               711.7004
 Red. masses --      3.5736                 1.5922                 2.6138
 Frc consts  --      0.7715                 0.3745                 0.7800
 IR Inten    --     17.1177               250.5141                 9.8981

                     25                     26                     27
                      A                      A                      A
 Frequencies --    729.0777               744.0130               817.1789
 Red. masses --      2.3294                 6.5721                 1.2103
 Frc consts  --      0.7295                 2.1435                 0.4762
 IR Inten    --    101.8738                11.7594                 2.8016

                     28                     29                     30
                      A                      A                      A
 Frequencies --    829.2271               840.5928               881.8700
 Red. masses --      1.6368                 2.7829                 2.5045
 Frc consts  --      0.6631                 1.1585                 1.1476
 IR Inten    --    154.2288                 7.9931                 2.5270

                     31                     32                     33
                      A                      A                      A
 Frequencies --    937.1012               941.7517               961.0759
 Red. masses --      1.8338                 1.5357                 1.4126
 Frc consts  --      0.9488                 0.8025                 0.7688
 IR Inten    --      2.2681                 6.7856                 0.3726

                     34                     35                     36
                      A                      A                      A
 Frequencies --   1002.5889              1049.7168              1089.3630
 Red. masses --      2.3016                 2.7676                 2.2182
 Frc consts  --      1.3631                 1.7968                 1.5509
 IR Inten    --     20.7296                 2.3462                13.2315

                     37                     38                     39
                      A                      A                      A
 Frequencies --   1131.8035              1153.1416              1158.7592
 Red. masses --      1.5698                 1.9986                 2.0532
 Frc consts  --      1.1848                 1.5658                 1.6243
 IR Inten    --     10.5368                13.3939                15.5609

                     40                     41                     42
                      A                      A                      A
 Frequencies --   1183.1929              1200.6738              1227.8926
 Red. masses --      1.6900                 1.9189                 2.5241
 Frc consts  --      1.3939                 1.6298                 2.2423
 IR Inten    --      6.3358                11.6483                89.4747

                     43                     44                     45
                      A                      A                      A
 Frequencies --   1235.1368              1317.3552              1342.3798
 Red. masses --      1.9454                 1.1598                 1.3816
 Frc consts  --      1.7486                 1.1858                 1.4668
 IR Inten    --      1.1633                18.1591                15.1323

                     46                     47                     48
                      A                      A                      A
 Frequencies --   1382.2848              1391.6498              1419.3905
 Red. masses --      1.3878                 1.2536                 1.7645
 Frc consts  --      1.5623                 1.4305                 2.0945
 IR Inten    --     55.7370                23.6763               127.5534

                     49                     50                     51
                      A                      A                      A
 Frequencies --   1424.9340              1435.0056              1443.1182
 Red. masses --      1.6986                 1.5355                 1.2869
 Frc consts  --      2.0320                 1.8629                 1.5790
 IR Inten    --    135.8759                69.2996                40.2576

                     52                     53                     54
                      A                      A                      A
 Frequencies --   1478.9119              1489.8130              1515.5825
 Red. masses --      2.1153                 1.5958                 1.0674
 Frc consts  --      2.7259                 2.0869                 1.4445
 IR Inten    --     25.8327                57.5145                 8.3830

                     55                     56                     57
                      A                      A                      A
 Frequencies --   1518.7013              1520.0702              1530.5471
 Red. masses --      1.0448                 1.0476                 1.0515
 Frc consts  --      1.4198                 1.4262                 1.4513
 IR Inten    --      2.2667                 1.5158                 2.3512

                     58                     59                     60
                      A                      A                      A
 Frequencies --   1536.5039              1541.1306              1562.1929
 Red. masses --      1.0945                 1.0526                 1.1255
 Frc consts  --      1.5225                 1.4729                 1.6184
 IR Inten    --      8.2330                 4.4438                 6.6025

                     61                     62                     63
                      A                      A                      A
 Frequencies --   1568.2282              1662.2942              1669.1786
 Red. masses --      1.6807                 1.3300                 3.8147
 Frc consts  --      2.4354                 2.1652                 6.2621
 IR Inten    --    209.8660                58.0347               533.9015

                     64                     65                     66
                      A                      A                      A
 Frequencies --   1729.1628              2963.9040              3036.1577
 Red. masses --      2.6409                 1.0732                 1.0402
 Frc consts  --      4.6525                 5.5546                 5.6493
 IR Inten    --    827.3652                79.8916                17.3628

                     67                     68                     69
                      A                      A                      A
 Frequencies --   3041.2457              3044.2271              3057.0146
 Red. masses --      1.0400                 1.0366                 1.0881
 Frc consts  --      5.6673                 5.6598                 5.9912
 IR Inten    --     33.5156                38.1294                38.9888

                     70                     71                     72
                      A                      A                      A
 Frequencies --   3096.8429              3100.6633              3108.1617
 Red. masses --      1.0967                 1.0934                 1.1020
 Frc consts  --      6.1967                 6.1936                 6.2723
 IR Inten    --     27.9181                 6.6767                73.4681

                     73                     74                     75
                      A                      A                      A
 Frequencies --   3125.3126              3128.1896              3132.2479
 Red. masses --      1.1018                 1.0902                 1.1032
 Frc consts  --      6.3410                 6.2855                 6.3769
 IR Inten    --     31.0533                46.1807                27.4393

                     76                     77                     78
                      A                      A                      A
 Frequencies --   3141.9764              3239.5212              3552.3959
 Red. masses --      1.0998                 1.0685                 1.0479
 Frc consts  --      6.3967                 6.6068                 7.7910
 IR Inten    --     20.7618               340.4868                15.3392

                     79                     80                     81
                      A                      A                      A
 Frequencies --   3629.8854              3631.3887              3662.6281
 Red. masses --      1.0836                 1.0748                 1.0983
 Frc consts  --      8.4123                 8.3508                 8.6808
 IR Inten    --     38.5361                 5.1740                17.0021

 - Thermochemistry -
 -------------------
 Temperature   298.150 Kelvin.  Pressure   1.00000 Atm.
 Atom     1 has atomic number  6 and mass  12.00000

 Molecular mass:   171.14840 amu.
 Principal axes and moments of inertia in atomic units:
                           1         2         3
     Eigenvalues --  1906.050212575.577434001.16096
           X            0.99979  -0.02064   0.00022
           Y            0.02064   0.99979  -0.00058
           Z           -0.00021   0.00059   1.00000
 This molecule is an asymmetric top.
 Rotational symmetry number  1.
 Warning -- assumption of classical behavior for rotation
           may cause significant error
 Rotational temperatures (Kelvin)      0.04544     0.03363     0.02165
 Rotational constants (GHZ):           0.94685     0.70071     0.45105
 Zero-point vibrational energy     676834.8 (Joules/Mol)
                                  161.76740 (Kcal/Mol)
 Warning -- explicit consideration of  22 degrees of freedom as
           vibrations may cause significant error
 Vibrational temperatures:     71.38    75.21   109.53   121.33   168.27
          (Kelvin)            208.16   290.89   309.67   344.50   367.73
                              393.72   410.41   488.30   553.41   565.68
                              592.95   639.75   669.75   687.17   702.73
                              753.82   870.93   909.06  1023.98  1048.98
                             1070.47  1175.74  1193.07  1209.43  1268.81
                             1348.28  1354.97  1382.77  1442.50  1510.31
                             1567.35  1628.41  1659.11  1667.20  1702.35
                             1727.50  1766.66  1777.09  1895.38  1931.39
                             1988.80  2002.27  2042.19  2050.16  2064.65
                             2076.33  2127.82  2143.51  2180.59  2185.07
                             2187.04  2202.12  2210.69  2217.34  2247.65
                             2256.33  2391.67  2401.58  2487.88  4264.40
                             4368.35  4375.67  4379.96  4398.36  4455.67
                             4461.16  4471.95  4496.63  4500.77  4506.61
                             4520.60  4660.95  5111.11  5222.60  5224.76
                             5269.70

 Zero-point correction=                           0.257793 (Hartree/Particle)
 Thermal correction to Energy=                    0.272015
 Thermal correction to Enthalpy=                  0.272960
 Thermal correction to Gibbs Free Energy=         0.216974
 Sum of electronic and zero-point Energies=           -550.543357
 Sum of electronic and thermal Energies=              -550.529134
 Sum of electronic and thermal Enthalpies=            -550.528190
 Sum of electronic and thermal Free Energies=         -550.584176

                     E (Thermal)             CV                S
                      KCal/Mol        Cal/Mol-Kelvin    Cal/Mol-Kelvin
 Total                  170.692             52.947            117.831
 Electronic               0.000              0.000              0.000
 Translational            0.889              2.981             41.320
 Rotational               0.889              2.981             31.352
 Vibrational            168.915             46.986             45.160
 Vibration     1          0.595              1.978              4.833
 Vibration     2          0.596              1.977              4.729
 Vibration     3          0.599              1.965              3.988
 Vibration     4          0.601              1.960              3.788
 Vibration     5          0.608              1.935              3.150
 Vibration     6          0.616              1.908              2.741
 Vibration     7          0.639              1.837              2.113
 Vibration     8          0.645              1.818              1.999
 Vibration     9          0.657              1.780              1.807
 Vibration    10          0.666              1.753              1.692
 Vibration    11          0.676              1.722              1.573
 Vibration    12          0.683              1.701              1.502
 Vibration    13          0.719              1.597              1.215
 Vibration    14          0.754              1.503              1.021
 Vibration    15          0.760              1.485              0.988
 Vibration    16          0.776              1.444              0.919
 Vibration    17          0.804              1.373              0.812
 Vibration    18          0.823              1.327              0.750
 Vibration    19          0.834              1.300              0.717
 Vibration    20          0.844              1.276              0.688
 Vibration    21          0.879              1.197              0.601
 Vibration    22          0.964              1.021              0.441

                           ! Non-Optimized Parameters !

 1\1\GINC-NODE313\Freq\RB3LYP\6-31G(d)\C7H17N5\VSC10255\09-Dec-2020\0\\
 #N Geom=AllCheck Guess=TCheck SCRF=Check GenChk RB3LYP/6-31G(d) Freq\\
 CID_21534156_JID_2601_neutraal\\0,1\C,0.992055927,-0.2600978026,0.1888
 252594\C,1.1833455526,1.0367040995,0.9910605413\N,1.8902545415,2.05815
 66882,0.2406798556\C,3.1939976291,2.0540396172,0.2131673722\N,3.971950
 4336,1.1302464375,0.8891634946\C,5.4131157597,0.9690760257,0.697765839
 2\C,5.978322104,0.1987298742,1.8922919865\C,5.7421239903,0.2838274365,
 -0.6346799724\N,3.9568144724,2.9940534527,-0.4618571623\C,3.4055321087

 Normal termination of Gaussian 16 at Wed Dec  9 17:53:01 2020.

 ----------------------------------------------------------------------
 # B3LYP/6-311++G(d,p) empiricaldispersion=gd3bj scf=xqc pop=npa geom=c
 heck
 ----------------------------------------------------------------------

 --------------------------------------
 CID_21534156_JID_2601_Energie_neutraal
 --------------------------------------
 Structure from the checkpoint file:  "JID_2601.chk"
 Charge =  0 Multiplicity = 1

 SCF Done:  E(RB3LYP) =  -550.974657606     A.U. after   13 cycles
 Normal termination of Gaussian 16 at Wed Dec  9 17:55:33 2020.

 ----------------------------------------------------------------------
 # B3LYP/6-311++G(d,p) empiricaldispersion=gd3bj scf=xqc pop=npa geom=c
 heck
 ----------------------------------------------------------------------

 ------------------------------------
 CID_21534156_JID_2601_Energie_kation
 ------------------------------------
 Structure from the checkpoint file:  "JID_2601.chk"
 Charge =  1 Multiplicity = 2

 SCF Done:  E(UB3LYP) =  -550.699250231     A.U. after   19 cycles
 Normal termination of Gaussian 16 at Wed Dec  9 18:00:14 2020.
 Gaussian 16:  ES64L-G16RevA.03 25-Dec-2016

 -----------------------------------
 CID_21534156_JID_2601_Energie_anion
 -----------------------------------
 Structure from the checkpoint file:  "JID_2601.chk"
 Charge = -1 Multiplicity = 2

                         Standard orientation:
 ---------------------------------------------------------------------
 Center     Atomic      Atomic             Coordinates (Angstroms)
 Number     Number       Type             X           Y           Z
 ---------------------------------------------------------------------
      1          6           0        0.934508    3.096033    0.818683
      2          6           0        0.284479    2.617788   -0.489221
      3          7           0       -0.621769    1.502469   -0.286898
      4          6           0       -0.151612    0.286828   -0.245782
      5          7           0        1.187210   -0.023102   -0.410317
      6          6           0        1.766162   -1.340867   -0.149785
      7          6           0        3.125049   -1.420652   -0.847528
      8          6           0        1.874202   -1.633612    1.352165
      9          7           0       -0.937663   -0.841502   -0.072090
     10          6           0       -2.240920   -0.762636   -0.021832
     11          7           0       -2.986862    0.371665    0.035603
     12          7           0       -2.950873   -1.953769   -0.023151
     13          1           0        0.158937    3.359552    1.544974
     14          1           0        1.567813    3.975131    0.649335
     15          1           0        1.552784    2.312549    1.273134
     16          1           0       -0.298014    3.446845   -0.909114
     17          1           0        1.066182    2.393871   -1.236603
     18          1           0        1.827444    0.747524   -0.287716
     19          1           0        1.086473   -2.069253   -0.596485
     20          1           0        3.823752   -0.680777   -0.433342
     21          1           0        3.573547   -2.409563   -0.705940
     22          1           0        3.024718   -1.231813   -1.921044
     23          1           0        0.884008   -1.579369    1.812437
     24          1           0        2.288631   -2.633546    1.529516
     25          1           0        2.529752   -0.903163    1.843706
     26          1           0       -3.933373    0.331119   -0.317183
     27          1           0       -2.408990    1.210886   -0.131776
     28          1           0       -2.345187   -2.751352    0.125021
     29          1           0       -3.779986   -1.966251    0.558848
 ---------------------------------------------------------------------

 SCF Done:  E(UB3LYP) =  -550.961368700     A.U. after   30 cycles

 The electronic state is 2-A.
 Alpha  occ. eigenvalues --  -14.21659 -14.21481 -14.20987 -14.17016 -14.16419
 Alpha  occ. eigenvalues --  -10.17303 -10.15361 -10.10423 -10.09170 -10.06573
 Alpha  occ. eigenvalues --  -10.06414 -10.05506  -0.88879  -0.85054  -0.77884
 Alpha  occ. eigenvalues --   -0.76400  -0.74845  -0.66913  -0.63814  -0.59057
 Alpha  occ. eigenvalues --   -0.55026  -0.51272  -0.49740  -0.47446  -0.43891
 Alpha  occ. eigenvalues --   -0.41655  -0.39233  -0.37879  -0.35433  -0.34870
 Alpha  occ. eigenvalues --   -0.34220  -0.33635  -0.32827  -0.30979  -0.30004
 Alpha  occ. eigenvalues --   -0.29197  -0.28455  -0.27632  -0.26105  -0.25285
 Alpha  occ. eigenvalues --   -0.24316  -0.22959  -0.17073  -0.16595  -0.14665
 Alpha  occ. eigenvalues --   -0.13420  -0.11258   0.04356
 Alpha virt. eigenvalues --    0.05895   0.06921   0.08153   0.08642   0.08746
 Alpha virt. eigenvalues --    0.09883   0.09940   0.10357   0.10950   0.11476
 Alpha virt. eigenvalues --    0.12152   0.12251   0.13239   0.13872   0.14542

  Beta  occ. eigenvalues --  -14.21648 -14.21414 -14.20949 -14.17005 -14.16411
  Beta  occ. eigenvalues --  -10.17300 -10.15356 -10.10418 -10.09162 -10.06544
  Beta  occ. eigenvalues --  -10.06396 -10.05485  -0.88851  -0.85021  -0.77847
  Beta  occ. eigenvalues --   -0.76329  -0.74809  -0.66886  -0.63787  -0.59010
  Beta  occ. eigenvalues --   -0.54975  -0.51226  -0.49695  -0.47393  -0.43813
  Beta  occ. eigenvalues --   -0.41602  -0.39212  -0.37825  -0.35388  -0.34839
  Beta  occ. eigenvalues --   -0.34192  -0.33603  -0.32800  -0.30946  -0.29970
  Beta  occ. eigenvalues --   -0.29167  -0.28427  -0.27605  -0.26082  -0.25264
  Beta  occ. eigenvalues --   -0.24284  -0.22929  -0.17020  -0.16561  -0.14627
  Beta  occ. eigenvalues --   -0.13396  -0.11245
  Beta virt. eigenvalues --    0.06320   0.07358   0.07653   0.08416   0.09214
  Beta virt. eigenvalues --    0.09484   0.09902   0.10077   0.10612   0.11395
  Beta virt. eigenvalues --    0.11872   0.12246   0.12731   0.13415   0.14081

 Mulliken charges and spin densities:
               1          2
     1  C    0.171407  -0.494948
     2  C   -0.504628   0.093348
     3  N   -0.236207   0.022053
     4  C    0.265790  -0.493891
     5  N    0.050333  -0.066721
     6  C   -0.959241   0.774714
     7  C    0.405363  -0.940244
     8  C    0.432015  -0.883808
     9  N   -0.040791  -0.180709
    10  C    0.798183  -0.647624
    11  N   -0.285125  -0.133511
    12  N   -0.555460   0.293468
    13  H    0.072354   0.068277
    14  H   -0.152650   0.261404
    15  H   -0.087136   0.206276
    16  H   -0.052586   0.214831
    17  H   -0.078767   0.194813
    18  H    0.760934  -0.509151
    19  H    0.171356   0.027831
    20  H   -0.377404   0.509456
    21  H   -0.169421   0.312671
    22  H   -0.019878   0.173939
    23  H    0.049350   0.124093
    24  H   -0.124405   0.248032
    25  H    0.018403   0.115262
    26  H   -0.317550   0.572326
    27  H    0.498792  -0.111883
    28  H   -0.082285   0.336628
    29  H   -0.650742   0.913069
 Sum of Mulliken charges =  -1.00000   1.00000

 Dipole moment (field-independent basis, Debye):
    X=              4.0800    Y=              2.9960    Z=             -1.1497  Tot=              5.1908
 Quadrupole moment (field-independent basis, Debye-Ang):
   XX=           -154.3527   YY=           -121.8521   ZZ=           -102.1557
   XY=            -10.5646   XZ=              3.8006   YZ=              2.5676

 Summary of Natural Population Analysis:

                                       Natural Population
                Natural  -----------------------------------------------
    Atom  No    Charge         Core      Valence    Rydberg      Total
 -----------------------------------------------------------------------
      C    1   -0.28936      0.99966     2.28536    0.00434     3.28936
      C    2   -0.09575      0.99963     2.08551    0.01060     3.09575
      N    3   -0.33928      0.99964     2.82756    0.01208     3.83928
      C    4    0.31946      0.99959     1.66524    0.01572     2.68054
      N    5   -0.32582      0.99966     2.81593    0.01023     3.82582
      C    6   -0.01644      0.99961     2.00420    0.01263     3.01644
      C    7   -0.28702      0.99965     2.28157    0.00581     3.28702
      C    8   -0.28952      0.99964     2.28522    0.00467     3.28952
      N    9   -0.33968      0.99962     2.82954    0.01053     3.83968
      C   10    0.32824      0.99965     1.65567    0.01645     2.67176
      N   11   -0.40908      0.99968     2.90014    0.00926     3.90908
      N   12   -0.39834      0.99971     2.88892    0.00971     3.89834
      H   13    0.09904      0.00000     0.39952    0.00143     0.40096
      H   14    0.09424      0.00000     0.40434    0.00142     0.40576
      H   15    0.09385      0.00000     0.40469    0.00146     0.40615
      H   16    0.08974      0.00000     0.40870    0.00156     0.41026
      H   17    0.07901      0.00000     0.41918    0.00181     0.42099
      H   18    0.18644      0.00000     0.31031    0.00325     0.31356
      H   19    0.10664      0.00000     0.39137    0.00199     0.39336
      H   20    0.09477      0.00000     0.40406    0.00117     0.40523
      H   21    0.10087      0.00000     0.39824    0.00089     0.39913
      H   22    0.10163      0.00000     0.39738    0.00099     0.39837
      H   23    0.10939      0.00000     0.38934    0.00127     0.39061
      H   24    0.09674      0.00000     0.40223    0.00103     0.40326
      H   25    0.09306      0.00000     0.40573    0.00121     0.40694
      H   26    0.19174      0.00000     0.30507    0.00319     0.30826
      H   27    0.21848      0.00000     0.27910    0.00243     0.28152
      H   28    0.19424      0.00000     0.30279    0.00297     0.30576
      H   29    0.19273      0.00000     0.29254    0.01473     0.30727
 =======================================================================
   * Total *   -0.00000     11.99576    34.83943    0.16481    47.00000

 Normal termination of Gaussian 16 at Wed Dec  9 18:08:53 2020.
