 Gaussian 16, Revision A.03,

 -----------------------------------------------------------
 # opt freq B3LYP/6-31G(d) empiricaldispersion=gd3bj scf=xqc
 -----------------------------------------------------------

 -------------------------------
 CID_122400976_JID_9498_neutraal
 -------------------------------
 Symbolic Z-matrix:
 Charge =  0 Multiplicity = 1

 SCF Done:  E(RB3LYP) =  -1239.86777809     A.U. after   15 cycles
 SCF Done:  E(RB3LYP) =  -1239.87288002     A.U. after   13 cycles
 SCF Done:  E(RB3LYP) =  -1239.87355685     A.U. after   12 cycles
 SCF Done:  E(RB3LYP) =  -1239.87378826     A.U. after   13 cycles
 SCF Done:  E(RB3LYP) =  -1239.87449841     A.U. after   12 cycles
 SCF Done:  E(RB3LYP) =  -1239.87480677     A.U. after   12 cycles
 SCF Done:  E(RB3LYP) =  -1239.87482958     A.U. after   12 cycles
 SCF Done:  E(RB3LYP) =  -1239.87484657     A.U. after   10 cycles
 SCF Done:  E(RB3LYP) =  -1239.87484989     A.U. after    9 cycles
 SCF Done:  E(RB3LYP) =  -1239.87485200     A.U. after    9 cycles
 SCF Done:  E(RB3LYP) =  -1239.87485211     A.U. after    7 cycles
 SCF Done:  E(RB3LYP) =  -1239.87485216     A.U. after    7 cycles
 SCF Done:  E(RB3LYP) =  -1239.87485218     A.U. after    7 cycles
 SCF Done:  E(RB3LYP) =  -1239.87485220     A.U. after    7 cycles
 Optimization completed.
    -- Stationary point found.
 Normal termination of Gaussian 16 at Mon Dec 14 13:21:42 2020.

 --------------------------------------------------------------------
 #N Geom=AllCheck Guess=TCheck SCRF=Check GenChk RB3LYP/6-31G(d) Freq
 --------------------------------------------------------------------

 Structure from the checkpoint file:  "JID_9498.chk"
 -------------------------------
 CID_122400976_JID_9498_neutraal
 -------------------------------
 Charge =  0 Multiplicity = 1

 SCF Done:  E(RB3LYP) =  -1239.87485220     A.U. after    1 cycles

  Exact polarizability: 245.663  11.587 190.026   7.833 -11.308  95.122
 Approx polarizability: 347.533  23.026 307.484  16.628 -27.988 162.828

                      1                      2                      3
                      A                      A                      A
 Frequencies --     29.5003                39.5564                44.5212
 Red. masses --      6.0550                 5.3737                 4.5043
 Frc consts  --      0.0031                 0.0050                 0.0053
 IR Inten    --      1.5621                 1.1807                 1.0670

                      4                      5                      6
                      A                      A                      A
 Frequencies --     52.7901                71.6184                93.0138
 Red. masses --      5.1345                 7.2741                 4.1150
 Frc consts  --      0.0084                 0.0220                 0.0210
 IR Inten    --      0.1331                 0.4753                 0.0406

                      7                      8                      9
                      A                      A                      A
 Frequencies --    112.6273               121.8892               139.8310
 Red. masses --      3.1390                 2.2218                 1.3413
 Frc consts  --      0.0235                 0.0194                 0.0155
 IR Inten    --      0.1590                 0.1590                 0.3847

                     10                     11                     12
                      A                      A                      A
 Frequencies --    144.8487               164.9223               196.9710
 Red. masses --      1.3918                 3.6630                 4.7695
 Frc consts  --      0.0172                 0.0587                 0.1090
 IR Inten    --      0.1294                 2.7438                 5.6296

                     13                     14                     15
                      A                      A                      A
 Frequencies --    238.5683               255.2392               264.9707
 Red. masses --      6.8695                 7.2482                 7.1206
 Frc consts  --      0.2304                 0.2782                 0.2946
 IR Inten    --      4.0966                 0.4423                 0.4087

                     16                     17                     18
                      A                      A                      A
 Frequencies --    290.0944               320.2149               331.4722
 Red. masses --      5.3848                 5.2086                 4.4314
 Frc consts  --      0.2670                 0.3147                 0.2869
 IR Inten    --      3.3344                 9.4308                15.9282

                     19                     20                     21
                      A                      A                      A
 Frequencies --    364.8908               435.1662               457.3097
 Red. masses --      5.3968                 4.3506                 4.9773
 Frc consts  --      0.4234                 0.4854                 0.6133
 IR Inten    --     16.8991                 0.6399                 0.4913

                     22                     23                     24
                      A                      A                      A
 Frequencies --    493.0236               510.8272               563.4000
 Red. masses --      6.4102                 6.2712                 4.7489
 Frc consts  --      0.9180                 0.9642                 0.8881
 IR Inten    --      3.1958                 2.9214                 4.3746

                     25                     26                     27
                      A                      A                      A
 Frequencies --    567.1571               629.2221               657.8764
 Red. masses --      5.9049                 8.8025                 2.7703
 Frc consts  --      1.1191                 2.0533                 0.7064
 IR Inten    --      5.0345                 2.5353                12.7584

                     28                     29                     30
                      A                      A                      A
 Frequencies --    680.4971               685.4537               718.3469
 Red. masses --      4.7969                 1.4431                 5.2900
 Frc consts  --      1.3088                 0.3995                 1.6083
 IR Inten    --      6.5092                 1.4371                 1.9806

                     31                     32                     33
                      A                      A                      A
 Frequencies --    739.5144               756.6849               792.9769
 Red. masses --      5.4726                 3.4927                 2.5304
 Frc consts  --      1.7633                 1.1783                 0.9375
 IR Inten    --      6.2387                58.3627                19.8145

                     34                     35                     36
                      A                      A                      A
 Frequencies --    804.1672               817.0402               829.6316
 Red. masses --      2.4589                 5.5920                 4.7964
 Frc consts  --      0.9369                 2.1994                 1.9451
 IR Inten    --     20.5894                15.6106                12.7574

                     37                     38                     39
                      A                      A                      A
 Frequencies --    860.8379               869.0270               880.6014
 Red. masses --      4.6711                 1.7103                 4.3547
 Frc consts  --      2.0394                 0.7610                 1.9896
 IR Inten    --     37.1882                 5.7151                 9.4713

                     40                     41                     42
                      A                      A                      A
 Frequencies --    892.0739               935.9536               957.1142
 Red. masses --      1.3149                 4.6521                 1.4363
 Frc consts  --      0.6165                 2.4011                 0.7752
 IR Inten    --      0.6973                 0.2417                 5.6979

                     43                     44                     45
                      A                      A                      A
 Frequencies --    979.3697              1001.5586              1025.7938
 Red. masses --      1.3318                 6.7518                 5.3724
 Frc consts  --      0.7526                 3.9905                 3.3307
 IR Inten    --      0.6651                 4.7385                12.8395

                     46                     47                     48
                      A                      A                      A
 Frequencies --   1073.0942              1120.1267              1131.3969
 Red. masses --      2.6946                 1.2169                 2.8036
 Frc consts  --      1.8282                 0.8996                 2.1144
 IR Inten    --     44.6228                31.2366                56.9080

                     49                     50                     51
                      A                      A                      A
 Frequencies --   1153.2269              1179.9895              1186.4833
 Red. masses --      2.4737                 1.5152                 1.2733
 Frc consts  --      1.9383                 1.2430                 1.0561
 IR Inten    --    162.2390                 8.8245                 0.8787

                     52                     53                     54
                      A                      A                      A
 Frequencies --   1186.6498              1221.4146              1223.8108
 Red. masses --      1.2860                 1.5231                 1.5425
 Frc consts  --      1.0670                 1.3388                 1.3611
 IR Inten    --      1.8382                20.9846                43.1862

                     55                     56                     57
                      A                      A                      A
 Frequencies --   1235.3301              1271.7533              1290.1142
 Red. masses --      1.4795                 2.3845                 2.2683
 Frc consts  --      1.3302                 2.2723                 2.2243
 IR Inten    --     30.2634               449.3455               163.6615

                     58                     59                     60
                      A                      A                      A
 Frequencies --   1298.6259              1326.5598              1359.2148
 Red. masses --      2.8040                 2.9383                 5.9013
 Frc consts  --      2.7861                 3.0464                 6.4236
 IR Inten    --    189.1385               338.1444                 5.5967

                     61                     62                     63
                      A                      A                      A
 Frequencies --   1414.6191              1431.5363              1483.0787
 Red. masses --      3.7549                 3.5191                 4.3423
 Frc consts  --      4.4272                 4.2490                 5.6273
 IR Inten    --      6.0400                27.4483                26.2651

                     64                     65                     66
                      A                      A                      A
 Frequencies --   1491.1530              1494.2329              1511.8764
 Red. masses --      1.2100                 1.3192                 1.0480
 Frc consts  --      1.5851                 1.7354                 1.4114
 IR Inten    --     13.3190                32.0065                 5.8812

                     67                     68                     69
                      A                      A                      A
 Frequencies --   1511.9977              1524.6352              1524.9871
 Red. masses --      1.0478                 1.0506                 1.0506
 Frc consts  --      1.4113                 1.4389                 1.4395
 IR Inten    --      6.5317                 6.3534                13.0356

                     70                     71                     72
                      A                      A                      A
 Frequencies --   1540.0400              1596.9452              1618.9741
 Red. masses --      2.9030                 6.1761                 7.6091
 Frc consts  --      4.0565                 9.2799                11.7507
 IR Inten    --     15.5571                 9.0355                20.4344

                     73                     74                     75
                      A                      A                      A
 Frequencies --   1663.3994              1805.0177              1816.5396
 Red. masses --      6.0395                11.7011                11.9208
 Frc consts  --      9.8457                22.4616                23.1765
 IR Inten    --      2.7146               187.5642               213.0189

                     76                     77                     78
                      A                      A                      A
 Frequencies --   3076.0652              3076.8089              3150.3598
 Red. masses --      1.0295                 1.0295                 1.1074
 Frc consts  --      5.7396                 5.7420                 6.4754
 IR Inten    --     43.1737                34.2996                18.2115

                     79                     80                     81
                      A                      A                      A
 Frequencies --   3151.6210              3184.0520              3184.3484
 Red. masses --      1.1075                 1.1072                 1.1072
 Frc consts  --      6.4814                 6.6135                 6.6150
 IR Inten    --     20.1074                16.5596                19.1754

                     82                     83                     84
                      A                      A                      A
 Frequencies --   3225.0315              3225.6807              3228.5379
 Red. masses --      1.0906                 1.0888                 1.0904
 Frc consts  --      6.6835                 6.6749                 6.6965
 IR Inten    --      2.1458                 3.0552                 0.8500

                     85                     86                     87
                      A                      A                      A
 Frequencies --   3243.0904              3272.0143              3275.7281
 Red. masses --      1.0941                 1.0934                 1.0975
 Frc consts  --      6.7796                 6.8968                 6.9383
 IR Inten    --      2.8994                 0.7862                 0.7122

 - Thermochemistry -
 -------------------
 Temperature   298.150 Kelvin.  Pressure   1.00000 Atm.
 Atom     1 has atomic number  6 and mass  12.00000

 Molecular mass:   276.04563 amu.
 Principal axes and moments of inertia in atomic units:
                           1         2         3
     Eigenvalues --  3854.500538519.57893**********
           X            0.99983  -0.01853  -0.00075
           Y            0.01852   0.99978  -0.00955
           Z            0.00092   0.00954   0.99995
 This molecule is an asymmetric top.
 Rotational symmetry number  1.
 Warning -- assumption of classical behavior for rotation
           may cause significant error
 Rotational temperatures (Kelvin)      0.02247     0.01017     0.00727
 Rotational constants (GHZ):           0.46822     0.21183     0.15144
 Zero-point vibrational energy     614870.5 (Joules/Mol)
                                  146.95759 (Kcal/Mol)
 Warning -- explicit consideration of  25 degrees of freedom as
           vibrations may cause significant error
 Vibrational temperatures:     42.44    56.91    64.06    75.95   103.04
          (Kelvin)            133.83   162.05   175.37   201.19   208.40
                              237.29   283.40   343.25   367.23   381.23
                              417.38   460.72   476.91   525.00   626.11
                              657.97   709.35   734.97   810.61   816.01
                              905.31   946.54   979.08   986.21  1033.54
                             1064.00  1088.70  1140.92  1157.02  1175.54
                             1193.65  1238.55  1250.34  1266.99  1283.50
                             1346.63  1377.07  1409.09  1441.02  1475.89
                             1543.94  1611.61  1627.83  1659.24  1697.74
                             1707.08  1707.32  1757.34  1760.79  1777.36
                             1829.77  1856.19  1868.43  1908.62  1955.61
                             2035.32  2059.66  2133.82  2145.44  2149.87
                             2175.25  2175.43  2193.61  2194.12  2215.77
                             2297.65  2329.34  2393.26  2597.02  2613.60
                             4425.77  4426.84  4532.67  4534.48  4581.14
                             4581.57  4640.10  4641.04  4645.15  4666.08
                             4707.70  4713.04

 Zero-point correction=                           0.234192 (Hartree/Particle)
 Thermal correction to Energy=                    0.252076
 Thermal correction to Enthalpy=                  0.253020
 Thermal correction to Gibbs Free Energy=         0.185894
 Sum of electronic and zero-point Energies=          -1239.640660
 Sum of electronic and thermal Energies=             -1239.622777
 Sum of electronic and thermal Enthalpies=           -1239.621832
 Sum of electronic and thermal Free Energies=        -1239.688959

                     E (Thermal)             CV                S
                      KCal/Mol        Cal/Mol-Kelvin    Cal/Mol-Kelvin
 Total                  158.180             64.940            141.279
 Electronic               0.000              0.000              0.000
 Translational            0.889              2.981             42.745
 Rotational               0.889              2.981             34.325
 Vibrational            156.402             58.979             64.210
 Vibration     1          0.593              1.984              5.863
 Vibration     2          0.594              1.981              5.281
 Vibration     3          0.595              1.980              5.047
 Vibration     4          0.596              1.976              4.710
 Vibration     5          0.598              1.968              4.108
 Vibration     6          0.602              1.954              3.596
 Vibration     7          0.607              1.939              3.223
 Vibration     8          0.609              1.931              3.070
 Vibration     9          0.615              1.913              2.806
 Vibration    10          0.616              1.908              2.739
 Vibration    11          0.623              1.886              2.493
 Vibration    12          0.636              1.844              2.161
 Vibration    13          0.657              1.782              1.814
 Vibration    14          0.666              1.754              1.694
 Vibration    15          0.671              1.737              1.629
 Vibration    16          0.686              1.692              1.473
 Vibration    17          0.706              1.635              1.309
 Vibration    18          0.714              1.613              1.253
 Vibration    19          0.738              1.545              1.101
 Vibration    20          0.796              1.394              0.842
 Vibration    21          0.815              1.345              0.774
 Vibration    22          0.849              1.265              0.676
 Vibration    23          0.866              1.226              0.632
 Vibration    24          0.919              1.110              0.517
 Vibration    25          0.923              1.102              0.510

 Optimization completed.
    -- Stationary point found.
 Normal termination of Gaussian 16 at Mon Dec 14 13:35:29 2020.

 ----------------------------------------------------------------------
 # B3LYP/6-311++G(d,p) empiricaldispersion=gd3bj scf=xqc pop=npa geom=c
 heck
 ----------------------------------------------------------------------

 ---------------------------------------
 CID_122400976_JID_9498_Energie_neutraal
 ---------------------------------------
 Structure from the checkpoint file:  "JID_9498.chk"
 Charge =  0 Multiplicity = 1

 SCF Done:  E(RB3LYP) =  -1240.13402415     A.U. after   17 cycles
 Normal termination of Gaussian 16 at Mon Dec 14 13:42:09 2020.

 ----------------------------------------------------------------------
 # B3LYP/6-311++G(d,p) empiricaldispersion=gd3bj scf=xqc pop=npa geom=c
 heck
 ----------------------------------------------------------------------

 -------------------------------------
 CID_122400976_JID_9498_Energie_kation
 -------------------------------------
 Structure from the checkpoint file:  "JID_9498.chk"
 Charge =  1 Multiplicity = 2

 SCF Done:  E(UB3LYP) =  -1239.83789508     A.U. after   28 cycles
 Normal termination of Gaussian 16 at Mon Dec 14 13:57:26 2020.
 Gaussian 16:  ES64L-G16RevA.03 25-Dec-2016

 ----------------------------------------------------------------------
 # B3LYP/6-311++G(d,p) empiricaldispersion=gd3bj scf=xqc pop=npa geom=c
 heck
 ----------------------------------------------------------------------

 ------------------------------------
 CID_122400976_JID_9498_Energie_anion
 ------------------------------------
 Structure from the checkpoint file:  "JID_9498.chk"
 Charge = -1 Multiplicity = 2

                         Standard orientation:
 ---------------------------------------------------------------------
 Center     Atomic      Atomic             Coordinates (Angstroms)
 Number     Number       Type             X           Y           Z
 ---------------------------------------------------------------------
      1          6           0        5.891009   -0.254354   -0.142072
      2          8           0        4.575478    0.318299   -0.102925
      3          6           0        3.563729   -0.575937   -0.048227
      4          8           0        3.737845   -1.778227   -0.032603
      5          6           0        2.228337    0.083836   -0.008021
      6          6           0        1.099901   -0.737721    0.031423
      7          6           0       -0.193977   -0.206743    0.076654
      8          6           0       -0.334511    1.199209    0.097788
      9          6           0        0.799638    2.019551    0.023024
     10          6           0        2.076902    1.474686   -0.024245
     11          6           0       -1.662854    1.851800    0.319035
     12          8           0       -2.536492    1.441538    1.050867
     13          8           0       -1.760476    3.013128   -0.373621
     14          6           0       -2.973183    3.748649   -0.147776
     15          6           0       -1.337322   -1.142105    0.042534
     16          6           0       -2.415660   -1.026729   -0.799014
     17         16           0       -3.530496   -2.335447   -0.616818
     18          6           0       -2.536400   -3.069062    0.603446
     19          6           0       -1.411799   -2.333367    0.841605
     20          1           0        6.576599    0.592082   -0.183681
     21          1           0        6.005609   -0.888706   -1.024797
     22          1           0        6.072891   -0.855754    0.752357
     23          1           0        1.242887   -1.812212    0.001728
     24          1           0        0.667201    3.095336    0.025783
     25          1           0        2.949893    2.114603   -0.066907
     26          1           0       -3.841958    3.149476   -0.432170
     27          1           0       -3.064612    4.023653    0.906301
     28          1           0       -2.895938    4.637779   -0.773664
     29          1           0       -2.609589   -0.244661   -1.519547
     30          1           0       -2.846340   -3.991066    1.075331
     31          1           0       -0.662392   -2.601549    1.577685
 ---------------------------------------------------------------------

 SCF Done:  E(UB3LYP) =  -1240.15946762     A.U. after   25 cycles

 The electronic state is 2-A.
 Alpha  occ. eigenvalues --  -88.76467 -19.03826 -19.03459 -18.96470 -18.95695
 Alpha  occ. eigenvalues --  -10.15028 -10.14268 -10.11811 -10.11695 -10.08863
 Alpha  occ. eigenvalues --  -10.07584 -10.06445 -10.06400 -10.04573 -10.03351
 Alpha  occ. eigenvalues --  -10.03170 -10.03166 -10.02799 -10.02683  -7.85099
 Alpha  occ. eigenvalues --   -5.81381  -5.81020  -5.80713  -0.97570  -0.97196
 Alpha  occ. eigenvalues --   -0.88311  -0.87697  -0.76954  -0.72257  -0.65374
 Alpha  occ. eigenvalues --   -0.64185  -0.61768  -0.61613  -0.59629  -0.58295
 Alpha  occ. eigenvalues --   -0.51100  -0.47894  -0.45851  -0.45175  -0.43857
 Alpha  occ. eigenvalues --   -0.42836  -0.41110  -0.38531  -0.36752  -0.36545
 Alpha  occ. eigenvalues --   -0.36476  -0.35035  -0.33943  -0.32228  -0.31190
 Alpha  occ. eigenvalues --   -0.30885  -0.29675  -0.29269  -0.28554  -0.27918
 Alpha  occ. eigenvalues --   -0.27563  -0.27202  -0.26454  -0.25184  -0.24426
 Alpha  occ. eigenvalues --   -0.23632  -0.22509  -0.22109  -0.20661  -0.18478
 Alpha  occ. eigenvalues --   -0.18245  -0.15603  -0.14235  -0.13830  -0.13170
 Alpha  occ. eigenvalues --   -0.12184  -0.10198   0.03041
 Alpha virt. eigenvalues --    0.07544   0.07698   0.08278   0.08837   0.09945
 Alpha virt. eigenvalues --    0.10268   0.10907   0.11001   0.11585   0.11737
 Alpha virt. eigenvalues --    0.12028   0.12449   0.12802   0.13271   0.13566

  Beta  occ. eigenvalues --  -88.76462 -19.03762 -19.03393 -18.96263 -18.95417
  Beta  occ. eigenvalues --  -10.14897 -10.14100 -10.11809 -10.11699 -10.08868
  Beta  occ. eigenvalues --  -10.07518 -10.06446 -10.06405 -10.04491 -10.03345
  Beta  occ. eigenvalues --  -10.03157 -10.02841 -10.02668 -10.02430  -7.85094
  Beta  occ. eigenvalues --   -5.81379  -5.81018  -5.80695  -0.97362  -0.96962
  Beta  occ. eigenvalues --   -0.87986  -0.87275  -0.76906  -0.71867  -0.65005
  Beta  occ. eigenvalues --   -0.63877  -0.61691  -0.61511  -0.59438  -0.58034
  Beta  occ. eigenvalues --   -0.50446  -0.47790  -0.45766  -0.44946  -0.43714
  Beta  occ. eigenvalues --   -0.42731  -0.41014  -0.38308  -0.36504  -0.36429
  Beta  occ. eigenvalues --   -0.36171  -0.34810  -0.33683  -0.32056  -0.30955
  Beta  occ. eigenvalues --   -0.30707  -0.29583  -0.29137  -0.28365  -0.27499
  Beta  occ. eigenvalues --   -0.27018  -0.26483  -0.26354  -0.25053  -0.24336
  Beta  occ. eigenvalues --   -0.23482  -0.22273  -0.21320  -0.20526  -0.17808
  Beta  occ. eigenvalues --   -0.17313  -0.15172  -0.13979  -0.13564  -0.12799
  Beta  occ. eigenvalues --   -0.10690  -0.09278
  Beta virt. eigenvalues --    0.07493   0.07687   0.08262   0.08478   0.09317
  Beta virt. eigenvalues --    0.09940   0.10249   0.10926   0.10990   0.11584
  Beta virt. eigenvalues --    0.11809   0.12099   0.12460   0.12886   0.13358

 Mulliken charges and spin densities:
               1          2
     1  C   -0.212368  -0.002591
     2  O   -0.120381   0.013549
     3  C    0.200673   0.063603
     4  O   -0.359421   0.096289
     5  C    0.585270   0.167718
     6  C   -0.678052   0.023341
     7  C    0.011293   0.076579
     8  C    0.384984   0.214602
     9  C   -0.452521   0.014732
    10  C   -0.711018   0.137919
    11  C   -0.612802   0.067087
    12  O   -0.224754   0.070584
    13  O   -0.032632   0.012249
    14  C   -0.233574  -0.006908
    15  C    0.110583  -0.026228
    16  C    0.263023   0.063953
    17  S   -0.490908   0.007484
    18  C   -0.180735   0.002077
    19  C   -0.214314  -0.009418
    20  H    0.120716  -0.000368
    21  H    0.159657   0.001673
    22  H    0.159076   0.001908
    23  H    0.154459  -0.000175
    24  H    0.133354   0.001009
    25  H    0.138457  -0.007127
    26  H    0.150575   0.000194
    27  H    0.158028   0.006340
    28  H    0.123486   0.003963
    29  H    0.284804  -0.001752
    30  H    0.222460   0.000325
    31  H    0.162584   0.007392
 Sum of Mulliken charges =  -1.00000   1.00000

 Dipole moment (field-independent basis, Debye):
    X=             -1.4554    Y=              1.4075    Z=             -0.8500  Tot=              2.1959
 Quadrupole moment (field-independent basis, Debye-Ang):
   XX=           -154.0674   YY=           -133.7100   ZZ=           -126.4111
   XY=              4.5483   XZ=              5.0272   YZ=             -4.7105

 Summary of Natural Population Analysis:

                                       Natural Population
                Natural  -----------------------------------------------
    Atom  No    Charge         Core      Valence    Rydberg      Total
 -----------------------------------------------------------------------
      C    1   -0.10521      0.99961     2.09691    0.00868     3.10521
      O    2   -0.28050      0.99986     3.27197    0.00867     4.28050
      C    3    0.41970      0.99964     1.55694    0.02371     2.58030
      O    4   -0.29934      0.99987     3.29321    0.00626     4.29934
      C    5   -0.03385      0.99946     2.02427    0.01012     3.03385
      C    6   -0.06731      0.99943     2.05939    0.00849     3.06731
      C    7   -0.01358      0.99948     2.00404    0.01006     3.01358
      C    8   -0.00264      0.99942     1.99381    0.00941     3.00264
      C    9   -0.09120      0.99955     2.08328    0.00836     3.09120
      C   10   -0.06611      0.99954     2.05825    0.00832     3.06611
      C   11    0.41650      0.99965     1.55945    0.02441     2.58350
      O   12   -0.29422      0.99987     3.28734    0.00701     4.29422
      O   13   -0.28093      0.99986     3.27217    0.00889     4.28093
      C   14   -0.10649      0.99961     2.09816    0.00872     3.10649
      C   15   -0.03586      0.99939     2.02484    0.01164     3.03586
      C   16   -0.16432      0.99942     2.15473    0.01017     3.16432
      S   17    0.18213      4.99947     2.79268    0.02572     7.81787
      C   18   -0.20995      0.99957     2.19849    0.01189     3.20995
      C   19   -0.10695      0.99941     2.09851    0.00903     3.10695
      H   20    0.08241      0.00000     0.41672    0.00087     0.41759
      H   21    0.08727      0.00000     0.41145    0.00128     0.41273
      H   22    0.08721      0.00000     0.41150    0.00128     0.41279
      H   23    0.10705      0.00000     0.39207    0.00088     0.39295
      H   24    0.09791      0.00000     0.40100    0.00109     0.40209
      H   25    0.09936      0.00000     0.39963    0.00101     0.40064
      H   26    0.08767      0.00000     0.41100    0.00133     0.41233
      H   27    0.08715      0.00000     0.41159    0.00126     0.41285
      H   28    0.08331      0.00000     0.41584    0.00085     0.41669
      H   29    0.10918      0.00000     0.38970    0.00112     0.39082
      H   30    0.10377      0.00000     0.39520    0.00103     0.39623
      H   31    0.10793      0.00000     0.39074    0.00134     0.39207
 =======================================================================
   * Total *    0.00008     22.99213    48.77489    0.23291    71.99992

 Normal termination of Gaussian 16 at Mon Dec 14 14:10:28 2020.
