 Gaussian 16, Revision A.03,

 -----------------------------------------------------------
 # opt freq B3LYP/6-31G(d) empiricaldispersion=gd3bj scf=xqc
 -----------------------------------------------------------

 -------------------------------
 CID_149777476_JID_3782_neutraal
 -------------------------------
 Symbolic Z-matrix:
 Charge =  0 Multiplicity = 1

 SCF Done:  E(RB3LYP) =  -605.987938865     A.U. after   16 cycles
 SCF Done:  E(RB3LYP) =  -605.994032396     A.U. after   15 cycles
 SCF Done:  E(RB3LYP) =  -605.996995179     A.U. after   14 cycles
 SCF Done:  E(RB3LYP) =  -606.000031611     A.U. after   15 cycles
 SCF Done:  E(RB3LYP) =  -606.001405736     A.U. after   14 cycles
 SCF Done:  E(RB3LYP) =  -606.002262318     A.U. after   13 cycles
 SCF Done:  E(RB3LYP) =  -606.002906849     A.U. after   15 cycles
 SCF Done:  E(RB3LYP) =  -606.003979699     A.U. after   16 cycles
 SCF Done:  E(RB3LYP) =  -606.005119182     A.U. after   14 cycles
 SCF Done:  E(RB3LYP) =  -606.007031693     A.U. after   15 cycles
 SCF Done:  E(RB3LYP) =  -606.008598977     A.U. after   10 cycles
 SCF Done:  E(RB3LYP) =  -606.008601506     A.U. after   10 cycles
 SCF Done:  E(RB3LYP) =  -606.008604154     A.U. after   11 cycles
 SCF Done:  E(RB3LYP) =  -606.008604836     A.U. after    9 cycles
 SCF Done:  E(RB3LYP) =  -606.008605090     A.U. after    8 cycles
 SCF Done:  E(RB3LYP) =  -606.008605124     A.U. after    7 cycles
 Optimization completed.
    -- Stationary point found.

 1\1\GINC-NODE308\FOpt\RB3LYP\6-31G(d)\C7H18N6\VSC10255\13-Dec-2020\0\\
 # opt freq B3LYP/6-31G(d) empiricaldispersion=gd3bj scf=xqc\\CID_14977
 7476_JID_3782_neutraal\\0,1\C,0.7206474957,0.3688109634,0.6871170708\C
 ,1.8606716108,1.0835924074,1.4160189743\N,2.1384439582,2.4725725765,1.
 0043193743\C,0.9904682862,3.3895368056,1.1019485967\C,0.5926008905,3.6
 323646068,2.5688500621\N,1.771597841,4.0668399685,3.3049567044\C,1.707
 7611814,3.8689859176,4.7452172334\N,-0.5291287311,4.5687430363,2.59585
 64766\C,-1.5105815434,4.3560957878,3.6467396691\C,-0.1652505989,5.9726

 Normal termination of Gaussian 16 at Sun Dec 13 12:30:50 2020.

 --------------------------------------------------------------------
 #N Geom=AllCheck Guess=TCheck SCRF=Check GenChk RB3LYP/6-31G(d) Freq
 --------------------------------------------------------------------

 Structure from the checkpoint file:  "JID_3782.chk"
 -------------------------------
 CID_149777476_JID_3782_neutraal
 -------------------------------
 Charge =  0 Multiplicity = 1

 SCF Done:  E(RB3LYP) =  -606.008605124     A.U. after    1 cycles

  Exact polarizability: 136.381  16.084 121.476   3.823   2.159  99.092
 Approx polarizability: 176.841  40.507 196.877   9.980  14.240 143.367

                      1                      2                      3
                      A                      A                      A
 Frequencies --     18.9568                31.6778                57.2410
 Red. masses --      7.6185                 3.9062                 2.9399
 Frc consts  --      0.0016                 0.0023                 0.0057
 IR Inten    --      0.0669                 0.1487                 0.9149

                      4                      5                      6
                      A                      A                      A
 Frequencies --     66.6655                91.9352               117.5697
 Red. masses --      2.6923                 3.3329                 2.3392
 Frc consts  --      0.0070                 0.0166                 0.0191
 IR Inten    --      0.2613                 0.5263                 0.1181

                      7                      8                      9
                      A                      A                      A
 Frequencies --    142.4076               184.8169               202.5325
 Red. masses --      1.9302                 2.3359                 1.2230
 Frc consts  --      0.0231                 0.0470                 0.0296
 IR Inten    --      0.4281                 0.1914                 0.3612

                     10                     11                     12
                      A                      A                      A
 Frequencies --    208.0758               222.7901               238.4327
 Red. masses --      1.3571                 1.4608                 1.3425
 Frc consts  --      0.0346                 0.0427                 0.0450
 IR Inten    --      0.1941                 0.6166                 0.6947

                     13                     14                     15
                      A                      A                      A
 Frequencies --    243.3940               280.8173               297.6135
 Red. masses --      2.6433                 2.2440                 3.0898
 Frc consts  --      0.0923                 0.1043                 0.1612
 IR Inten    --      1.7968                 7.5689                 2.1511

                     16                     17                     18
                      A                      A                      A
 Frequencies --    319.9914               342.0138               374.1314
 Red. masses --      2.2960                 3.8169                 2.6769
 Frc consts  --      0.1385                 0.2631                 0.2208
 IR Inten    --      4.5947                 1.0406                 1.9821

                     19                     20                     21
                      A                      A                      A
 Frequencies --    419.9204               456.6562               536.4733
 Red. masses --      2.4772                 3.3426                 3.2283
 Frc consts  --      0.2574                 0.4107                 0.5474
 IR Inten    --      0.8645                 2.4467                 8.1727

                     22                     23                     24
                      A                      A                      A
 Frequencies --    566.7510               580.1031               603.5734
 Red. masses --     11.7007                 3.0727                 2.9391
 Frc consts  --      2.2144                 0.6092                 0.6309
 IR Inten    --      5.9326                12.7673                 9.8437

                     25                     26                     27
                      A                      A                      A
 Frequencies --    662.0096               784.4230               799.5807
 Red. masses --      4.8446                 1.4422                 1.3640
 Frc consts  --      1.2510                 0.5228                 0.5138
 IR Inten    --     11.0619                62.6294                10.4459

                     28                     29                     30
                      A                      A                      A
 Frequencies --    817.7631               860.7830               904.1593
 Red. masses --      3.0889                 3.3420                 2.7392
 Frc consts  --      1.2171                 1.4590                 1.3194
 IR Inten    --      2.5077                 3.0618                 0.0644

                     31                     32                     33
                      A                      A                      A
 Frequencies --    931.0986              1001.2578              1060.6709
 Red. masses --      2.1384                 2.8614                 2.1837
 Frc consts  --      1.0923                 1.6901                 1.4475
 IR Inten    --      9.5741                 8.9490                51.1385

                     34                     35                     36
                      A                      A                      A
 Frequencies --   1064.9409              1076.8242              1087.3527
 Red. masses --      2.1698                 2.0457                 1.5778
 Frc consts  --      1.4498                 1.3976                 1.0991
 IR Inten    --     24.6067                10.7125                10.8920

                     37                     38                     39
                      A                      A                      A
 Frequencies --   1105.9356              1131.6304              1136.0822
 Red. masses --      2.1237                 1.8353                 1.4664
 Frc consts  --      1.5304                 1.3848                 1.1151
 IR Inten    --      4.0692                13.0851                13.8576

                     40                     41                     42
                      A                      A                      A
 Frequencies --   1150.7470              1175.1398              1191.4063
 Red. masses --      1.7303                 2.5057                 1.4546
 Frc consts  --      1.3500                 2.0387                 1.2165
 IR Inten    --      4.8480                44.4593                 5.0833

                     43                     44                     45
                      A                      A                      A
 Frequencies --   1208.8508              1226.8814              1240.9970
 Red. masses --      2.2401                 1.8156                 6.9396
 Frc consts  --      1.9287                 1.6102                 6.2969
 IR Inten    --     25.5748                 6.6169               102.9100

                     46                     47                     48
                      A                      A                      A
 Frequencies --   1250.1654              1299.6185              1329.7805
 Red. masses --      3.0742                 1.3482                 2.3616
 Frc consts  --      2.8308                 1.3417                 2.4605
 IR Inten    --     17.2219                 3.2803                32.4578

                     49                     50                     51
                      A                      A                      A
 Frequencies --   1354.4063              1362.0217              1393.9621
 Red. masses --      1.2134                 1.2975                 1.2985
 Frc consts  --      1.3115                 1.4181                 1.4866
 IR Inten    --      9.6382                10.2875                 6.4009

                     52                     53                     54
                      A                      A                      A
 Frequencies --   1408.6491              1435.5445              1440.0239
 Red. masses --      1.3177                 1.2634                 1.2796
 Frc consts  --      1.5406                 1.5340                 1.5634
 IR Inten    --     10.5820                22.4228                16.1678

                     55                     56                     57
                      A                      A                      A
 Frequencies --   1472.7686              1487.8431              1496.6181
 Red. masses --      1.1460                 1.1878                 1.1795
 Frc consts  --      1.4646                 1.5492                 1.5566
 IR Inten    --      1.7378                 0.2718                30.1467

                     58                     59                     60
                      A                      A                      A
 Frequencies --   1506.0697              1510.2331              1513.1968
 Red. masses --      1.0481                 1.0805                 1.0688
 Frc consts  --      1.4007                 1.4520                 1.4419
 IR Inten    --      4.8849                 2.8776                21.3736

                     61                     62                     63
                      A                      A                      A
 Frequencies --   1518.7865              1523.5577              1530.6342
 Red. masses --      1.0605                 1.0578                 1.1511
 Frc consts  --      1.4413                 1.4467                 1.5890
 IR Inten    --      9.6095                 3.4096                17.1784

                     64                     65                     66
                      A                      A                      A
 Frequencies --   1533.0825              1534.4768              1541.0740
 Red. masses --      1.0593                 1.0968                 1.0668
 Frc consts  --      1.4668                 1.5215                 1.4927
 IR Inten    --      6.1902                17.4625                 2.3128

                     67                     68                     69
                      A                      A                      A
 Frequencies --   1546.6477              1555.0655              2228.1212
 Red. masses --      1.0539                 1.0740                13.9480
 Frc consts  --      1.4853                 1.5303                40.7982
 IR Inten    --      8.0835                19.3804               520.8164

                     70                     71                     72
                      A                      A                      A
 Frequencies --   2938.8437              2944.9989              2956.3588
 Red. masses --      1.0793                 1.0622                 1.0615
 Frc consts  --      5.4919                 5.4280                 5.4660
 IR Inten    --     42.9957                84.6188               108.6892

                     73                     74                     75
                      A                      A                      A
 Frequencies --   2991.9956              3058.0966              3065.7733
 Red. masses --      1.0559                 1.0460                 1.0722
 Frc consts  --      5.5691                 5.7637                 5.9377
 IR Inten    --     76.6266                 6.9283                22.3488

                     76                     77                     78
                      A                      A                      A
 Frequencies --   3066.1053              3069.2562              3077.7962
 Red. masses --      1.0571                 1.0609                 1.0830
 Frc consts  --      5.8551                 5.8882                 6.0446
 IR Inten    --     67.3382                11.4956                57.2570

                     79                     80                     81
                      A                      A                      A
 Frequencies --   3085.2646              3105.8414              3118.5253
 Red. masses --      1.0702                 1.1039                 1.1005
 Frc consts  --      6.0023                 6.2737                 6.3057
 IR Inten    --     47.9824                 9.2544                28.0526

                     82                     83                     84
                      A                      A                      A
 Frequencies --   3125.6085              3126.7911              3129.1011
 Red. masses --      1.0998                 1.1037                 1.1012
 Frc consts  --      6.3304                 6.3578                 6.3526
 IR Inten    --     57.1893                27.1078                 7.9300

                     85                     86                     87
                      A                      A                      A
 Frequencies --   3142.8523              3145.1171              3502.4350
 Red. masses --      1.1032                 1.0972                 1.0742
 Frc consts  --      6.4204                 6.3945                 7.7639
 IR Inten    --     19.4707                41.5196                15.6259

 - Thermochemistry -
 -------------------
 Temperature   298.150 Kelvin.  Pressure   1.00000 Atm.
 Atom     1 has atomic number  6 and mass  12.00000

 Molecular mass:   186.15929 amu.
 Principal axes and moments of inertia in atomic units:
                           1         2         3
     Eigenvalues --  1648.815724113.667744519.80070
           X            0.99942  -0.03396   0.00154
           Y            0.03398   0.99936  -0.01075
           Z           -0.00117   0.01080   0.99994
 This molecule is an asymmetric top.
 Rotational symmetry number  1.
 Warning -- assumption of classical behavior for rotation
           may cause significant error
 Rotational temperatures (Kelvin)      0.05253     0.02106     0.01916
 Rotational constants (GHZ):           1.09457     0.43872     0.39930
 Zero-point vibrational energy     715643.1 (Joules/Mol)
                                  171.04281 (Kcal/Mol)
 Warning -- explicit consideration of  24 degrees of freedom as
           vibrations may cause significant error
 Vibrational temperatures:     27.27    45.58    82.36    95.92   132.27
          (Kelvin)            169.16   204.89   265.91   291.40   299.37
                              320.55   343.05   350.19   404.03   428.20
                              460.40   492.08   538.29   604.17   657.03
                              771.87   815.43   834.64   868.41   952.48
                             1128.61  1150.42  1176.58  1238.47  1300.88
                             1339.64  1440.59  1526.07  1532.21  1549.31
                             1564.46  1591.19  1628.16  1634.57  1655.67
                             1690.76  1714.17  1739.27  1765.21  1785.52
                             1798.71  1869.86  1913.26  1948.69  1959.65
                             2005.60  2026.73  2065.43  2071.87  2118.99
                             2140.67  2153.30  2166.90  2172.89  2177.15
                             2185.20  2192.06  2202.24  2205.76  2207.77
                             2217.26  2225.28  2237.39  3205.77  4228.34
                             4237.20  4253.54  4304.81  4399.92  4410.96
                             4411.44  4415.98  4428.26  4439.01  4468.61
                             4486.86  4497.05  4498.76  4502.08  4521.86
                             4525.12  5039.22

 Zero-point correction=                           0.272574 (Hartree/Particle)
 Thermal correction to Energy=                    0.288339
 Thermal correction to Enthalpy=                  0.289283
 Thermal correction to Gibbs Free Energy=         0.228044
 Sum of electronic and zero-point Energies=           -605.736031
 Sum of electronic and thermal Energies=              -605.720266
 Sum of electronic and thermal Enthalpies=            -605.719322
 Sum of electronic and thermal Free Energies=         -605.780561

                     E (Thermal)             CV                S
                      KCal/Mol        Cal/Mol-Kelvin    Cal/Mol-Kelvin
 Total                  180.936             55.909            128.889
 Electronic               0.000              0.000              0.000
 Translational            0.889              2.981             41.570
 Rotational               0.889              2.981             31.795
 Vibrational            179.158             49.947             55.525
 Vibration     1          0.593              1.986              6.741
 Vibration     2          0.594              1.983              5.721
 Vibration     3          0.596              1.975              4.550
 Vibration     4          0.598              1.970              4.249
 Vibration     5          0.602              1.955              3.618
 Vibration     6          0.608              1.935              3.140
 Vibration     7          0.616              1.911              2.771
 Vibration     8          0.631              1.861              2.279
 Vibration     9          0.639              1.836              2.110
 Vibration    10          0.641              1.828              2.060
 Vibration    11          0.648              1.806              1.936
 Vibration    12          0.656              1.782              1.815
 Vibration    13          0.659              1.774              1.778
 Vibration    14          0.680              1.709              1.529
 Vibration    15          0.691              1.678              1.430
 Vibration    16          0.706              1.635              1.310
 Vibration    17          0.721              1.591              1.203
 Vibration    18          0.745              1.525              1.063
 Vibration    19          0.783              1.427              0.892
 Vibration    20          0.815              1.346              0.776
 Vibration    21          0.891              1.169              0.573
 Vibration    22          0.923              1.103              0.511
 Vibration    23          0.937              1.074              0.485
 Vibration    24          0.962              1.024              0.444

 Optimization completed.
    -- Stationary point found.

 1\1\GINC-NODE308\Freq\RB3LYP\6-31G(d)\C7H18N6\VSC10255\13-Dec-2020\0\\
 #N Geom=AllCheck Guess=TCheck SCRF=Check GenChk RB3LYP/6-31G(d) Freq\\
 CID_149777476_JID_3782_neutraal\\0,1\C,0.7206474957,0.3688109634,0.687
 1170708\C,1.8606716108,1.0835924074,1.4160189743\N,2.1384439582,2.4725
 725765,1.0043193743\C,0.9904682862,3.3895368056,1.1019485967\C,0.59260
 08905,3.6323646068,2.5688500621\N,1.771597841,4.0668399685,3.304956704
 4\C,1.7077611814,3.8689859176,4.7452172334\N,-0.5291287311,4.568743036
 3,2.5958564766\C,-1.5105815434,4.3560957878,3.6467396691\C,-0.16525059

 Normal termination of Gaussian 16 at Sun Dec 13 12:38:58 2020.

 ----------------------------------------------------------------------
 # B3LYP/6-311++G(d,p) empiricaldispersion=gd3bj scf=xqc pop=npa geom=c
 heck
 ----------------------------------------------------------------------

 ---------------------------------------
 CID_149777476_JID_3782_Energie_neutraal
 ---------------------------------------
 Structure from the checkpoint file:  "JID_3782.chk"
 Charge =  0 Multiplicity = 1

 SCF Done:  E(RB3LYP) =  -606.183272966     A.U. after   15 cycles
 Normal termination of Gaussian 16 at Sun Dec 13 12:42:18 2020.

 ----------------------------------------------------------------------
 # B3LYP/6-311++G(d,p) empiricaldispersion=gd3bj scf=xqc pop=npa geom=c
 heck
 ----------------------------------------------------------------------

 -------------------------------------
 CID_149777476_JID_3782_Energie_kation
 -------------------------------------
 Structure from the checkpoint file:  "JID_3782.chk"
 Charge =  1 Multiplicity = 2

 SCF Done:  E(UB3LYP) =  -605.896747319     A.U. after   30 cycles
 Normal termination of Gaussian 16 at Sun Dec 13 12:51:07 2020.
 Gaussian 16:  ES64L-G16RevA.03 25-Dec-2016

 ------------------------------------
 CID_149777476_JID_3782_Energie_anion
 ------------------------------------
 Structure from the checkpoint file:  "JID_3782.chk"
 Charge = -1 Multiplicity = 2

                         Standard orientation:
 ---------------------------------------------------------------------
 Center     Atomic      Atomic             Coordinates (Angstroms)
 Number     Number       Type             X           Y           Z
 ---------------------------------------------------------------------
      1          6           0        1.683362   -2.671501   -0.243628
      2          6           0        1.561486   -1.499387    0.732672
      3          7           0        1.371122   -0.162860    0.138216
      4          6           0        0.203805   -0.040295   -0.750914
      5          6           0       -1.113261   -0.159830    0.036557
      6          7           0       -1.089672    0.800238    1.131258
      7          6           0       -1.989549    0.500370    2.234830
      8          7           0       -2.226999   -0.001740   -0.896398
      9          6           0       -3.412809   -0.792772   -0.611883
     10          6           0       -2.561333    1.374743   -1.231896
     11          7           0        2.566387    0.139617   -0.657355
     12          7           0        3.113944    1.176826   -0.231849
     13          7           0        3.718785    2.105288    0.036385
     14          1           0        0.754788   -2.841524   -0.797781
     15          1           0        1.914565   -3.589753    0.307098
     16          1           0        2.487007   -2.491848   -0.964000
     17          1           0        0.717736   -1.653523    1.414846
     18          1           0        2.459605   -1.431949    1.354236
     19          1           0        0.261463    0.952042   -1.203824
     20          1           0        0.197686   -0.778434   -1.561616
     21          1           0       -1.196755   -1.197062    0.410380
     22          1           0       -0.129109    0.883564    1.457022
     23          1           0       -1.915318   -0.540879    2.603070
     24          1           0       -1.776027    1.174551    3.070231
     25          1           0       -3.028526    0.669113    1.934265
     26          1           0       -4.040226   -0.391502    0.205429
     27          1           0       -4.039160   -0.842389   -1.510910
     28          1           0       -3.124307   -1.815339   -0.349219
     29          1           0       -3.085156    1.906846   -0.420457
     30          1           0       -1.657989    1.942225   -1.465977
     31          1           0       -3.205445    1.376317   -2.119020
 ---------------------------------------------------------------------

 SCF Done:  E(UB3LYP) =  -606.178325490     A.U. after   31 cycles

 The electronic state is 2-A.
 Alpha  occ. eigenvalues --  -14.31293 -14.23269 -14.22672 -14.22400 -14.20055
 Alpha  occ. eigenvalues --  -14.18904 -10.11906 -10.08896 -10.08706 -10.08505
 Alpha  occ. eigenvalues --  -10.08248 -10.08070 -10.05420  -0.99299  -0.86994
 Alpha  occ. eigenvalues --   -0.83873  -0.77955  -0.75925  -0.65183  -0.61958
 Alpha  occ. eigenvalues --   -0.60467  -0.55829  -0.54610  -0.51105  -0.46281
 Alpha  occ. eigenvalues --   -0.42249  -0.39571  -0.38657  -0.38036  -0.36969
 Alpha  occ. eigenvalues --   -0.36175  -0.34512  -0.33643  -0.33489  -0.32184
 Alpha  occ. eigenvalues --   -0.31314  -0.31049  -0.29986  -0.29119  -0.28226
 Alpha  occ. eigenvalues --   -0.27266  -0.26859  -0.26435  -0.25464  -0.24838
 Alpha  occ. eigenvalues --   -0.23715  -0.20680  -0.13373  -0.12539  -0.11336
 Alpha  occ. eigenvalues --   -0.10967   0.04568
 Alpha virt. eigenvalues --    0.06151   0.07337   0.07701   0.08505   0.09811
 Alpha virt. eigenvalues --    0.10054   0.10366   0.10992   0.11210   0.12107
 Alpha virt. eigenvalues --    0.12755   0.13021   0.13677   0.14052   0.14461

  Beta  occ. eigenvalues --  -14.30928 -14.23328 -14.22264 -14.22158 -14.20052
  Beta  occ. eigenvalues --  -14.18896 -10.11899 -10.08883 -10.08685 -10.08474
  Beta  occ. eigenvalues --  -10.08233 -10.08065 -10.05398  -0.98591  -0.86692
  Beta  occ. eigenvalues --   -0.83833  -0.77910  -0.75658  -0.65147  -0.61842
  Beta  occ. eigenvalues --   -0.60431  -0.55777  -0.54556  -0.50883  -0.46213
  Beta  occ. eigenvalues --   -0.42092  -0.39521  -0.38293  -0.37708  -0.36877
  Beta  occ. eigenvalues --   -0.35401  -0.34232  -0.33510  -0.33229  -0.32053
  Beta  occ. eigenvalues --   -0.31234  -0.30441  -0.29425  -0.29091  -0.28193
  Beta  occ. eigenvalues --   -0.27226  -0.26825  -0.26394  -0.25399  -0.24716
  Beta  occ. eigenvalues --   -0.23654  -0.19791  -0.13343  -0.12415  -0.11203
  Beta  occ. eigenvalues --   -0.10898
  Beta virt. eigenvalues --    0.06669   0.07754   0.07976   0.08738   0.09888
  Beta virt. eigenvalues --    0.10214   0.10355   0.10712   0.11283   0.11582
  Beta virt. eigenvalues --    0.12264   0.12808   0.13146   0.13829   0.14138

 Mulliken charges and spin densities:
               1          2
     1  C    0.220027  -0.696588
     2  C   -0.608181   0.327732
     3  N    0.265703  -0.002379
     4  C    0.263227  -0.567627
     5  C   -2.142144   0.825274
     6  N   -0.041070   0.022445
     7  C    0.322312  -0.661309
     8  N    0.247309   0.043381
     9  C    0.772131  -0.997907
    10  C    0.235926  -0.440535
    11  N   -0.587146   0.425337
    12  N    0.396883  -0.044281
    13  N   -0.213400   0.031793
    14  H   -0.085155   0.221428
    15  H   -0.218536   0.354431
    16  H    0.103010   0.055865
    17  H    0.003050   0.115098
    18  H   -0.100764   0.275149
    19  H    0.078347   0.072857
    20  H    0.153927   0.031694
    21  H    0.605533  -0.465151
    22  H    0.297567  -0.016784
    23  H   -0.258161   0.371100
    24  H    0.026348   0.107947
    25  H   -0.009639   0.144413
    26  H   -0.129993   0.234514
    27  H   -0.201990   0.332466
    28  H   -0.510517   0.628424
    29  H    0.006697   0.107427
    30  H    0.096096   0.027176
    31  H    0.012602   0.136611
 Sum of Mulliken charges =  -1.00000   1.00000

 Dipole moment (field-independent basis, Debye):
    X=             -0.9878    Y=              0.2678    Z=              0.3608  Tot=              1.0852
 Quadrupole moment (field-independent basis, Debye-Ang):
   XX=           -153.5254   YY=           -120.5507   ZZ=           -106.4843
   XY=            -12.8262   XZ=              0.8688   YZ=             -0.2936

 Summary of Natural Population Analysis:

                                       Natural Population
                Natural  -----------------------------------------------
    Atom  No    Charge         Core      Valence    Rydberg      Total
 -----------------------------------------------------------------------
      C    1   -0.29996      0.99966     2.29618    0.00412     3.29996
      C    2   -0.08796      0.99962     2.07575    0.01260     3.08796
      N    3   -0.19102      0.99971     2.67837    0.01293     3.69102
      C    4   -0.08987      0.99957     2.07787    0.01243     3.08987
      C    5    0.08573      0.99958     1.89780    0.01689     2.91427
      N    6   -0.35284      0.99972     2.84234    0.01078     3.85284
      C    7   -0.17874      0.99966     2.17082    0.00825     3.17874
      N    8   -0.28677      0.99971     2.77338    0.01368     3.78677
      C    9   -0.17257      0.99964     2.16420    0.00873     3.17257
      C   10   -0.17468      0.99964     2.16781    0.00723     3.17468
      N   11   -0.15836      0.99972     2.64318    0.01546     3.65836
      N   12    0.14324      0.99971     2.34204    0.01501     3.35676
      N   13    0.01391      0.99982     2.47224    0.01403     3.48609
      H   14    0.09673      0.00000     0.40218    0.00109     0.40327
      H   15    0.09775      0.00000     0.40086    0.00138     0.40225
      H   16    0.10597      0.00000     0.39268    0.00134     0.39403
      H   17    0.09159      0.00000     0.40705    0.00136     0.40841
      H   18    0.09662      0.00000     0.40221    0.00117     0.40338
      H   19    0.10201      0.00000     0.39647    0.00152     0.39799
      H   20    0.09313      0.00000     0.40469    0.00217     0.40687
      H   21    0.07939      0.00000     0.41764    0.00297     0.42061
      H   22    0.18616      0.00000     0.31033    0.00351     0.31384
      H   23    0.07903      0.00000     0.41956    0.00141     0.42097
      H   24    0.09276      0.00000     0.40653    0.00072     0.40724
      H   25    0.08960      0.00000     0.40859    0.00182     0.41040
      H   26    0.07847      0.00000     0.41984    0.00169     0.42153
      H   27    0.09268      0.00000     0.40605    0.00127     0.40732
      H   28    0.09674      0.00000     0.40180    0.00146     0.40326
      H   29    0.08342      0.00000     0.41497    0.00160     0.41658
      H   30    0.09769      0.00000     0.40119    0.00112     0.40231
      H   31    0.09014      0.00000     0.40869    0.00117     0.40986
 =======================================================================
   * Total *    0.00000     12.99575    37.82331    0.18093    51.00000

 Normal termination of Gaussian 16 at Sun Dec 13 13:00:08 2020.
