 Gaussian 16, Revision A.03,

 -----------------------------------------------------------
 # opt freq B3LYP/6-31G(d) empiricaldispersion=gd3bj scf=xqc
 -----------------------------------------------------------

 -------------------------------
 CID_126983455_JID_2994_neutraal
 -------------------------------
 Symbolic Z-matrix:
 Charge =  0 Multiplicity = 1

 SCF Done:  E(RB3LYP) =  -971.794186393     A.U. after   15 cycles
 SCF Done:  E(RB3LYP) =  -971.802478258     A.U. after   12 cycles
 SCF Done:  E(RB3LYP) =  -971.803558004     A.U. after   12 cycles
 SCF Done:  E(RB3LYP) =  -971.803491784     A.U. after   12 cycles
 SCF Done:  E(RB3LYP) =  -971.804268060     A.U. after   12 cycles
 SCF Done:  E(RB3LYP) =  -971.804379436     A.U. after   12 cycles
 SCF Done:  E(RB3LYP) =  -971.804464638     A.U. after   12 cycles
 SCF Done:  E(RB3LYP) =  -971.804513940     A.U. after   11 cycles
 SCF Done:  E(RB3LYP) =  -971.804565033     A.U. after   12 cycles
 SCF Done:  E(RB3LYP) =  -971.804572376     A.U. after   10 cycles
 SCF Done:  E(RB3LYP) =  -971.804573815     A.U. after    9 cycles
 SCF Done:  E(RB3LYP) =  -971.804574143     A.U. after    8 cycles
 SCF Done:  E(RB3LYP) =  -971.804574265     A.U. after    7 cycles
 SCF Done:  E(RB3LYP) =  -971.804574371     A.U. after    7 cycles
 SCF Done:  E(RB3LYP) =  -971.804574508     A.U. after    7 cycles
 SCF Done:  E(RB3LYP) =  -971.804574568     A.U. after    7 cycles
 Optimization completed.
    -- Stationary point found.
 Normal termination of Gaussian 16 at Wed Dec  9 18:24:27 2020.

 --------------------------------------------------------------------
 #N Geom=AllCheck Guess=TCheck SCRF=Check GenChk RB3LYP/6-31G(d) Freq
 --------------------------------------------------------------------

 Structure from the checkpoint file:  "JID_2994.chk"
 -------------------------------
 CID_126983455_JID_2994_neutraal
 -------------------------------
 Charge =  0 Multiplicity = 1

 SCF Done:  E(RB3LYP) =  -971.804574568     A.U. after    1 cycles

  Exact polarizability: 131.160  -8.298  96.492  -7.159  -3.471  75.338
 Approx polarizability: 192.801 -10.613 157.207 -25.304  -4.724 121.533

                      1                      2                      3
                      A                      A                      A
 Frequencies --     43.1186                54.7005                65.9309
 Red. masses --      5.1054                 5.5969                 3.0218
 Frc consts  --      0.0056                 0.0099                 0.0077
 IR Inten    --      4.5682                 1.3426                 6.1398

                      4                      5                      6
                      A                      A                      A
 Frequencies --    100.2202               151.2502               164.0292
 Red. masses --      2.5968                 3.7794                 1.4960
 Frc consts  --      0.0154                 0.0509                 0.0237
 IR Inten    --      3.3127                 1.9450                 1.1556

                      7                      8                      9
                      A                      A                      A
 Frequencies --    187.4509               220.3891               256.6372
 Red. masses --      2.4144                 6.2263                 3.9825
 Frc consts  --      0.0500                 0.1782                 0.1545
 IR Inten    --      9.3583                 1.6346                 0.4124

                     10                     11                     12
                      A                      A                      A
 Frequencies --    258.8474               339.3117               392.7587
 Red. masses --      6.4982                 4.0326                 3.2714
 Frc consts  --      0.2565                 0.2735                 0.2973
 IR Inten    --      2.4874                 2.0250                 3.9924

                     13                     14                     15
                      A                      A                      A
 Frequencies --    426.3290               465.5469               479.5751
 Red. masses --      4.2893                 3.8398                 4.5161
 Frc consts  --      0.4593                 0.4903                 0.6120
 IR Inten    --     20.4504                24.7742                33.0109

                     16                     17                     18
                      A                      A                      A
 Frequencies --    497.3062               587.5890               663.3116
 Red. masses --      4.0539                 4.9514                 4.1285
 Frc consts  --      0.5907                 1.0072                 1.0702
 IR Inten    --     11.8483                36.5520                17.5581

                     19                     20                     21
                      A                      A                      A
 Frequencies --    719.8674               746.7880               807.6549
 Red. masses --      4.9321                 5.3597                 4.1842
 Frc consts  --      1.5059                 1.7611                 1.6081
 IR Inten    --     17.3318                 9.3375                55.4008

                     22                     23                     24
                      A                      A                      A
 Frequencies --    853.6401               884.1336               926.8419
 Red. masses --      1.3484                 6.1164                 2.6574
 Frc consts  --      0.5789                 2.8170                 1.3450
 IR Inten    --      7.2172                17.7109                24.4340

                     25                     26                     27
                      A                      A                      A
 Frequencies --    931.0249               957.4197               990.7946
 Red. masses --      2.7823                 1.4707                 1.8459
 Frc consts  --      1.4209                 0.7943                 1.0676
 IR Inten    --     37.0319                 2.0866                50.9602

                     28                     29                     30
                      A                      A                      A
 Frequencies --    999.2084              1006.8135              1041.1697
 Red. masses --      1.9047                 1.5080                 2.8599
 Frc consts  --      1.1204                 0.9006                 1.8266
 IR Inten    --      3.3835                41.1733                69.8822

                     31                     32                     33
                      A                      A                      A
 Frequencies --   1091.2073              1122.4442              1169.9326
 Red. masses --      1.5915                 4.6277                 1.4195
 Frc consts  --      1.1165                 3.4351                 1.1447
 IR Inten    --      4.4102                65.3103                78.9352

                     34                     35                     36
                      A                      A                      A
 Frequencies --   1201.6417              1231.1467              1247.7773
 Red. masses --      2.4130                 1.1871                 1.4866
 Frc consts  --      2.0528                 1.0601                 1.3637
 IR Inten    --    268.2166                18.5819                25.0831

                     37                     38                     39
                      A                      A                      A
 Frequencies --   1271.6028              1298.7881              1319.7854
 Red. masses --      1.1449                 1.3862                 1.7983
 Frc consts  --      1.0908                 1.3777                 1.8455
 IR Inten    --     31.4923                29.3956                 7.9276

                     40                     41                     42
                      A                      A                      A
 Frequencies --   1323.5411              1371.4628              1379.2023
 Red. masses --      4.0366                 3.9985                 1.2258
 Frc consts  --      4.1662                 4.4311                 1.3738
 IR Inten    --    223.8480                15.0047                20.3735

                     43                     44                     45
                      A                      A                      A
 Frequencies --   1429.5606              1471.5060              1478.6783
 Red. masses --      1.9400                 1.1208                 1.0617
 Frc consts  --      2.3359                 1.4298                 1.3677
 IR Inten    --      7.4159                 8.5438                13.9257

                     46                     47                     48
                      A                      A                      A
 Frequencies --   1487.3446              1530.2800              1550.9321
 Red. masses --      1.0539                 1.0938                 1.1018
 Frc consts  --      1.3736                 1.5091                 1.5615
 IR Inten    --      7.0322                 1.0204                 1.1401

                     49                     50                     51
                      A                      A                      A
 Frequencies --   1652.1725              1736.1209              3042.6814
 Red. masses --      5.9357                10.3149                 1.0701
 Frc consts  --      9.5462                18.3178                 5.8372
 IR Inten    --    591.4278               122.0212                24.7284

                     52                     53                     54
                      A                      A                      A
 Frequencies --   3089.8730              3097.0391              3103.5886
 Red. masses --      1.0290                 1.0613                 1.0581
 Frc consts  --      5.7883                 5.9975                 6.0051
 IR Inten    --      1.0551                38.0488                 0.9435

                     55                     56                     57
                      A                      A                      A
 Frequencies --   3121.8925              3154.1548              3171.0854
 Red. masses --      1.0941                 1.1103                 1.1083
 Frc consts  --      6.2828                 6.5079                 6.5664
 IR Inten    --      4.1491                21.2831                 0.4965

                     58                     59                     60
                      A                      A                      A
 Frequencies --   3191.3059              3202.1927              3269.4569
 Red. masses --      1.1070                 1.1078                 1.0971
 Frc consts  --      6.6428                 6.6927                 6.9093
 IR Inten    --      0.3434                 1.1946                 0.1883

 - Thermochemistry -
 -------------------
 Temperature   298.150 Kelvin.  Pressure   1.00000 Atm.
 Atom     1 has atomic number  6 and mass  12.00000

 Molecular mass:   190.02998 amu.
 Principal axes and moments of inertia in atomic units:
                           1         2         3
     Eigenvalues --  1081.324483621.373364142.31901
           X            0.99948  -0.03132   0.00698
           Y            0.03154   0.99892  -0.03415
           Z           -0.00590   0.03435   0.99939
 This molecule is an asymmetric top.
 Rotational symmetry number  1.
 Warning -- assumption of classical behavior for rotation
           may cause significant error
 Rotational temperatures (Kelvin)      0.08010     0.02392     0.02091
 Rotational constants (GHZ):           1.66901     0.49836     0.43568
 Zero-point vibrational energy     448767.4 (Joules/Mol)
                                  107.25799 (Kcal/Mol)
 Warning -- explicit consideration of  17 degrees of freedom as
           vibrations may cause significant error
 Vibrational temperatures:     62.04    78.70    94.86   144.19   217.62
          (Kelvin)            236.00   269.70   317.09   369.24   372.42
                              488.19   565.09   613.39   669.82   690.00
                              715.51   845.41   954.36  1035.73  1074.46
                             1162.04  1228.20  1272.07  1333.52  1339.54
                             1377.51  1425.53  1437.64  1448.58  1498.01
                             1570.00  1614.95  1683.27  1728.89  1771.35
                             1795.27  1829.55  1868.67  1898.88  1904.28
                             1973.23  1984.36  2056.82  2117.17  2127.49
                             2139.96  2201.73  2231.45  2377.11  2497.89
                             4377.74  4445.64  4455.95  4465.37  4491.71
                             4538.13  4562.48  4591.58  4607.24  4704.02

 Zero-point correction=                           0.170926 (Hartree/Particle)
 Thermal correction to Energy=                    0.183167
 Thermal correction to Enthalpy=                  0.184111
 Thermal correction to Gibbs Free Energy=         0.131228
 Sum of electronic and zero-point Energies=           -971.633648
 Sum of electronic and thermal Energies=              -971.621407
 Sum of electronic and thermal Enthalpies=            -971.620463
 Sum of electronic and thermal Free Energies=         -971.673347

                     E (Thermal)             CV                S
                      KCal/Mol        Cal/Mol-Kelvin    Cal/Mol-Kelvin
 Total                  114.939             43.904            111.303
 Electronic               0.000              0.000              0.000
 Translational            0.889              2.981             41.632
 Rotational               0.889              2.981             31.162
 Vibrational            113.162             37.942             38.509
 Vibration     1          0.595              1.980              5.110
 Vibration     2          0.596              1.976              4.640
 Vibration     3          0.597              1.971              4.271
 Vibration     4          0.604              1.949              3.450
 Vibration     5          0.619              1.901              2.656
 Vibration     6          0.623              1.887              2.503
 Vibration     7          0.632              1.857              2.253
 Vibration     8          0.647              1.810              1.956
 Vibration     9          0.666              1.752              1.685
 Vibration    10          0.668              1.748              1.670
 Vibration    11          0.719              1.597              1.215
 Vibration    12          0.760              1.486              0.990
 Vibration    13          0.788              1.413              0.871
 Vibration    14          0.823              1.326              0.750
 Vibration    15          0.836              1.295              0.711
 Vibration    16          0.853              1.256              0.665
 Vibration    17          0.945              1.058              0.471

 Optimization completed.
    -- Stationary point found.
 Normal termination of Gaussian 16 at Wed Dec  9 18:29:53 2020.

 ----------------------------------------------------------------------
 # B3LYP/6-311++G(d,p) empiricaldispersion=gd3bj scf=xqc pop=npa geom=c
 heck
 ----------------------------------------------------------------------

 ---------------------------------------
 CID_126983455_JID_2994_Energie_neutraal
 ---------------------------------------
 Structure from the checkpoint file:  "JID_2994.chk"
 Charge =  0 Multiplicity = 1

 SCF Done:  E(RB3LYP) =  -972.000330399     A.U. after   16 cycles
 Normal termination of Gaussian 16 at Wed Dec  9 18:31:52 2020.

 ----------------------------------------------------------------------
 # B3LYP/6-311++G(d,p) empiricaldispersion=gd3bj scf=xqc pop=npa geom=c
 heck
 ----------------------------------------------------------------------

 -------------------------------------
 CID_126983455_JID_2994_Energie_kation
 -------------------------------------
 Structure from the checkpoint file:  "JID_2994.chk"
 Charge =  1 Multiplicity = 2

 SCF Done:  E(UB3LYP) =  -971.675641042     A.U. after   27 cycles
 Normal termination of Gaussian 16 at Wed Dec  9 18:35:49 2020.
 Gaussian 16:  ES64L-G16RevA.03 25-Dec-2016

 ----------------------------------------------------------------------
 # B3LYP/6-311++G(d,p) empiricaldispersion=gd3bj scf=xqc pop=npa geom=c
 heck
 ----------------------------------------------------------------------

 ------------------------------------
 CID_126983455_JID_2994_Energie_anion
 ------------------------------------
 Structure from the checkpoint file:  "JID_2994.chk"
 Charge = -1 Multiplicity = 2

                         Standard orientation:
 ---------------------------------------------------------------------
 Center     Atomic      Atomic             Coordinates (Angstroms)
 Number     Number       Type             X           Y           Z
 ---------------------------------------------------------------------
      1          6           0       -2.713110    0.986570   -0.921653
      2         16           0       -1.990841   -0.447455   -0.100918
      3          8           0       -3.051687   -1.176102    0.608715
      4          8           0       -1.129178   -1.145334   -1.071280
      5          6           0       -0.903475    0.303256    1.161382
      6          6           0        0.247234    1.072400    0.515827
      7          8           0        0.075575    2.252808    0.210990
      8          6           0        1.473337    0.345439    0.259006
      9          6           0        2.577251    0.916565   -0.273684
     10          8           0        3.616225    0.098746   -0.473644
     11          6           0        3.176950   -1.259320   -0.133380
     12          6           0        1.771746   -1.124624    0.499045
     13          1           0       -3.256014    0.600139   -1.786807
     14          1           0       -1.912322    1.661585   -1.226169
     15          1           0       -3.395672    1.480585   -0.228277
     16          1           0       -1.521556    0.980013    1.754918
     17          1           0       -0.584414   -0.544784    1.773144
     18          1           0        2.730915    1.951725   -0.552060
     19          1           0        3.931746   -1.677833    0.534438
     20          1           0        3.166682   -1.826351   -1.067745
     21          1           0        1.041799   -1.773254    0.007936
     22          1           0        1.785199   -1.375216    1.567793
 ---------------------------------------------------------------------

 SCF Done:  E(UB3LYP) =  -972.016242542     A.U. after   26 cycles

 The electronic state is 2-A.
 Alpha  occ. eigenvalues --  -88.90522 -19.00344 -18.98244 -18.98051 -18.90125
 Alpha  occ. eigenvalues --  -10.10059 -10.08084 -10.05968 -10.05128 -10.04643
 Alpha  occ. eigenvalues --  -10.04391 -10.00056  -7.97144  -5.93397  -5.93293
 Alpha  occ. eigenvalues --   -5.93214  -0.97406  -0.92936  -0.87131  -0.84322
 Alpha  occ. eigenvalues --   -0.66322  -0.65119  -0.61428  -0.60082  -0.48797
 Alpha  occ. eigenvalues --   -0.47664  -0.44309  -0.40218  -0.37434  -0.36471
 Alpha  occ. eigenvalues --   -0.35817  -0.34971  -0.33305  -0.30987  -0.30262
 Alpha  occ. eigenvalues --   -0.29453  -0.27339  -0.26901  -0.26080  -0.24134
 Alpha  occ. eigenvalues --   -0.23127  -0.22141  -0.21007  -0.20191  -0.19896
 Alpha  occ. eigenvalues --   -0.19068  -0.17384  -0.15702  -0.07613  -0.07056
 Alpha  occ. eigenvalues --    0.04951
 Alpha virt. eigenvalues --    0.08741   0.09180   0.10834   0.11520   0.12016
 Alpha virt. eigenvalues --    0.12259   0.13365   0.14027   0.14664   0.15041
 Alpha virt. eigenvalues --    0.15617   0.16753   0.17330   0.18298   0.18370

  Beta  occ. eigenvalues --  -88.90459 -19.00129 -18.98201 -18.98046 -18.89554
  Beta  occ. eigenvalues --  -10.10065 -10.08066 -10.05986 -10.04626 -10.04380
  Beta  occ. eigenvalues --  -10.04076 -10.00235  -7.97073  -5.93351  -5.93241
  Beta  occ. eigenvalues --   -5.93086  -0.97300  -0.92477  -0.87067  -0.83240
  Beta  occ. eigenvalues --   -0.66101  -0.65073  -0.61123  -0.59697  -0.48235
  Beta  occ. eigenvalues --   -0.47459  -0.43660  -0.39834  -0.37207  -0.36234
  Beta  occ. eigenvalues --   -0.35621  -0.34831  -0.33023  -0.30839  -0.30155
  Beta  occ. eigenvalues --   -0.29225  -0.27077  -0.26570  -0.25884  -0.23910
  Beta  occ. eigenvalues --   -0.21942  -0.21280  -0.20586  -0.20035  -0.18998
  Beta  occ. eigenvalues --   -0.18214  -0.17273  -0.14974  -0.07121  -0.05428
  Beta virt. eigenvalues --    0.08678   0.09113   0.10652   0.11481   0.11880
  Beta virt. eigenvalues --    0.12091   0.12792   0.13404   0.14128   0.14592
  Beta virt. eigenvalues --    0.15033   0.15592   0.16767   0.17555   0.18261

 Mulliken charges and spin densities:
               1          2
     1  C   -0.516161  -0.037031
     2  S    0.213312   0.010804
     3  O   -0.215569   0.014893
     4  O   -0.239320   0.009499
     5  C   -0.496341   0.050141
     6  C   -0.656856   0.321116
     7  O   -0.463779   0.216169
     8  C    0.883272  -0.216105
     9  C   -0.278319   0.534173
    10  O   -0.088007   0.031722
    11  C   -0.446401  -0.036190
    12  C   -0.370135   0.017378
    13  H    0.140697   0.035507
    14  H    0.208778   0.038557
    15  H    0.171297   0.000487
    16  H    0.225254   0.029181
    17  H    0.199480   0.001118
    18  H    0.186528  -0.031642
    19  H    0.138994  -0.000067
    20  H    0.133340   0.024018
    21  H    0.178224  -0.007714
    22  H    0.091712  -0.006016
 Sum of Mulliken charges =  -1.00000   1.00000

 Dipole moment (field-independent basis, Debye):
    X=             -0.8111    Y=             -2.2661    Z=              0.6994  Tot=              2.5064
 Quadrupole moment (field-independent basis, Debye-Ang):
   XX=           -110.3421   YY=           -101.1497   ZZ=            -86.2601
   XY=            -14.6854   XZ=              5.1413   YZ=             -2.3858

 Summary of Natural Population Analysis:

                                       Natural Population
                Natural  -----------------------------------------------
    Atom  No    Charge         Core      Valence    Rydberg      Total
 -----------------------------------------------------------------------
      C    1   -0.39718      0.99961     2.38966    0.00791     3.39718
      S    2    1.03249      4.99933     1.87367    0.09450     6.96751
      O    3   -0.48086      0.99991     3.47513    0.00582     4.48086
      O    4   -0.47406      0.99991     3.46808    0.00607     4.47406
      C    5   -0.31496      0.99957     2.30527    0.01013     3.31496
      C    6    0.30604      0.99958     1.67269    0.02170     2.69396
      O    7   -0.27147      0.99988     3.26503    0.00656     4.27147
      C    8   -0.16040      0.99947     2.15010    0.01083     3.16040
      C    9    0.22740      0.99945     1.75930    0.01385     2.77260
      O   10   -0.26172      0.99988     3.25197    0.00987     4.26172
      C   11   -0.00919      0.99962     2.00067    0.00891     3.00919
      C   12   -0.21088      0.99962     2.20552    0.00573     3.21088
      H   13    0.10732      0.00000     0.39007    0.00261     0.39268
      H   14    0.13139      0.00000     0.36658    0.00203     0.36861
      H   15    0.10771      0.00000     0.39048    0.00181     0.39229
      H   16    0.11368      0.00000     0.38501    0.00131     0.38632
      H   17    0.11064      0.00000     0.38796    0.00140     0.38936
      H   18    0.08777      0.00000     0.41117    0.00105     0.41223
      H   19    0.07954      0.00000     0.41927    0.00119     0.42046
      H   20    0.08122      0.00000     0.41754    0.00124     0.41878
      H   21    0.10962      0.00000     0.38900    0.00139     0.39038
      H   22    0.08591      0.00000     0.41249    0.00160     0.41409
 =======================================================================
   * Total *   -0.00000     15.99583    33.78665    0.21753    50.00000

 Normal termination of Gaussian 16 at Wed Dec  9 18:39:36 2020.
