 Gaussian 16, Revision A.03,

 -----------------------------------------------------------
 # opt freq B3LYP/6-31G(d) empiricaldispersion=gd3bj scf=xqc
 -----------------------------------------------------------

 -------------------------------
 CID_114475910_JID_6919_neutraal
 -------------------------------
 Symbolic Z-matrix:
 Charge =  0 Multiplicity = 1

 SCF Done:  E(RB3LYP) =  -677.332108144     A.U. after   14 cycles
 SCF Done:  E(RB3LYP) =  -677.335859051     A.U. after   12 cycles
 SCF Done:  E(RB3LYP) =  -677.335180175     A.U. after   14 cycles
 SCF Done:  E(RB3LYP) =  -677.336669344     A.U. after   12 cycles
 SCF Done:  E(RB3LYP) =  -677.337340645     A.U. after   14 cycles
 SCF Done:  E(RB3LYP) =  -677.337764600     A.U. after   12 cycles
 SCF Done:  E(RB3LYP) =  -677.338179374     A.U. after   12 cycles
 SCF Done:  E(RB3LYP) =  -677.339366594     A.U. after   15 cycles
 SCF Done:  E(RB3LYP) =  -677.340347923     A.U. after   11 cycles
 SCF Done:  E(RB3LYP) =  -677.340392340     A.U. after   12 cycles
 SCF Done:  E(RB3LYP) =  -677.342885244     A.U. after    9 cycles
 SCF Done:  E(RB3LYP) =  -677.342886672     A.U. after    8 cycles
 SCF Done:  E(RB3LYP) =  -677.342887046     A.U. after    7 cycles
 SCF Done:  E(RB3LYP) =  -677.342887143     A.U. after    7 cycles
 SCF Done:  E(RB3LYP) =  -677.342887155     A.U. after    6 cycles
 Optimization completed.
    -- Stationary point found.
 Normal termination of Gaussian 16 at Fri Dec 11 01:37:29 2020.

 --------------------------------------------------------------------
 #N Geom=AllCheck Guess=TCheck SCRF=Check GenChk RB3LYP/6-31G(d) Freq
 --------------------------------------------------------------------

 Structure from the checkpoint file:  "JID_6919.chk"
 -------------------------------
 CID_114475910_JID_6919_neutraal
 -------------------------------
 Charge =  0 Multiplicity = 1

 SCF Done:  E(RB3LYP) =  -677.342887155     A.U. after    1 cycles

  Exact polarizability: 174.459 -15.207 134.914   4.901   9.064 139.632
 Approx polarizability: 239.910 -30.987 188.433   4.562  18.257 223.713

                      1                      2                      3
                      A                      A                      A
 Frequencies --     29.6109                39.5365                49.8463
 Red. masses --      3.5593                 2.7572                 3.4891
 Frc consts  --      0.0018                 0.0025                 0.0051
 IR Inten    --      0.0176                 0.2962                 0.1929

                      4                      5                      6
                      A                      A                      A
 Frequencies --     63.6299                81.6121                89.3731
 Red. masses --      2.9549                 3.1227                 2.9355
 Frc consts  --      0.0070                 0.0123                 0.0138
 IR Inten    --      0.0170                 0.1446                 0.3389

                      7                      8                      9
                      A                      A                      A
 Frequencies --    100.6697               144.5650               157.8036
 Red. masses --      3.1947                 1.7788                 2.6082
 Frc consts  --      0.0191                 0.0219                 0.0383
 IR Inten    --      0.2741                 1.0045                 0.2736

                     10                     11                     12
                      A                      A                      A
 Frequencies --    174.2467               197.6451               201.7969
 Red. masses --      1.2573                 1.0967                 1.6560
 Frc consts  --      0.0225                 0.0252                 0.0397
 IR Inten    --      0.0706                 0.3140                 0.9363

                     13                     14                     15
                      A                      A                      A
 Frequencies --    237.8735               249.5213               270.6755
 Red. masses --      3.0230                 2.5236                 2.5280
 Frc consts  --      0.1008                 0.0926                 0.1091
 IR Inten    --      0.7244                 3.2076                 0.3523

                     16                     17                     18
                      A                      A                      A
 Frequencies --    299.1044               301.8772               350.7800
 Red. masses --      2.2185                 3.1187                 3.0240
 Frc consts  --      0.1169                 0.1674                 0.2192
 IR Inten    --      2.9431                 1.4853                 0.9347

                     19                     20                     21
                      A                      A                      A
 Frequencies --    359.6301               394.6147               420.3771
 Red. masses --      2.7270                 2.8770                 2.1223
 Frc consts  --      0.2078                 0.2640                 0.2210
 IR Inten    --      2.4113                 3.5277                 5.1602

                     22                     23                     24
                      A                      A                      A
 Frequencies --    434.6096               485.6789               505.8982
 Red. masses --      2.3142                 2.5769                 2.4075
 Frc consts  --      0.2575                 0.3581                 0.3630
 IR Inten    --      0.5829                 5.5063                 0.4330

                     25                     26                     27
                      A                      A                      A
 Frequencies --    612.4435               621.7099               671.6461
 Red. masses --      2.8549                 3.9446                 3.3544
 Frc consts  --      0.6309                 0.8983                 0.8916
 IR Inten    --     10.0951                 1.6910                 0.0656

                     28                     29                     30
                      A                      A                      A
 Frequencies --    684.7436               700.0381               724.5151
 Red. masses --      3.2454                 1.2459                 1.8083
 Frc consts  --      0.8966                 0.3597                 0.5593
 IR Inten    --      5.8859                 1.0444                12.1673

                     31                     32                     33
                      A                      A                      A
 Frequencies --    737.8990               784.2886               805.1076
 Red. masses --      1.6260                 1.3989                 3.0569
 Frc consts  --      0.5216                 0.5070                 1.1674
 IR Inten    --     16.1609                 7.5273                 5.4175

                     34                     35                     36
                      A                      A                      A
 Frequencies --    824.6493               838.9821               887.5809
 Red. masses --      1.3599                 1.2533                 2.8414
 Frc consts  --      0.5449                 0.5198                 1.3189
 IR Inten    --     41.7575                 4.6290                 9.8684

                     37                     38                     39
                      A                      A                      A
 Frequencies --    896.2686               913.5481               922.8271
 Red. masses --      2.4511                 5.3072                 1.3386
 Frc consts  --      1.1601                 2.6096                 0.6717
 IR Inten    --      5.2081                12.3651                43.1252

                     40                     41                     42
                      A                      A                      A
 Frequencies --    940.0052               957.6032               976.8019
 Red. masses --      1.4067                 1.8052                 1.7041
 Frc consts  --      0.7323                 0.9753                 0.9580
 IR Inten    --      5.6694                 1.6918                 7.8298

                     43                     44                     45
                      A                      A                      A
 Frequencies --    995.5398              1007.2051              1016.5331
 Red. masses --      1.8212                 1.6295                 1.5767
 Frc consts  --      1.0635                 0.9739                 0.9599
 IR Inten    --      0.5927                 1.4887                 8.9902

                     46                     47                     48
                      A                      A                      A
 Frequencies --   1035.5661              1075.0676              1080.4381
 Red. masses --      1.5080                 1.6884                 1.5815
 Frc consts  --      0.9528                 1.1497                 1.0877
 IR Inten    --      2.6721                 1.4865                 2.0439

                     49                     50                     51
                      A                      A                      A
 Frequencies --   1086.1306              1090.3119              1102.1591
 Red. masses --      1.5122                 2.2014                 2.1787
 Frc consts  --      1.0510                 1.5419                 1.5593
 IR Inten    --      4.3946                 3.9941                 3.7056

                     52                     53                     54
                      A                      A                      A
 Frequencies --   1121.4230              1148.4782              1166.4681
 Red. masses --      2.4256                 2.1095                 2.8340
 Frc consts  --      1.7972                 1.6393                 2.2719
 IR Inten    --     29.1257                 8.8018                36.2714

                     55                     56                     57
                      A                      A                      A
 Frequencies --   1189.6712              1207.3877              1219.4589
 Red. masses --      2.1425                 1.8669                 2.9549
 Frc consts  --      1.7866                 1.6035                 2.5889
 IR Inten    --      1.3994                 5.9999                22.1491

                     58                     59                     60
                      A                      A                      A
 Frequencies --   1244.7625              1265.3048              1277.9609
 Red. masses --      1.4285                 1.6315                 1.3774
 Frc consts  --      1.3040                 1.5389                 1.3254
 IR Inten    --      1.3719                15.4787                11.6751

                     61                     62                     63
                      A                      A                      A
 Frequencies --   1291.0948              1292.1346              1319.0421
 Red. masses --      1.1978                 2.0325                 1.1829
 Frc consts  --      1.1764                 1.9994                 1.2126
 IR Inten    --      2.5446                 1.7714                 0.9332

                     64                     65                     66
                      A                      A                      A
 Frequencies --   1355.2425              1375.2223              1396.5995
 Red. masses --      1.3738                 1.4287                 1.3979
 Frc consts  --      1.4867                 1.5919                 1.6064
 IR Inten    --      4.4722                26.0088                 6.0729

                     67                     68                     69
                      A                      A                      A
 Frequencies --   1406.5901              1413.1265              1428.1597
 Red. masses --      1.4581                 1.5599                 1.6145
 Frc consts  --      1.6997                 1.8353                 1.9402
 IR Inten    --      3.9231                 0.3926                 6.4561

                     70                     71                     72
                      A                      A                      A
 Frequencies --   1438.2827              1438.5602              1444.6075
 Red. masses --      1.2624                 1.2360                 1.3316
 Frc consts  --      1.5386                 1.5071                 1.6372
 IR Inten    --      3.0809                 3.3066                 6.1737

                     73                     74                     75
                      A                      A                      A
 Frequencies --   1464.7072              1473.0330              1501.6817
 Red. masses --      2.3984                 1.2031                 1.0993
 Frc consts  --      3.0316                 1.5380                 1.4605
 IR Inten    --      1.5048                 1.4559                 8.3174

                     76                     77                     78
                      A                      A                      A
 Frequencies --   1507.0062              1509.8047              1520.2146
 Red. masses --      1.1757                 1.0476                 1.0855
 Frc consts  --      1.5732                 1.4070                 1.4780
 IR Inten    --     18.4265                 6.3710                 2.9473

                     79                     80                     81
                      A                      A                      A
 Frequencies --   1523.0823              1523.8690              1527.3112
 Red. masses --      1.0592                 1.0608                 1.1315
 Frc consts  --      1.4477                 1.4513                 1.5551
 IR Inten    --      1.2685                 5.7649                27.1945

                     82                     83                     84
                      A                      A                      A
 Frequencies --   1534.6064              1538.0123              1540.0151
 Red. masses --      1.0676                 1.0775                 1.0637
 Frc consts  --      1.4813                 1.5018                 1.4864
 IR Inten    --      1.8436                 3.1334                20.5897

                     85                     86                     87
                      A                      A                      A
 Frequencies --   1548.8265              1561.0816              1678.6947
 Red. masses --      1.0848                 4.8794                 7.1147
 Frc consts  --      1.5332                 7.0059                11.8128
 IR Inten    --      5.6498                12.5441                 0.4754

                     88                     89                     90
                      A                      A                      A
 Frequencies --   1745.9158              2922.1356              2933.8047
 Red. masses --      4.8186                 1.0813                 1.0740
 Frc consts  --      8.6540                 5.4398                 5.4463
 IR Inten    --      9.7976                50.6382                97.9449

                     91                     92                     93
                      A                      A                      A
 Frequencies --   3008.8014              3024.6116              3027.7384
 Red. masses --      1.0693                 1.0671                 1.0397
 Frc consts  --      5.7036                 5.7518                 5.6157
 IR Inten    --     23.9948                29.4062                37.4124

                     94                     95                     96
                      A                      A                      A
 Frequencies --   3042.5639              3050.0927              3052.7305
 Red. masses --      1.0402                 1.0389                 1.0848
 Frc consts  --      5.6735                 5.6947                 5.9565
 IR Inten    --     36.2213                22.2018                 8.0923

                     97                     98                     99
                      A                      A                      A
 Frequencies --   3059.1922              3067.5315              3072.0113
 Red. masses --      1.0811                 1.0823                 1.0993
 Frc consts  --      5.9613                 6.0002                 6.1123
 IR Inten    --     44.5026                 7.2096                33.9362

                    100                    101                    102
                      A                      A                      A
 Frequencies --   3077.4081              3089.9603              3103.5237
 Red. masses --      1.0871                 1.1009                 1.0973
 Frc consts  --      6.0659                 6.1932                 6.2273
 IR Inten    --     69.7069                23.1372                24.9934

                    103                    104                    105
                      A                      A                      A
 Frequencies --   3111.6635              3125.0316              3136.3628
 Red. masses --      1.1015                 1.0994                 1.1009
 Frc consts  --      6.2837                 6.3258                 6.3804
 IR Inten    --     46.7513                25.0809                40.8044

                    106                    107                    108
                      A                      A                      A
 Frequencies --   3157.9233              3170.2041              3249.7279
 Red. masses --      1.0972                 1.0626                 1.1127
 Frc consts  --      6.4467                 6.2918                 6.9233
 IR Inten    --      2.7469                 9.7279                15.7049

                    109                    110                    111
                      A                      A                      A
 Frequencies --   3256.4410              3297.6337              3481.2484
 Red. masses --      1.0922                 1.1036                 1.0740
 Frc consts  --      6.8241                 7.0709                 7.6685
 IR Inten    --      5.1030                 3.2805                 0.1996

 - Thermochemistry -
 -------------------
 Temperature   298.150 Kelvin.  Pressure   1.00000 Atm.
 Atom     1 has atomic number  6 and mass  12.00000

 Molecular mass:   221.17796 amu.
 Principal axes and moments of inertia in atomic units:
                           1         2         3
     Eigenvalues --  2893.288224617.667975701.04546
           X            0.99973   0.02307   0.00041
           Y           -0.02308   0.99965   0.01312
           Z           -0.00011  -0.01312   0.99991
 This molecule is an asymmetric top.
 Rotational symmetry number  1.
 Warning -- assumption of classical behavior for rotation
           may cause significant error
 Rotational temperatures (Kelvin)      0.02994     0.01876     0.01519
 Rotational constants (GHZ):           0.62377     0.39083     0.31656
 Zero-point vibrational energy     916856.1 (Joules/Mol)
                                  219.13386 (Kcal/Mol)
 Warning -- explicit consideration of  25 degrees of freedom as
           vibrations may cause significant error
 Vibrational temperatures:     42.60    56.88    71.72    91.55   117.42
          (Kelvin)            128.59   144.84   208.00   227.04   250.70
                              284.37   290.34   342.25   359.01   389.44
                              430.34   434.33   504.69   517.43   567.76
                              604.83   625.31   698.78   727.87   881.17
                              894.50   966.35   985.19  1007.20  1042.42
                             1061.67  1128.42  1158.37  1186.49  1207.11
                             1277.03  1289.53  1314.39  1327.74  1352.46
                             1377.78  1405.40  1432.36  1449.14  1462.56
                             1489.95  1546.78  1554.51  1562.70  1568.72
                             1585.76  1613.48  1652.40  1678.29  1711.67
                             1737.16  1754.53  1790.94  1820.49  1838.70
                             1857.60  1859.09  1897.81  1949.89  1978.64
                             2009.40  2023.77  2033.17  2054.80  2069.37
                             2069.77  2078.47  2107.39  2119.37  2160.58
                             2168.25  2172.27  2187.25  2191.38  2192.51
                             2197.46  2207.96  2212.86  2215.74  2228.42
                             2246.05  2415.27  2511.98  4204.30  4221.09
                             4328.99  4351.74  4356.24  4377.57  4388.40
                             4392.20  4401.50  4413.49  4419.94  4427.70
                             4445.76  4465.28  4476.99  4496.22  4512.53
                             4543.55  4561.22  4675.63  4685.29  4744.56
                             5008.74

 Zero-point correction=                           0.349212 (Hartree/Particle)
 Thermal correction to Energy=                    0.367113
 Thermal correction to Enthalpy=                  0.368057
 Thermal correction to Gibbs Free Energy=         0.302569
 Sum of electronic and zero-point Energies=           -676.993675
 Sum of electronic and thermal Energies=              -676.975774
 Sum of electronic and thermal Enthalpies=            -676.974830
 Sum of electronic and thermal Free Energies=         -677.040318

                     E (Thermal)             CV                S
                      KCal/Mol        Cal/Mol-Kelvin    Cal/Mol-Kelvin
 Total                  230.367             66.714            137.831
 Electronic               0.000              0.000              0.000
 Translational            0.889              2.981             42.084
 Rotational               0.889              2.981             32.699
 Vibrational            228.589             60.752             63.048
 Vibration     1          0.593              1.984              5.855
 Vibration     2          0.594              1.981              5.282
 Vibration     3          0.595              1.978              4.823
 Vibration     4          0.597              1.972              4.341
 Vibration     5          0.600              1.962              3.852
 Vibration     6          0.602              1.957              3.674
 Vibration     7          0.604              1.949              3.441
 Vibration     8          0.616              1.909              2.743
 Vibration     9          0.621              1.894              2.576
 Vibration    10          0.627              1.874              2.389
 Vibration    11          0.637              1.843              2.155
 Vibration    12          0.639              1.837              2.117
 Vibration    13          0.656              1.783              1.819
 Vibration    14          0.662              1.764              1.734
 Vibration    15          0.674              1.727              1.592
 Vibration    16          0.692              1.675              1.422
 Vibration    17          0.694              1.670              1.406
 Vibration    18          0.728              1.574              1.163
 Vibration    19          0.734              1.555              1.124
 Vibration    20          0.762              1.482              0.983
 Vibration    21          0.783              1.426              0.891
 Vibration    22          0.795              1.395              0.844
 Vibration    23          0.842              1.282              0.695
 Vibration    24          0.861              1.237              0.644
 Vibration    25          0.972              1.006              0.429

 Optimization completed.
    -- Stationary point found.
 Normal termination of Gaussian 16 at Fri Dec 11 01:52:40 2020.

 ----------------------------------------------------------------------
 # B3LYP/6-311++G(d,p) empiricaldispersion=gd3bj scf=xqc pop=npa geom=c
 heck
 ----------------------------------------------------------------------

 ---------------------------------------
 CID_114475910_JID_6919_Energie_neutraal
 ---------------------------------------
 Structure from the checkpoint file:  "JID_6919.chk"
 Charge =  0 Multiplicity = 1

 SCF Done:  E(RB3LYP) =  -677.531799016     A.U. after   14 cycles
 Normal termination of Gaussian 16 at Fri Dec 11 01:59:03 2020.

 ----------------------------------------------------------------------
 # B3LYP/6-311++G(d,p) empiricaldispersion=gd3bj scf=xqc pop=npa geom=c
 heck
 ----------------------------------------------------------------------

 -------------------------------------
 CID_114475910_JID_6919_Energie_kation
 -------------------------------------
 Structure from the checkpoint file:  "JID_6919.chk"
 Charge =  1 Multiplicity = 2

 SCF Done:  E(UB3LYP) =  -677.252914452     A.U. after   24 cycles
 Normal termination of Gaussian 16 at Fri Dec 11 02:13:37 2020.
 Gaussian 16:  ES64L-G16RevA.03 25-Dec-2016

 ----------------------------------------------------------------------
 # B3LYP/6-311++G(d,p) empiricaldispersion=gd3bj scf=xqc pop=npa geom=c
 heck
 ----------------------------------------------------------------------

 ------------------------------------
 CID_114475910_JID_6919_Energie_anion
 ------------------------------------
 Structure from the checkpoint file:  "JID_6919.chk"
 Charge = -1 Multiplicity = 2

                         Standard orientation:
 ---------------------------------------------------------------------
 Center     Atomic      Atomic             Coordinates (Angstroms)
 Number     Number       Type             X           Y           Z
 ---------------------------------------------------------------------
      1          6           0       -4.008128    0.392753    1.198705
      2          6           0       -4.000519   -0.694235    0.121001
      3          6           0       -2.827328   -0.573686   -0.853576
      4          7           0       -1.552075   -0.707292   -0.154224
      5          6           0       -0.373735   -0.754778   -1.025971
      6          6           0       -0.147544    0.599628   -1.744855
      7          6           0       -0.054749    1.825049   -0.826693
      8          6           0        1.297767    2.210756   -0.263360
      9          6           0        2.454630    1.617591   -0.567039
     10          6           0        1.244890    3.380122    0.689211
     11          6           0        0.814417   -1.202009   -0.228306
     12          6           0        1.243089   -1.046316    1.061517
     13          6           0        2.531763   -1.688231    1.125404
     14          6           0        2.793722   -2.171975   -0.116070
     15          8           0        1.756555   -1.891127   -0.957623
     16          6           0        0.596132   -0.283480    2.177839
     17          1           0       -3.097894    0.351954    1.803742
     18          1           0       -4.870893    0.283985    1.865092
     19          1           0       -4.057588    1.389769    0.744048
     20          1           0       -3.975467   -1.687554    0.593174
     21          1           0       -4.932940   -0.656220   -0.456475
     22          1           0       -2.937223   -1.318769   -1.665421
     23          1           0       -2.862255    0.414128   -1.328654
     24          1           0       -1.567978   -1.565060    0.395633
     25          1           0       -0.503578   -1.502702   -1.832099
     26          1           0        0.744851    0.505965   -2.371951
     27          1           0       -0.981586    0.745743   -2.440841
     28          1           0       -0.435190    2.702657   -1.371596
     29          1           0       -0.756117    1.684100    0.007112
     30          1           0        3.389930    1.963013   -0.134463
     31          1           0        2.522998    0.759958   -1.227033
     32          1           0        0.797860    4.262632    0.210606
     33          1           0        0.615868    3.146046    1.558993
     34          1           0        2.239815    3.655692    1.051563
     35          1           0        3.169518   -1.761173    1.996160
     36          1           0        3.613381   -2.724276   -0.549434
     37          1           0        1.172024    0.624318    2.397544
     38          1           0       -0.418145    0.016146    1.908817
     39          1           0        0.556258   -0.877434    3.099183
 ---------------------------------------------------------------------

 SCF Done:  E(UB3LYP) =  -677.516311397     A.U. after   33 cycles
 SCF Done:  E(UB3LYP) =  -677.516311397     a.u. after    1 cycles

 The electronic state is 2-A.
 Alpha  occ. eigenvalues --  -19.09204 -14.20422 -10.12777 -10.12395 -10.11636
 Alpha  occ. eigenvalues --  -10.09441 -10.08364 -10.08089 -10.07630 -10.07370
 Alpha  occ. eigenvalues --  -10.07087 -10.07073 -10.06912 -10.06730 -10.05792
 Alpha  occ. eigenvalues --  -10.05506  -1.01501  -0.82137  -0.72390  -0.71625
 Alpha  occ. eigenvalues --   -0.69554  -0.66194  -0.64854  -0.61014  -0.58841
 Alpha  occ. eigenvalues --   -0.58347  -0.56264  -0.51287  -0.49921  -0.48332
 Alpha  occ. eigenvalues --   -0.44696  -0.42474  -0.42138  -0.39169  -0.38384
 Alpha  occ. eigenvalues --   -0.37353  -0.36048  -0.35472  -0.34956  -0.33814
 Alpha  occ. eigenvalues --   -0.33743  -0.32074  -0.31337  -0.31235  -0.30762
 Alpha  occ. eigenvalues --   -0.30390  -0.29216  -0.28628  -0.28328  -0.27033
 Alpha  occ. eigenvalues --   -0.26608  -0.25309  -0.25040  -0.24662  -0.23979
 Alpha  occ. eigenvalues --   -0.23750  -0.22728  -0.17994  -0.15441  -0.13703
 Alpha  occ. eigenvalues --   -0.12559   0.04305
 Alpha virt. eigenvalues --    0.06018   0.06475   0.06753   0.07795   0.08165
 Alpha virt. eigenvalues --    0.08372   0.08828   0.09092   0.09634   0.10194
 Alpha virt. eigenvalues --    0.10421   0.10716   0.11213   0.11470   0.12042

  Beta  occ. eigenvalues --  -19.09202 -14.20408 -10.12770 -10.12392 -10.11629
  Beta  occ. eigenvalues --  -10.09420 -10.08363 -10.08089 -10.07622 -10.07360
  Beta  occ. eigenvalues --  -10.07061 -10.07057 -10.06887 -10.06713 -10.05765
  Beta  occ. eigenvalues --  -10.05493  -1.01496  -0.82116  -0.72372  -0.71613
  Beta  occ. eigenvalues --   -0.69528  -0.66161  -0.64832  -0.60987  -0.58803
  Beta  occ. eigenvalues --   -0.58309  -0.56215  -0.51244  -0.49898  -0.48264
  Beta  occ. eigenvalues --   -0.44676  -0.42439  -0.42112  -0.39136  -0.38364
  Beta  occ. eigenvalues --   -0.37319  -0.36016  -0.35443  -0.34928  -0.33788
  Beta  occ. eigenvalues --   -0.33719  -0.32049  -0.31317  -0.31212  -0.30739
  Beta  occ. eigenvalues --   -0.30363  -0.29187  -0.28607  -0.28306  -0.27010
  Beta  occ. eigenvalues --   -0.26574  -0.25278  -0.25019  -0.24626  -0.23946
  Beta  occ. eigenvalues --   -0.23706  -0.22703  -0.17985  -0.15421  -0.13668
  Beta  occ. eigenvalues --   -0.12544
  Beta virt. eigenvalues --    0.06187   0.06792   0.07090   0.07229   0.08289
  Beta virt. eigenvalues --    0.08555   0.08837   0.09060   0.09327   0.09777
  Beta virt. eigenvalues --    0.10571   0.10709   0.11002   0.11450   0.11689

 Mulliken charges and spin densities:
               1          2
     1  C    0.342440  -0.849128
     2  C    0.119299  -0.410054
     3  C    0.196088  -0.443743
     4  N   -0.145814   0.041981
     5  C    0.128884  -0.016360
     6  C   -0.300467   0.107014
     7  C   -1.033552   0.394210
     8  C    0.141936   0.794509
     9  C    0.284601  -1.194705
    10  C    0.744743  -1.306666
    11  C   -0.106278  -0.073852
    12  C   -0.730785   0.789933
    13  C    0.269965  -0.328107
    14  C    0.069666  -0.237871
    15  O    0.000513   0.018921
    16  C    0.435744  -1.235629
    17  H   -0.037493   0.192608
    18  H   -0.342458   0.488788
    19  H   -0.123758   0.252745
    20  H   -0.201994   0.338360
    21  H   -0.255740   0.398932
    22  H   -0.337051   0.471337
    23  H    0.055056   0.078137
    24  H    0.228669  -0.007670
    25  H    0.112825   0.103363
    26  H   -0.003112   0.160209
    27  H   -0.163836   0.346416
    28  H   -0.181509   0.380953
    29  H    0.472741  -0.327448
    30  H   -0.193664   0.319338
    31  H    0.272712  -0.184349
    32  H   -0.088051   0.229049
    33  H   -0.077708   0.231679
    34  H   -0.148181   0.286375
    35  H   -0.353036   0.520197
    36  H   -0.248180   0.413551
    37  H    0.085775   0.101050
    38  H    0.262938  -0.150111
    39  H   -0.151931   0.306040
 Sum of Mulliken charges =  -1.00000   1.00000

 Dipole moment (field-independent basis, Debye):
    X=              3.6048    Y=             -1.4653    Z=             -0.9632  Tot=              4.0087
 Quadrupole moment (field-independent basis, Debye-Ang):
   XX=           -181.0377   YY=           -151.6277   ZZ=           -143.1447
   XY=             -2.3196   XZ=             -1.6953   YZ=              1.5030

 Summary of Natural Population Analysis:

                                       Natural Population
                Natural  -----------------------------------------------
    Atom  No    Charge         Core      Valence    Rydberg      Total
 -----------------------------------------------------------------------
      C    1   -0.28463      0.99966     2.28034    0.00464     3.28463
      C    2   -0.19030      0.99964     2.18299    0.00767     3.19030
      C    3   -0.08453      0.99962     2.07366    0.01125     3.08453
      N    4   -0.34194      0.99973     2.83169    0.01052     3.84194
      C    5   -0.02300      0.99954     2.01054    0.01292     3.02300
      C    6   -0.18845      0.99961     2.17945    0.00939     3.18845
      C    7   -0.21462      0.99957     2.20504    0.01001     3.21462
      C    8    0.00338      0.99954     1.98727    0.00981     2.99662
      C    9   -0.20492      0.99947     2.19704    0.00841     3.20492
      C   10   -0.29769      0.99962     2.29225    0.00583     3.29769
      C   11    0.14992      0.99937     1.83440    0.01631     2.85008
      C   12   -0.05355      0.99945     2.04415    0.00994     3.05355
      C   13   -0.14353      0.99952     2.13502    0.00900     3.14353
      C   14    0.05648      0.99950     1.92994    0.01407     2.94352
      O   15   -0.24012      0.99986     3.23267    0.00759     4.24012
      C   16   -0.29813      0.99962     2.29220    0.00630     3.29813
      H   17    0.10039      0.00000     0.39789    0.00172     0.39961
      H   18    0.09711      0.00000     0.40167    0.00121     0.40289
      H   19    0.09615      0.00000     0.40250    0.00136     0.40385
      H   20    0.09135      0.00000     0.40726    0.00139     0.40865
      H   21    0.09834      0.00000     0.40027    0.00140     0.40166
      H   22    0.08092      0.00000     0.41739    0.00169     0.41908
      H   23    0.09101      0.00000     0.40729    0.00170     0.40899
      H   24    0.17457      0.00000     0.32236    0.00306     0.32543
      H   25    0.09040      0.00000     0.40718    0.00243     0.40960
      H   26    0.10257      0.00000     0.39616    0.00127     0.39743
      H   27    0.10181      0.00000     0.39699    0.00120     0.39819
      H   28    0.10497      0.00000     0.39384    0.00119     0.39503
      H   29    0.11094      0.00000     0.38662    0.00244     0.38906
      H   30    0.09256      0.00000     0.40641    0.00103     0.40744
      H   31    0.09519      0.00000     0.40332    0.00149     0.40481
      H   32    0.10190      0.00000     0.39691    0.00119     0.39810
      H   33    0.10262      0.00000     0.39616    0.00122     0.39738
      H   34    0.10066      0.00000     0.39843    0.00091     0.39934
      H   35    0.10758      0.00000     0.39154    0.00088     0.39242
      H   36    0.09370      0.00000     0.40534    0.00095     0.40630
      H   37    0.10484      0.00000     0.39400    0.00116     0.39516
      H   38    0.11519      0.00000     0.38276    0.00205     0.38481
      H   39    0.10087      0.00000     0.39818    0.00095     0.39913
 =======================================================================
   * Total *   -0.00000     15.99332    44.81912    0.18756    61.00000

 Normal termination of Gaussian 16 at Fri Dec 11 02:33:46 2020.
