 Gaussian 16, Revision A.03,

 -----------------------------------------------------------
 # opt freq B3LYP/6-31G(d) empiricaldispersion=gd3bj scf=xqc
 -----------------------------------------------------------

 -------------------------------
 CID_141785192_JID_6156_neutraal
 -------------------------------
 Symbolic Z-matrix:
 Charge =  0 Multiplicity = 1

 SCF Done:  E(RB3LYP) =  -677.241157547     A.U. after   17 cycles
 SCF Done:  E(RB3LYP) =  -677.270199654     A.U. after   14 cycles
 SCF Done:  E(RB3LYP) =  -677.284843828     A.U. after   14 cycles
 SCF Done:  E(RB3LYP) =  -677.289503929     A.U. after   14 cycles
 SCF Done:  E(RB3LYP) =  -677.291410720     A.U. after   14 cycles
 SCF Done:  E(RB3LYP) =  -677.291730709     A.U. after   13 cycles
 SCF Done:  E(RB3LYP) =  -677.291993743     A.U. after   12 cycles
 SCF Done:  E(RB3LYP) =  -677.292078811     A.U. after   13 cycles
 SCF Done:  E(RB3LYP) =  -677.292267596     A.U. after   12 cycles
 SCF Done:  E(RB3LYP) =  -677.292041020     A.U. after   15 cycles
 SCF Done:  E(RB3LYP) =  -677.294272389     A.U. after   10 cycles
 SCF Done:  E(RB3LYP) =  -677.294273643     A.U. after   10 cycles
 SCF Done:  E(RB3LYP) =  -677.294274731     A.U. after    9 cycles
 SCF Done:  E(RB3LYP) =  -677.294276083     A.U. after   10 cycles
 SCF Done:  E(RB3LYP) =  -677.294276645     A.U. after    8 cycles
 SCF Done:  E(RB3LYP) =  -677.294277036     A.U. after    8 cycles
 Optimization completed.
    -- Stationary point found.
 Normal termination of Gaussian 16 at Thu Dec 10 22:06:58 2020.

 --------------------------------------------------------------------
 #N Geom=AllCheck Guess=TCheck SCRF=Check GenChk RB3LYP/6-31G(d) Freq
 --------------------------------------------------------------------

 Structure from the checkpoint file:  "JID_6156.chk"
 -------------------------------
 CID_141785192_JID_6156_neutraal
 -------------------------------
 Charge =  0 Multiplicity = 1

 SCF Done:  E(RB3LYP) =  -677.294277036     A.U. after    1 cycles

  Exact polarizability: 261.834   3.785 135.141  18.543  14.760 134.742
 Approx polarizability: 399.163   8.119 191.884  38.291  33.572 207.982

                      1                      2                      3
                      A                      A                      A
 Frequencies --     14.7693                23.7800                33.7107
 Red. masses --      3.8734                 3.4979                 1.9501
 Frc consts  --      0.0005                 0.0012                 0.0013
 IR Inten    --      0.0904                 0.2368                 0.2389

                      4                      5                      6
                      A                      A                      A
 Frequencies --     45.3625                50.4719                66.4445
 Red. masses --      3.1237                 4.1040                 3.2557
 Frc consts  --      0.0038                 0.0062                 0.0085
 IR Inten    --      0.3392                 0.9700                 0.6113

                      7                      8                      9
                      A                      A                      A
 Frequencies --     69.2720                85.6416                97.4913
 Red. masses --      1.5854                 3.7584                 4.1840
 Frc consts  --      0.0045                 0.0162                 0.0234
 IR Inten    --      0.2518                 0.4417                 0.8584

                     10                     11                     12
                      A                      A                      A
 Frequencies --    109.9740               116.7873               160.6976
 Red. masses --      1.6505                 5.8557                 3.1907
 Frc consts  --      0.0118                 0.0471                 0.0485
 IR Inten    --      0.0634                 3.4288                 3.3637

                     13                     14                     15
                      A                      A                      A
 Frequencies --    175.8589               229.9719               236.7958
 Red. masses --      3.1773                 2.9336                 1.8771
 Frc consts  --      0.0579                 0.0914                 0.0620
 IR Inten    --      1.3921                 1.5168                 0.3326

                     16                     17                     18
                      A                      A                      A
 Frequencies --    304.5043               319.5659               324.1536
 Red. masses --      2.7891                 3.5350                 1.0295
 Frc consts  --      0.1524                 0.2127                 0.0637
 IR Inten    --      3.5329                 2.8322                 0.3965

                     19                     20                     21
                      A                      A                      A
 Frequencies --    338.8339               355.6210               406.3067
 Red. masses --      1.8525                 2.3220                 1.7413
 Frc consts  --      0.1253                 0.1730                 0.1694
 IR Inten    --      6.7171                 2.5417                10.6046

                     22                     23                     24
                      A                      A                      A
 Frequencies --    426.7399               440.6174               452.9944
 Red. masses --      2.1696                 2.4289                 2.8058
 Frc consts  --      0.2328                 0.2778                 0.3392
 IR Inten    --      2.3586                 5.6481                 0.4320

                     25                     26                     27
                      A                      A                      A
 Frequencies --    491.8063               514.9927               558.9442
 Red. masses --      2.2192                 2.9140                 1.7600
 Frc consts  --      0.3163                 0.4554                 0.3240
 IR Inten    --      1.0957                 2.8061               183.6354

                     28                     29                     30
                      A                      A                      A
 Frequencies --    581.6237               603.6771               607.9255
 Red. masses --      2.0962                 2.2862                 2.4276
 Frc consts  --      0.4178                 0.4909                 0.5286
 IR Inten    --     50.6558                10.4315                24.1176

                     31                     32                     33
                      A                      A                      A
 Frequencies --    801.3586               810.8869               816.8128
 Red. masses --      1.4679                 2.3570                 6.0548
 Frc consts  --      0.5554                 0.9131                 2.3801
 IR Inten    --      0.0576                 0.0138                 7.7876

                     34                     35                     36
                      A                      A                      A
 Frequencies --    833.0209               836.5366               839.2736
 Red. masses --      1.4479                 1.1696                 1.1060
 Frc consts  --      0.5920                 0.4822                 0.4590
 IR Inten    --      6.9241                 1.6007                 4.6376

                     37                     38                     39
                      A                      A                      A
 Frequencies --    854.0316               858.1318               894.2951
 Red. masses --      1.5343                 2.0699                 5.7107
 Frc consts  --      0.6593                 0.8981                 2.6909
 IR Inten    --     10.6144                 2.7266                77.5000

                     40                     41                     42
                      A                      A                      A
 Frequencies --    909.3842               911.2253               938.2079
 Red. masses --      2.0014                 1.7243                 1.5811
 Frc consts  --      0.9752                 0.8436                 0.8200
 IR Inten    --      0.6828                11.3520                 0.2670

                     43                     44                     45
                      A                      A                      A
 Frequencies --    958.2577               967.3613              1003.4176
 Red. masses --      2.6044                 1.5088                 2.3151
 Frc consts  --      1.4090                 0.8319                 1.3734
 IR Inten    --      2.8342                11.6672                18.5193

                     46                     47                     48
                      A                      A                      A
 Frequencies --   1012.2875              1028.9669              1045.4029
 Red. masses --      3.2682                 1.3417                 1.7176
 Frc consts  --      1.9732                 0.8370                 1.1060
 IR Inten    --      0.0533                 1.6675                60.0049

                     49                     50                     51
                      A                      A                      A
 Frequencies --   1047.0756              1061.6178              1068.8069
 Red. masses --      1.7991                 1.6426                 3.1456
 Frc consts  --      1.1621                 1.0908                 2.1172
 IR Inten    --      3.6509                 0.8854               160.3074

                     52                     53                     54
                      A                      A                      A
 Frequencies --   1096.5038              1102.0528              1116.5691
 Red. masses --      1.1085                 2.5424                 2.2098
 Frc consts  --      0.7852                 1.8193                 1.6232
 IR Inten    --      0.1775                 0.1042                 0.2127

                     55                     56                     57
                      A                      A                      A
 Frequencies --   1163.2835              1201.5204              1210.1243
 Red. masses --      1.7637                 1.8566                 1.4094
 Frc consts  --      1.4062                 1.5792                 1.2160
 IR Inten    --      0.4207                 6.8925                 1.4352

                     58                     59                     60
                      A                      A                      A
 Frequencies --   1236.4993              1237.0836              1254.5498
 Red. masses --      1.4624                 1.4596                 1.4734
 Frc consts  --      1.3173                 1.3161                 1.3663
 IR Inten    --      0.2763                 0.3008                26.6222

                     61                     62                     63
                      A                      A                      A
 Frequencies --   1299.5840              1300.2223              1314.9539
 Red. masses --      1.2524                 1.2957                 1.4029
 Frc consts  --      1.2462                 1.2906                 1.4293
 IR Inten    --      7.9469                 4.1141                 4.4907

                     64                     65                     66
                      A                      A                      A
 Frequencies --   1341.1131              1356.4028              1369.1561
 Red. masses --      1.2347                 1.5042                 1.4319
 Frc consts  --      1.3084                 1.6306                 1.5815
 IR Inten    --      0.6124                64.1626                 6.4217

                     67                     68                     69
                      A                      A                      A
 Frequencies --   1374.9388              1387.4361              1399.7023
 Red. masses --      1.3477                 1.3858                 1.4657
 Frc consts  --      1.5011                 1.5717                 1.6919
 IR Inten    --      2.1514                 0.8888                 0.5540

                     70                     71                     72
                      A                      A                      A
 Frequencies --   1403.5960              1416.8616              1433.0378
 Red. masses --      1.4957                 1.5390                 1.1975
 Frc consts  --      1.7362                 1.8203                 1.4489
 IR Inten    --     15.0293                 8.2475                 0.5366

                     73                     74                     75
                      A                      A                      A
 Frequencies --   1448.7380              1453.8448              1473.7661
 Red. masses --      1.2124                 1.2516                 2.0493
 Frc consts  --      1.4993                 1.5586                 2.6224
 IR Inten    --     11.8064                 0.3269                14.6822

                     76                     77                     78
                      A                      A                      A
 Frequencies --   1510.3898              1514.2849              1516.7939
 Red. masses --      1.0864                 1.0918                 1.0967
 Frc consts  --      1.4602                 1.4751                 1.4866
 IR Inten    --      0.1299                 2.4428                 1.8587

                     79                     80                     81
                      A                      A                      A
 Frequencies --   1521.0813              1531.8098              1532.3127
 Red. masses --      1.0818                 1.0272                 1.0253
 Frc consts  --      1.4746                 1.4201                 1.4184
 IR Inten    --     10.3143                 2.4960                 0.4804

                     82                     83                     84
                      A                      A                      A
 Frequencies --   1535.7138              1537.9470              1539.5051
 Red. masses --      1.0912                 1.0617                 1.0567
 Frc consts  --      1.5162                 1.4795                 1.4755
 IR Inten    --      1.5158                 7.4192                11.1334

                     85                     86                     87
                      A                      A                      A
 Frequencies --   1672.2412              1710.2184              1717.2481
 Red. masses --      4.1005                 1.7656                 2.8545
 Frc consts  --      6.7559                 3.0426                 4.9596
 IR Inten    --     49.9919               109.2468               178.8452

                     88                     89                     90
                      A                      A                      A
 Frequencies --   1903.8653              3018.6497              3020.9630
 Red. masses --     12.2849                 1.0696                 1.0710
 Frc consts  --     26.2359                 5.7427                 5.7589
 IR Inten    --    843.2408                22.9213                19.1846

                     91                     92                     93
                      A                      A                      A
 Frequencies --   3023.8708              3025.5512              3029.2424
 Red. masses --      1.0673                 1.0628                 1.0612
 Frc consts  --      5.7498                 5.7321                 5.7373
 IR Inten    --      4.5195                 0.9104                51.8436

                     94                     95                     96
                      A                      A                      A
 Frequencies --   3046.5365              3051.2809              3052.3035
 Red. masses --      1.0394                 1.0406                 1.0729
 Frc consts  --      5.6839                 5.7082                 5.8894
 IR Inten    --     27.1314                32.9841                17.5725

                     97                     98                     99
                      A                      A                      A
 Frequencies --   3072.6075              3073.9776              3074.2782
 Red. masses --      1.0969                 1.0612                 1.0818
 Frc consts  --      6.1012                 5.9080                 6.0242
 IR Inten    --     60.2523                66.7605                41.9039

                    100                    101                    102
                      A                      A                      A
 Frequencies --   3077.1412              3081.3438              3090.4306
 Red. masses --      1.0999                 1.1008                 1.0969
 Frc consts  --      6.1361                 6.1582                 6.1725
 IR Inten    --     23.3061                65.9240                51.2144

                    103                    104                    105
                      A                      A                      A
 Frequencies --   3096.9607              3107.1595              3124.2210
 Red. masses --      1.1004                 1.1012                 1.1019
 Frc consts  --      6.2185                 6.2641                 6.3367
 IR Inten    --      5.9892                 7.0587                55.2894

                    106                    107                    108
                      A                      A                      A
 Frequencies --   3126.6687              3131.9506              3144.5174
 Red. masses --      1.0869                 1.1023                 1.1131
 Frc consts  --      6.2603                 6.3704                 6.4845
 IR Inten    --     37.4204                57.4902                 8.3882

                    109                    110                    111
                      A                      A                      A
 Frequencies --   3219.4280              3552.7497              3657.7963
 Red. masses --      1.0885                 1.0492                 1.0990
 Frc consts  --      6.6471                 7.8025                 8.6630
 IR Inten    --      7.6196                26.5924                21.8847

 - Thermochemistry -
 -------------------
 Temperature   298.150 Kelvin.  Pressure   1.00000 Atm.
 Atom     1 has atomic number  6 and mass  12.00000

 Molecular mass:   221.17796 amu.
 Principal axes and moments of inertia in atomic units:
                           1         2         3
     Eigenvalues --  2406.338777305.852578376.91671
           X            0.99988   0.01568   0.00017
           Y           -0.01567   0.99987  -0.00303
           Z           -0.00022   0.00302   1.00000
 This molecule is an asymmetric top.
 Rotational symmetry number  1.
 Warning -- assumption of classical behavior for rotation
           may cause significant error
 Rotational temperatures (Kelvin)      0.03599     0.01186     0.01034
 Rotational constants (GHZ):           0.74999     0.24703     0.21544
 Zero-point vibrational energy     907823.7 (Joules/Mol)
                                  216.97508 (Kcal/Mol)
 Warning -- explicit consideration of  30 degrees of freedom as
           vibrations may cause significant error
 Vibrational temperatures:     21.25    34.21    48.50    65.27    72.62
          (Kelvin)             95.60    99.67   123.22   140.27   158.23
                              168.03   231.21   253.02   330.88   340.70
                              438.11   459.78   466.38   487.51   511.66
                              584.58   613.98   633.95   651.76   707.60
                              740.96   804.20   836.83   868.56   874.67
                             1152.98  1166.69  1175.21  1198.53  1203.59
                             1207.53  1228.76  1234.66  1286.69  1308.40
                             1311.05  1349.87  1378.72  1391.82  1443.69
                             1456.46  1480.45  1504.10  1506.51  1527.43
                             1537.77  1577.62  1585.61  1606.49  1673.71
                             1728.72  1741.10  1779.05  1779.89  1805.02
                             1869.81  1870.73  1891.93  1929.56  1951.56
                             1969.91  1978.23  1996.21  2013.86  2019.46
                             2038.55  2061.82  2084.41  2091.76  2120.42
                             2173.11  2178.72  2182.33  2188.50  2203.93
                             2204.66  2209.55  2212.76  2215.00  2405.98
                             2460.62  2470.74  2739.24  4343.16  4346.49
                             4350.68  4353.09  4358.40  4383.29  4390.11
                             4391.58  4420.80  4422.77  4423.20  4427.32
                             4433.37  4446.44  4455.84  4470.51  4495.06
                             4498.58  4506.18  4524.26  4632.04  5111.61
                             5262.75

 Zero-point correction=                           0.345772 (Hartree/Particle)
 Thermal correction to Energy=                    0.365289
 Thermal correction to Enthalpy=                  0.366233
 Thermal correction to Gibbs Free Energy=         0.294170
 Sum of electronic and zero-point Energies=           -676.948505
 Sum of electronic and thermal Energies=              -676.928988
 Sum of electronic and thermal Enthalpies=            -676.928044
 Sum of electronic and thermal Free Energies=         -677.000107

                     E (Thermal)             CV                S
                      KCal/Mol        Cal/Mol-Kelvin    Cal/Mol-Kelvin
 Total                  229.222             69.730            151.670
 Electronic               0.000              0.000              0.000
 Translational            0.889              2.981             42.084
 Rotational               0.889              2.981             33.354
 Vibrational            227.445             63.769             76.232
 Vibration     1          0.593              1.986              7.236
 Vibration     2          0.593              1.985              6.291
 Vibration     3          0.594              1.983              5.598
 Vibration     4          0.595              1.979              5.010
 Vibration     5          0.595              1.977              4.799
 Vibration     6          0.598              1.970              4.256
 Vibration     7          0.598              1.969              4.174
 Vibration     8          0.601              1.959              3.757
 Vibration     9          0.603              1.951              3.504
 Vibration    10          0.606              1.941              3.269
 Vibration    11          0.608              1.935              3.153
 Vibration    12          0.622              1.891              2.542
 Vibration    13          0.628              1.872              2.372
 Vibration    14          0.652              1.795              1.879
 Vibration    15          0.656              1.784              1.827
 Vibration    16          0.695              1.665              1.392
 Vibration    17          0.705              1.636              1.312
 Vibration    18          0.709              1.627              1.289
 Vibration    19          0.719              1.598              1.218
 Vibration    20          0.731              1.564              1.141
 Vibration    21          0.771              1.457              0.940
 Vibration    22          0.788              1.412              0.869
 Vibration    23          0.801              1.382              0.825
 Vibration    24          0.812              1.354              0.787
 Vibration    25          0.848              1.268              0.679
 Vibration    26          0.870              1.217              0.622
 Vibration    27          0.915              1.120              0.526
 Vibration    28          0.938              1.071              0.482
 Vibration    29          0.962              1.024              0.443
 Vibration    30          0.967              1.015              0.436

                           ! Non-Optimized Parameters !
 Normal termination of Gaussian 16 at Thu Dec 10 22:20:01 2020.

 ----------------------------------------------------------------------
 # B3LYP/6-311++G(d,p) empiricaldispersion=gd3bj scf=xqc pop=npa geom=c
 heck
 ----------------------------------------------------------------------

 ---------------------------------------
 CID_141785192_JID_6156_Energie_neutraal
 ---------------------------------------
 Structure from the checkpoint file:  "JID_6156.chk"
 Charge =  0 Multiplicity = 1

 SCF Done:  E(RB3LYP) =  -677.489304531     A.U. after   15 cycles
 Normal termination of Gaussian 16 at Thu Dec 10 22:26:12 2020.

 ----------------------------------------------------------------------
 # B3LYP/6-311++G(d,p) empiricaldispersion=gd3bj scf=xqc pop=npa geom=c
 heck
 ----------------------------------------------------------------------

 -------------------------------------
 CID_141785192_JID_6156_Energie_kation
 -------------------------------------
 Structure from the checkpoint file:  "JID_6156.chk"
 Charge =  1 Multiplicity = 2

 SCF Done:  E(UB3LYP) =  -677.212571705     A.U. after   20 cycles
 Normal termination of Gaussian 16 at Thu Dec 10 22:37:42 2020.
 Gaussian 16:  ES64L-G16RevA.03 25-Dec-2016

 ----------------------------------------------------------------------
 # B3LYP/6-311++G(d,p) empiricaldispersion=gd3bj scf=xqc pop=npa geom=c
 heck
 ----------------------------------------------------------------------

 ------------------------------------
 CID_141785192_JID_6156_Energie_anion
 ------------------------------------
 Structure from the checkpoint file:  "JID_6156.chk"
 Charge = -1 Multiplicity = 2

                         Standard orientation:
 ---------------------------------------------------------------------
 Center     Atomic      Atomic             Coordinates (Angstroms)
 Number     Number       Type             X           Y           Z
 ---------------------------------------------------------------------
      1          6           0        0.082473    2.911796   -0.614982
      2          6           0        1.409707    3.420212   -0.048979
      3          6           0       -4.542874   -0.172983    0.518999
      4          6           0       -3.592735   -0.924258    1.460202
      5          6           0       -2.415459   -1.542831    0.695072
      6          6           0       -1.644631   -0.484278   -0.127488
      7          6           0       -2.615119    0.262632   -1.068536
      8          6           0       -3.789399    0.882030   -0.300742
      9          6           0       -0.525314   -1.108952   -0.904798
     10          6           0        0.817311   -1.004327   -0.700596
     11          6           0        1.357657   -0.226732    0.404422
     12          6           0        2.671052   -0.174196    0.680514
     13          6           0        3.790816    0.362816    1.558041
     14          6           0        3.988491   -0.599954    0.415329
     15          8           0        4.744080   -1.296853   -0.230979
     16          7           0        1.741372   -1.586971   -1.568099
     17          1           0       -0.354824    3.633056   -1.314825
     18          1           0       -0.652857    2.740931    0.180848
     19          1           0        0.216155    1.966370   -1.150469
     20          1           0        2.141211    3.587094   -0.847586
     21          1           0        1.280126    4.367408    0.486971
     22          1           0        1.846780    2.697906    0.649150
     23          1           0       -5.354016    0.294870    1.090354
     24          1           0       -5.014552   -0.892214   -0.166484
     25          1           0       -3.203436   -0.223769    2.213683
     26          1           0       -4.134859   -1.704034    2.009313
     27          1           0       -2.788614   -2.319285    0.011150
     28          1           0       -1.723376   -2.040109    1.385161
     29          1           0       -1.251643    0.254690    0.581455
     30          1           0       -3.000705   -0.448398   -1.814363
     31          1           0       -2.068096    1.033842   -1.622290
     32          1           0       -4.471238    1.383296   -0.998724
     33          1           0       -3.406270    1.660612    0.375299
     34          1           0       -0.848571   -1.730275   -1.742580
     35          1           0        0.657993    0.325291    1.022032
     36          1           0        4.092899    1.405922    1.429151
     37          1           0        3.891235    0.005204    2.586516
     38          1           0        1.382753   -2.346737   -2.130466
     39          1           0        2.669796   -1.773889   -1.207518
 ---------------------------------------------------------------------

 SCF Done:  E(UB3LYP) =  -677.524135012     A.U. after   22 cycles

 The electronic state is 2-A.
 Alpha  occ. eigenvalues --  -18.93274 -14.16761 -10.07654 -10.07117 -10.07058
 Alpha  occ. eigenvalues --  -10.06746 -10.06213 -10.05694 -10.05591 -10.05512
 Alpha  occ. eigenvalues --  -10.05142 -10.05119 -10.02454 -10.00883 -10.00648
 Alpha  occ. eigenvalues --  -10.00431  -0.86413  -0.76877  -0.73347  -0.69192
 Alpha  occ. eigenvalues --   -0.65898  -0.64620  -0.64220  -0.60407  -0.55578
 Alpha  occ. eigenvalues --   -0.51101  -0.50806  -0.49990  -0.45428  -0.43377
 Alpha  occ. eigenvalues --   -0.41904  -0.38274  -0.37177  -0.36172  -0.34320
 Alpha  occ. eigenvalues --   -0.34017  -0.32973  -0.32885  -0.31967  -0.30358
 Alpha  occ. eigenvalues --   -0.29784  -0.28534  -0.28159  -0.27933  -0.26931
 Alpha  occ. eigenvalues --   -0.26278  -0.25907  -0.24554  -0.23949  -0.23743
 Alpha  occ. eigenvalues --   -0.23571  -0.23145  -0.21975  -0.21030  -0.20652
 Alpha  occ. eigenvalues --   -0.20075  -0.19599  -0.15557  -0.11769  -0.06709
 Alpha  occ. eigenvalues --   -0.06453   0.02628
 Alpha virt. eigenvalues --    0.06434   0.07806   0.08202   0.08652   0.09692
 Alpha virt. eigenvalues --    0.10201   0.10590   0.10924   0.11416   0.11943
 Alpha virt. eigenvalues --    0.12368   0.12409   0.12896   0.13740   0.14232

  Beta  occ. eigenvalues --  -18.92760 -14.16779 -10.07654 -10.07112 -10.07052
  Beta  occ. eigenvalues --  -10.06429 -10.06300 -10.05677 -10.05571 -10.05531
  Beta  occ. eigenvalues --  -10.05140 -10.05117 -10.02518 -10.00569 -10.00405
  Beta  occ. eigenvalues --  -10.00110  -0.85459  -0.76842  -0.73313  -0.68329
  Beta  occ. eigenvalues --   -0.65728  -0.64613  -0.64196  -0.59917  -0.55019
  Beta  occ. eigenvalues --   -0.51086  -0.50779  -0.49966  -0.45420  -0.42886
  Beta  occ. eigenvalues --   -0.41564  -0.38233  -0.36999  -0.36119  -0.34261
  Beta  occ. eigenvalues --   -0.33997  -0.32970  -0.32851  -0.31789  -0.29301
  Beta  occ. eigenvalues --   -0.29148  -0.28350  -0.28097  -0.27765  -0.26836
  Beta  occ. eigenvalues --   -0.26247  -0.25756  -0.24534  -0.23941  -0.23714
  Beta  occ. eigenvalues --   -0.23435  -0.22842  -0.21539  -0.20965  -0.20030
  Beta  occ. eigenvalues --   -0.19556  -0.18216  -0.15347  -0.10077  -0.06232
  Beta  occ. eigenvalues --   -0.04944
  Beta virt. eigenvalues --    0.06415   0.07769   0.08154   0.08617   0.09319
  Beta virt. eigenvalues --    0.09752   0.10182   0.10583   0.10921   0.11469
  Beta virt. eigenvalues --    0.11945   0.12353   0.12406   0.12903   0.13721

 Mulliken charges and spin densities:
               1          2
     1  C   -0.402166   0.000772
     2  C   -0.540118  -0.015705
     3  C   -0.482211   0.001940
     4  C   -0.223527  -0.002125
     5  C   -0.643499   0.017343
     6  C    0.689396  -0.087247
     7  C   -0.363882   0.020107
     8  C   -0.302068   0.002207
     9  C   -0.764981   0.282518
    10  C   -0.538325  -0.060453
    11  C    0.200634   0.379089
    12  C    0.611831  -0.000132
    13  C   -0.491572  -0.037717
    14  C    0.058310   0.207084
    15  O   -0.465495   0.183894
    16  N   -0.320605  -0.001963
    17  H    0.098778   0.001853
    18  H    0.151925  -0.002627
    19  H    0.227446  -0.001431
    20  H    0.129636  -0.000952
    21  H    0.092749   0.004326
    22  H    0.140034   0.015885
    23  H    0.149991   0.000312
    24  H    0.096572  -0.000005
    25  H    0.117559   0.001770
    26  H    0.144528   0.001936
    27  H    0.121546   0.002464
    28  H    0.176331  -0.001048
    29  H   -0.034493  -0.004553
    30  H    0.137762   0.000860
    31  H    0.165944   0.004093
    32  H    0.139049   0.000726
    33  H    0.103975   0.000037
    34  H    0.107241  -0.020492
    35  H    0.143596  -0.027632
    36  H    0.031192   0.062111
    37  H    0.041134   0.075568
    38  H    0.199990   0.001050
    39  H    0.295793  -0.003861
 Sum of Mulliken charges =  -1.00000   1.00000

 Dipole moment (field-independent basis, Debye):
    X=            -11.3255    Y=              2.2775    Z=              0.2373  Tot=             11.5546
 Quadrupole moment (field-independent basis, Debye-Ang):
   XX=           -176.7393   YY=           -115.8289   ZZ=           -113.3069
   XY=             10.3086   XZ=             -0.5622   YZ=              1.0794

 Summary of Natural Population Analysis:

                                       Natural Population
                Natural  -----------------------------------------------
    Atom  No    Charge         Core      Valence    Rydberg      Total
 -----------------------------------------------------------------------
      C    1   -0.28910      0.99968     2.28488    0.00453     3.28910
      C    2   -0.28717      0.99968     2.28335    0.00414     3.28717
      C    3   -0.18889      0.99964     2.18220    0.00706     3.18889
      C    4   -0.18968      0.99963     2.18284    0.00721     3.18968
      C    5   -0.18139      0.99962     2.17373    0.00805     3.18139
      C    6   -0.12810      0.99958     2.11865    0.00986     3.12810
      C    7   -0.18232      0.99962     2.17477    0.00793     3.18232
      C    8   -0.18922      0.99963     2.18238    0.00720     3.18922
      C    9   -0.06906      0.99950     2.05838    0.01118     3.06906
      C   10    0.06322      0.99946     1.92675    0.01057     2.93678
      C   11   -0.00906      0.99944     2.00242    0.00720     3.00906
      C   12   -0.06610      0.99949     2.05260    0.01401     3.06610
      C   13   -0.25278      0.99965     2.24740    0.00573     3.25278
      C   14    0.30276      0.99953     1.67545    0.02226     2.69724
      O   15   -0.25313      0.99987     3.24652    0.00674     4.25313
      N   16   -0.41261      0.99971     2.90345    0.00945     3.91261
      H   17    0.08622      0.00000     0.41277    0.00101     0.41378
      H   18    0.09149      0.00000     0.40746    0.00106     0.40851
      H   19    0.11085      0.00000     0.38809    0.00105     0.38915
      H   20    0.09366      0.00000     0.40541    0.00093     0.40634
      H   21    0.08498      0.00000     0.41403    0.00100     0.41502
      H   22    0.10829      0.00000     0.39060    0.00111     0.39171
      H   23    0.09175      0.00000     0.40706    0.00119     0.40825
      H   24    0.08922      0.00000     0.40944    0.00135     0.41078
      H   25    0.09104      0.00000     0.40763    0.00133     0.40896
      H   26    0.09201      0.00000     0.40670    0.00130     0.40799
      H   27    0.08892      0.00000     0.40977    0.00131     0.41108
      H   28    0.10220      0.00000     0.39671    0.00109     0.39780
      H   29    0.09720      0.00000     0.40075    0.00204     0.40280
      H   30    0.08849      0.00000     0.41027    0.00124     0.41151
      H   31    0.10239      0.00000     0.39646    0.00115     0.39761
      H   32    0.09183      0.00000     0.40690    0.00127     0.40817
      H   33    0.09125      0.00000     0.40735    0.00140     0.40875
      H   34    0.07695      0.00000     0.42162    0.00143     0.42305
      H   35    0.08453      0.00000     0.41394    0.00153     0.41547
      H   36    0.09767      0.00000     0.39987    0.00247     0.40233
      H   37    0.09629      0.00000     0.40110    0.00261     0.40371
      H   38    0.17437      0.00000     0.32417    0.00145     0.32563
      H   39    0.20102      0.00000     0.29685    0.00213     0.29898
 =======================================================================
   * Total *    0.00000     15.99375    44.83069    0.17556    61.00000

 Normal termination of Gaussian 16 at Thu Dec 10 22:53:20 2020.
