 Gaussian 16, Revision A.03,

 -----------------------------------------------------------
 # opt freq B3LYP/6-31G(d) empiricaldispersion=gd3bj scf=xqc
 -----------------------------------------------------------

 ------------------------------
 CID_141796137_JID_574_neutraal
 ------------------------------
 Symbolic Z-matrix:
 Charge =  0 Multiplicity = 1

 SCF Done:  E(RB3LYP) =  -390.693341419     A.U. after   13 cycles
 SCF Done:  E(RB3LYP) =  -390.694704596     A.U. after   12 cycles
 SCF Done:  E(RB3LYP) =  -390.694717923     A.U. after   11 cycles
 SCF Done:  E(RB3LYP) =  -390.694901512     A.U. after   10 cycles
 SCF Done:  E(RB3LYP) =  -390.694915836     A.U. after   10 cycles
 SCF Done:  E(RB3LYP) =  -390.694920025     A.U. after    9 cycles
 SCF Done:  E(RB3LYP) =  -390.694920933     A.U. after    8 cycles
 SCF Done:  E(RB3LYP) =  -390.694921335     A.U. after    7 cycles
 SCF Done:  E(RB3LYP) =  -390.694921708     A.U. after    7 cycles
 SCF Done:  E(RB3LYP) =  -390.694921860     A.U. after    7 cycles
 SCF Done:  E(RB3LYP) =  -390.694921896     A.U. after    7 cycles
 Optimization completed.
    -- Stationary point found.
 Normal termination of Gaussian 16 at Tue Dec  8 12:25:36 2020.

 --------------------------------------------------------------------
 #N Geom=AllCheck Guess=TCheck SCRF=Check GenChk RB3LYP/6-31G(d) Freq
 --------------------------------------------------------------------

 Structure from the checkpoint file:  "JID_574.chk"
 ------------------------------
 CID_141796137_JID_574_neutraal
 ------------------------------
 Charge =  0 Multiplicity = 1

 SCF Done:  E(RB3LYP) =  -390.694921896     A.U. after    1 cycles

  Exact polarizability: 192.371  22.529 103.305  10.291  -8.284  69.330
 Approx polarizability: 304.959  50.861 146.032  23.709 -11.562  99.374

                      1                      2                      3
                      A                      A                      A
 Frequencies --     40.1390                60.6036               104.8284
 Red. masses --      3.0013                 2.8392                 1.4059
 Frc consts  --      0.0028                 0.0061                 0.0091
 IR Inten    --      0.0671                 0.0316                 0.4154

                      4                      5                      6
                      A                      A                      A
 Frequencies --    106.3593               119.6558               139.8323
 Red. masses --      2.1839                 1.5248                 2.6013
 Frc consts  --      0.0146                 0.0129                 0.0300
 IR Inten    --      0.0956                 0.0765                 0.0922

                      7                      8                      9
                      A                      A                      A
 Frequencies --    172.6003               230.2505               244.9275
 Red. masses --      2.1847                 2.2233                 2.6671
 Frc consts  --      0.0383                 0.0694                 0.0943
 IR Inten    --      0.2512                 0.2670                 0.3314

                     10                     11                     12
                      A                      A                      A
 Frequencies --    275.4990               332.3251               393.7675
 Red. masses --      1.4670                 2.7586                 2.2788
 Frc consts  --      0.0656                 0.1795                 0.2082
 IR Inten    --      0.1550                 3.1236                 2.3722

                     13                     14                     15
                      A                      A                      A
 Frequencies --    430.4347               447.5865               516.2817
 Red. masses --      1.9019                 2.4012                 2.2550
 Frc consts  --      0.2076                 0.2834                 0.3541
 IR Inten    --      0.1179                 1.8999                 2.8665

                     16                     17                     18
                      A                      A                      A
 Frequencies --    544.0097               619.0146               728.6018
 Red. masses --      2.9595                 2.3944                 1.5214
 Frc consts  --      0.5160                 0.5406                 0.4759
 IR Inten    --     11.6793                 6.3927                16.0196

                     19                     20                     21
                      A                      A                      A
 Frequencies --    770.7342               781.7809               830.3937
 Red. masses --      1.4277                 1.8939                 1.9533
 Frc consts  --      0.4997                 0.6820                 0.7936
 IR Inten    --     10.8536                 7.5546                 1.4034

                     22                     23                     24
                      A                      A                      A
 Frequencies --    879.0462               906.4820               915.0657
 Red. masses --      2.5692                 1.3625                 1.3802
 Frc consts  --      1.1697                 0.6597                 0.6809
 IR Inten    --      0.7090                 1.2022                44.3070

                     25                     26                     27
                      A                      A                      A
 Frequencies --    921.2936               939.8669              1001.9246
 Red. masses --      1.4919                 2.5445                 1.1790
 Frc consts  --      0.7461                 1.3243                 0.6973
 IR Inten    --      0.1901                20.7717                 0.0758

                     28                     29                     30
                      A                      A                      A
 Frequencies --   1021.5046              1025.0921              1051.4479
 Red. masses --      1.5472                 1.1287                 1.6373
 Frc consts  --      0.9512                 0.6988                 1.0665
 IR Inten    --      3.1237                12.1633                 0.3209

                     31                     32                     33
                      A                      A                      A
 Frequencies --   1067.6851              1080.7278              1111.7624
 Red. masses --      1.4965                 2.0057                 1.7397
 Frc consts  --      1.0051                 1.3802                 1.2669
 IR Inten    --      0.4602                 0.8889                 2.0309

                     34                     35                     36
                      A                      A                      A
 Frequencies --   1133.9117              1179.3899              1245.4021
 Red. masses --      1.6376                 2.4451                 1.7760
 Frc consts  --      1.2406                 2.0039                 1.6229
 IR Inten    --      2.0038                 2.0165                 4.3995

                     37                     38                     39
                      A                      A                      A
 Frequencies --   1268.9707              1308.9721              1310.0347
 Red. masses --      1.3155                 1.2391                 1.2613
 Frc consts  --      1.2481                 1.2508                 1.2753
 IR Inten    --      0.1141                 0.1660                 3.5186

                     40                     41                     42
                      A                      A                      A
 Frequencies --   1359.7237              1374.4986              1395.6757
 Red. masses --      1.2375                 1.3241                 1.3758
 Frc consts  --      1.3480                 1.4739                 1.5790
 IR Inten    --      0.2045                 0.9099                10.7062

                     43                     44                     45
                      A                      A                      A
 Frequencies --   1405.5993              1440.7815              1445.0229
 Red. masses --      1.4718                 1.2419                 1.2665
 Frc consts  --      1.7133                 1.5189                 1.5582
 IR Inten    --      0.6530                 7.3632                 6.9654

                     46                     47                     48
                      A                      A                      A
 Frequencies --   1461.6998              1489.3106              1510.4309
 Red. masses --      1.4292                 1.4924                 1.0446
 Frc consts  --      1.7992                 1.9503                 1.4041
 IR Inten    --      7.7392                 2.6011                 5.2554

                     49                     50                     51
                      A                      A                      A
 Frequencies --   1516.4888              1518.4691              1526.8836
 Red. masses --      1.0705                 1.0902                 1.0607
 Frc consts  --      1.4505                 1.4810                 1.4570
 IR Inten    --      3.3753                 9.0083                 2.8376

                     52                     53                     54
                      A                      A                      A
 Frequencies --   1534.1971              1538.2298              1643.7467
 Red. masses --      1.0639                 1.0894                 5.1666
 Frc consts  --      1.4754                 1.5187                 8.2248
 IR Inten    --      5.8192                 6.0539                 8.6040

                     55                     56                     57
                      A                      A                      A
 Frequencies --   1698.2749              1712.3225              3032.1456
 Red. masses --      4.0255                 5.1313                 1.0601
 Frc consts  --      6.8405                 8.8644                 5.7426
 IR Inten    --     12.4846                 3.9119                26.4134

                     58                     59                     60
                      A                      A                      A
 Frequencies --   3033.1676              3049.1310              3053.1387
 Red. masses --      1.0415                 1.0381                 1.0653
 Frc consts  --      5.6457                 5.6863                 5.8508
 IR Inten    --     45.8874                26.4731                21.9702

                     61                     62                     63
                      A                      A                      A
 Frequencies --   3066.8951              3073.7620              3096.3678
 Red. masses --      1.0993                 1.0996                 1.0996
 Frc consts  --      6.0918                 6.1213                 6.2117
 IR Inten    --     35.4817                23.4540                23.6916

                     64                     65                     66
                      A                      A                      A
 Frequencies --   3110.8992              3131.2165              3135.2614
 Red. masses --      1.1019                 1.1012                 1.0937
 Frc consts  --      6.2830                 6.3612                 6.3340
 IR Inten    --     45.5353                38.3925                 2.9984

                     67                     68                     69
                      A                      A                      A
 Frequencies --   3155.3821              3165.0714              3172.5450
 Red. masses --      1.0871                 1.0868                 1.0751
 Frc consts  --      6.3772                 6.4144                 6.3754
 IR Inten    --     22.7956                 9.9882                 4.4397

                     70                     71                     72
                      A                      A                      A
 Frequencies --   3181.7915              3193.9398              3256.7077
 Red. masses --      1.0741                 1.0883                 1.1151
 Frc consts  --      6.4069                 6.5413                 6.9679
 IR Inten    --     10.0091                38.3299                20.3671

 - Thermochemistry -
 -------------------
 Temperature   298.150 Kelvin.  Pressure   1.00000 Atm.
 Atom     1 has atomic number  6 and mass  12.00000

 Molecular mass:   136.12520 amu.
 Principal axes and moments of inertia in atomic units:
                           1         2         3
     Eigenvalues --   927.077142708.308533267.17567
           X            0.99999   0.00343  -0.00401
           Y           -0.00349   0.99987  -0.01590
           Z            0.00395   0.01591   0.99987
 This molecule is an asymmetric top.
 Rotational symmetry number  1.
 Warning -- assumption of classical behavior for rotation
           may cause significant error
 Rotational temperatures (Kelvin)      0.09343     0.03198     0.02651
 Rotational constants (GHZ):           1.94670     0.66637     0.55239
 Zero-point vibrational energy     614503.6 (Joules/Mol)
                                  146.86989 (Kcal/Mol)
 Warning -- explicit consideration of  17 degrees of freedom as
           vibrations may cause significant error
 Vibrational temperatures:     57.75    87.20   150.82   153.03   172.16
          (Kelvin)            201.19   248.33   331.28   352.40   396.38
                              478.14   566.54   619.30   643.98   742.81
                              782.71   890.62  1048.30  1108.91  1124.81
                             1194.75  1264.75  1304.23  1316.58  1325.54
                             1352.26  1441.55  1469.72  1474.88  1512.80
                             1536.16  1554.93  1599.58  1631.45  1696.88
                             1791.86  1825.77  1883.32  1884.85  1956.34
                             1977.60  2008.07  2022.34  2072.96  2079.07
                             2103.06  2142.79  2173.17  2181.89  2184.74
                             2196.84  2207.37  2213.17  2364.98  2443.44
                             2463.65  4362.58  4364.05  4387.02  4392.79
                             4412.58  4422.46  4454.98  4475.89  4505.12
                             4510.94  4539.89  4553.83  4564.58  4577.89
                             4595.37  4685.68

 Zero-point correction=                           0.234052 (Hartree/Particle)
 Thermal correction to Energy=                    0.246216
 Thermal correction to Enthalpy=                  0.247160
 Thermal correction to Gibbs Free Energy=         0.195338
 Sum of electronic and zero-point Energies=           -390.460870
 Sum of electronic and thermal Energies=              -390.448706
 Sum of electronic and thermal Enthalpies=            -390.447762
 Sum of electronic and thermal Free Energies=         -390.499584

                     E (Thermal)             CV                S
                      KCal/Mol        Cal/Mol-Kelvin    Cal/Mol-Kelvin
 Total                  154.503             43.919            109.068
 Electronic               0.000              0.000              0.000
 Translational            0.889              2.981             40.637
 Rotational               0.889              2.981             30.485
 Vibrational            152.725             37.957             37.946
 Vibration     1          0.594              1.981              5.252
 Vibration     2          0.597              1.973              4.437
 Vibration     3          0.605              1.945              3.362
 Vibration     4          0.605              1.944              3.334
 Vibration     5          0.609              1.933              3.106
 Vibration     6          0.615              1.913              2.806
 Vibration     7          0.626              1.876              2.407
 Vibration     8          0.652              1.795              1.877
 Vibration     9          0.660              1.771              1.767
 Vibration    10          0.677              1.719              1.561
 Vibration    11          0.714              1.611              1.249
 Vibration    12          0.761              1.483              0.986
 Vibration    13          0.792              1.404              0.857
 Vibration    14          0.807              1.366              0.803
 Vibration    15          0.871              1.214              0.619
 Vibration    16          0.899              1.153              0.557
 Vibration    17          0.979              0.992              0.418

 Optimization completed.
    -- Stationary point found.
 Normal termination of Gaussian 16 at Tue Dec  8 12:39:19 2020.

 ----------------------------------------------------------------------
 # B3LYP/6-311++G(d,p) empiricaldispersion=gd3bj scf=xqc pop=npa geom=c
 heck
 ----------------------------------------------------------------------

 --------------------------------------
 CID_141796137_JID_574_Energie_neutraal
 --------------------------------------
 Structure from the checkpoint file:  "JID_574.chk"
 Charge =  0 Multiplicity = 1

 SCF Done:  E(RB3LYP) =  -390.804511949     A.U. after   14 cycles
 Normal termination of Gaussian 16 at Tue Dec  8 12:44:00 2020.

 ----------------------------------------------------------------------
 # B3LYP/6-311++G(d,p) empiricaldispersion=gd3bj scf=xqc pop=npa geom=c
 heck
 ----------------------------------------------------------------------

 ------------------------------------
 CID_141796137_JID_574_Energie_kation
 ------------------------------------
 Structure from the checkpoint file:  "JID_574.chk"
 Charge =  1 Multiplicity = 2

 SCF Done:  E(UB3LYP) =  -390.530753467     A.U. after   18 cycles
 Normal termination of Gaussian 16 at Tue Dec  8 13:04:43 2020.
 Gaussian 16:  ES64L-G16RevA.03 25-Dec-2016

 ----------------------------------------------------------------------
 # B3LYP/6-311++G(d,p) empiricaldispersion=gd3bj scf=xqc pop=npa geom=c
 heck
 ----------------------------------------------------------------------

 -----------------------------------
 CID_141796137_JID_574_Energie_anion
 -----------------------------------
 Structure from the checkpoint file:  "JID_574.chk"
 Charge = -1 Multiplicity = 2

                         Standard orientation:
 ---------------------------------------------------------------------
 Center     Atomic      Atomic             Coordinates (Angstroms)
 Number     Number       Type             X           Y           Z
 ---------------------------------------------------------------------
      1          6           0        2.696745   -1.188895   -1.106305
      2          6           0        1.872238   -1.739226    0.058672
      3          6           0        1.380789   -0.670046    1.057028
      4          6           0        0.434954    0.346112    0.443462
      5          6           0       -0.873639   -0.003709    0.302437
      6          6           0       -1.943204    0.765069   -0.299186
      7          6           0       -3.231211    0.379834   -0.411855
      8          6           0       -3.851116   -0.904565    0.051806
      9          6           0        0.945545    1.641614    0.004198
     10          6           0        2.210621    2.083940    0.091508
     11          1           0        2.121470   -0.467064   -1.694170
     12          1           0        3.013928   -1.996658   -1.775514
     13          1           0        3.598547   -0.677858   -0.748597
     14          1           0        0.997084   -2.272242   -0.335800
     15          1           0        2.465809   -2.480402    0.610765
     16          1           0        0.861052   -1.181136    1.876497
     17          1           0        2.244109   -0.171060    1.510168
     18          1           0       -1.150567   -0.985288    0.682651
     19          1           0       -1.690577    1.741883   -0.703425
     20          1           0       -3.918142    1.073074   -0.896229
     21          1           0       -4.660099   -0.708255    0.768637
     22          1           0       -4.306266   -1.442517   -0.790977
     23          1           0       -3.136909   -1.578059    0.531450
     24          1           0        0.215687    2.319349   -0.431430
     25          1           0        2.477131    3.074812   -0.263276
     26          1           0        3.017407    1.490657    0.508660
 ---------------------------------------------------------------------

 SCF Done:  E(UB3LYP) =  -390.800526688     A.U. after   29 cycles

 The electronic state is 2-A.
 Alpha  occ. eigenvalues --  -10.03859 -10.03762 -10.03336 -10.02531 -10.01484
 Alpha  occ. eigenvalues --  -10.01378 -10.01126 -10.00656  -9.99926  -9.99641
 Alpha  occ. eigenvalues --   -0.68017  -0.65141  -0.62761  -0.58813  -0.56266
 Alpha  occ. eigenvalues --   -0.52398  -0.46634  -0.44658  -0.40244  -0.35680
 Alpha  occ. eigenvalues --   -0.34328  -0.33096  -0.31044  -0.29452  -0.28664
 Alpha  occ. eigenvalues --   -0.28584  -0.26652  -0.25279  -0.23753  -0.22983
 Alpha  occ. eigenvalues --   -0.22293  -0.21398  -0.20416  -0.19632  -0.17138
 Alpha  occ. eigenvalues --   -0.16545  -0.13272  -0.06123   0.05546
 Alpha virt. eigenvalues --    0.08354   0.08770   0.09863   0.10498   0.10871
 Alpha virt. eigenvalues --    0.11377   0.11897   0.12307   0.13501   0.13734
 Alpha virt. eigenvalues --    0.13898   0.14821   0.15246   0.16002   0.16626

  Beta  occ. eigenvalues --  -10.03881 -10.03737 -10.03335 -10.02541 -10.01519
  Beta  occ. eigenvalues --  -10.01341 -10.00772 -10.00446  -9.99647  -9.99381
  Beta  occ. eigenvalues --   -0.67675  -0.64809  -0.62461  -0.58421  -0.56158
  Beta  occ. eigenvalues --   -0.52189  -0.46302  -0.44131  -0.39903  -0.35447
  Beta  occ. eigenvalues --   -0.34175  -0.33003  -0.30928  -0.29306  -0.28412
  Beta  occ. eigenvalues --   -0.28352  -0.26576  -0.25151  -0.23616  -0.22902
  Beta  occ. eigenvalues --   -0.22067  -0.21205  -0.20294  -0.19541  -0.16398
  Beta  occ. eigenvalues --   -0.16043  -0.11981  -0.04176
  Beta virt. eigenvalues --    0.08308   0.08791   0.09815   0.10247   0.10807
  Beta virt. eigenvalues --    0.11299   0.11509   0.11841   0.12481   0.13504
  Beta virt. eigenvalues --    0.13764   0.13847   0.14792   0.15664   0.16211

 Mulliken charges and spin densities:
               1          2
     1  C   -0.629184   0.023056
     2  C    0.302697  -0.515861
     3  C   -0.189113  -0.140347
     4  C    0.923620   0.163197
     5  C   -0.332085   0.199347
     6  C    0.233472  -0.155618
     7  C   -0.320361   0.315412
     8  C   -0.572120  -0.118943
     9  C   -0.478085   0.103848
    10  C   -0.601805   0.228989
    11  H    0.162946  -0.001969
    12  H    0.056153   0.045511
    13  H    0.138864  -0.022652
    14  H    0.099760   0.001867
    15  H   -0.239694   0.348572
    16  H   -0.133982   0.288466
    17  H   -0.041542   0.166434
    18  H    0.014189  -0.081593
    19  H    0.075775  -0.005540
    20  H    0.107744  -0.009051
    21  H    0.069773   0.043478
    22  H    0.101097   0.008286
    23  H    0.059653   0.092476
    24  H    0.081186   0.013661
    25  H    0.102243  -0.030902
    26  H    0.008803   0.039875
 Sum of Mulliken charges =  -1.00000   1.00000

 Dipole moment (field-independent basis, Debye):
    X=             -0.7875    Y=             -0.8776    Z=             -2.0026  Tot=              2.3240
 Quadrupole moment (field-independent basis, Debye-Ang):
   XX=           -103.0068   YY=            -86.8104   ZZ=            -82.2973
   XY=             -0.5124   XZ=             -2.2645   YZ=              0.3249

 Summary of Natural Population Analysis:

                                       Natural Population
                Natural  -----------------------------------------------
    Atom  No    Charge         Core      Valence    Rydberg      Total
 -----------------------------------------------------------------------
      C    1   -0.28787      0.99967     2.28236    0.00584     3.28787
      C    2   -0.18375      0.99964     2.17554    0.00857     3.18375
      C    3   -0.19816      0.99960     2.18794    0.01062     3.19816
      C    4    0.00230      0.99948     1.98687    0.01134     2.99770
      C    5   -0.06024      0.99948     2.05107    0.00969     3.06024
      C    6   -0.12398      0.99953     2.11589    0.00857     3.12398
      C    7   -0.02984      0.99957     2.02030    0.00997     3.02984
      C    8   -0.30449      0.99966     2.29942    0.00541     3.30449
      C    9   -0.10193      0.99954     2.09198    0.01042     3.10193
      C   10   -0.15494      0.99960     2.14690    0.00844     3.15494
      H   11    0.10565      0.00000     0.39335    0.00100     0.39435
      H   12    0.08864      0.00000     0.41064    0.00072     0.41136
      H   13    0.09351      0.00000     0.40567    0.00082     0.40649
      H   14    0.09167      0.00000     0.40723    0.00111     0.40833
      H   15    0.08674      0.00000     0.41141    0.00186     0.41326
      H   16    0.09960      0.00000     0.39909    0.00131     0.40040
      H   17    0.09574      0.00000     0.40287    0.00139     0.40426
      H   18    0.08060      0.00000     0.41732    0.00207     0.41940
      H   19    0.08868      0.00000     0.41003    0.00128     0.41132
      H   20    0.07529      0.00000     0.42322    0.00149     0.42471
      H   21    0.09509      0.00000     0.40330    0.00161     0.40491
      H   22    0.09461      0.00000     0.40422    0.00118     0.40539
      H   23    0.09958      0.00000     0.39948    0.00094     0.40042
      H   24    0.08581      0.00000     0.41264    0.00155     0.41419
      H   25    0.08080      0.00000     0.41829    0.00091     0.41920
      H   26    0.08089      0.00000     0.41802    0.00109     0.41911
 =======================================================================
   * Total *    0.00000      9.99576    27.89506    0.10918    38.00000

 Normal termination of Gaussian 16 at Tue Dec  8 13:23:37 2020.
