 Gaussian 16, Revision A.03,

 -----------------------------------------------------------
 # opt freq B3LYP/6-31G(d) empiricaldispersion=gd3bj scf=xqc
 -----------------------------------------------------------

 -------------------------------
 CID_130650641_JID_2701_neutraal
 -------------------------------
 Symbolic Z-matrix:
 Charge =  0 Multiplicity = 1

 SCF Done:  E(RB3LYP) =  -517.444040206     A.U. after   14 cycles
 SCF Done:  E(RB3LYP) =  -517.453692773     A.U. after   12 cycles
 SCF Done:  E(RB3LYP) =  -517.454800499     A.U. after   10 cycles
 SCF Done:  E(RB3LYP) =  -517.455291102     A.U. after   12 cycles
 SCF Done:  E(RB3LYP) =  -517.455552379     A.U. after   11 cycles
 SCF Done:  E(RB3LYP) =  -517.455725627     A.U. after   10 cycles
 SCF Done:  E(RB3LYP) =  -517.455810531     A.U. after   10 cycles
 SCF Done:  E(RB3LYP) =  -517.455827658     A.U. after    9 cycles
 SCF Done:  E(RB3LYP) =  -517.455836872     A.U. after    9 cycles
 SCF Done:  E(RB3LYP) =  -517.455841842     A.U. after   10 cycles
 SCF Done:  E(RB3LYP) =  -517.459467306     A.U. after    9 cycles
 SCF Done:  E(RB3LYP) =  -517.459480096     A.U. after    9 cycles
 SCF Done:  E(RB3LYP) =  -517.459484179     A.U. after    8 cycles
 SCF Done:  E(RB3LYP) =  -517.459485102     A.U. after    8 cycles
 SCF Done:  E(RB3LYP) =  -517.459485346     A.U. after    7 cycles
 SCF Done:  E(RB3LYP) =  -517.459485370     A.U. after    6 cycles
 Optimization completed.
    -- Stationary point found.

 1\1\GINC-NODE204\FOpt\RB3LYP\6-31G(d)\C9H17N3\VSC10255\09-Dec-2020\0\\
 # opt freq B3LYP/6-31G(d) empiricaldispersion=gd3bj scf=xqc\\CID_13065
 0641_JID_2701_neutraal\\0,1\C,1.1881077776,0.432274634,-0.3032304238\C
 ,1.4495161349,0.4882528061,1.2076300507\N,1.5466025508,1.8495996002,1.
 6952912505\C,2.6763521548,2.4525900815,1.6521369974\N,3.8805444252,1.9
 85197689,1.0929502879\N,2.8232105364,3.7271376209,2.1792716206\C,1.693
 997285,4.4662523666,2.6648815856\C,1.5314364632,5.9297366912,2.3306996
 988\C,0.5305072961,4.9132686553,1.8118300653\C,0.6385324621,4.85179028

 Normal termination of Gaussian 16 at Wed Dec  9 18:12:02 2020.

 --------------------------------------------------------------------
 #N Geom=AllCheck Guess=TCheck SCRF=Check GenChk RB3LYP/6-31G(d) Freq
 --------------------------------------------------------------------

 Structure from the checkpoint file:  "JID_2701.chk"
 -------------------------------
 CID_130650641_JID_2701_neutraal
 -------------------------------
 Charge =  0 Multiplicity = 1

 SCF Done:  E(RB3LYP) =  -517.459485370     A.U. after    1 cycles

  Exact polarizability: 130.257  -6.684 101.600  -0.943   6.242  96.767
 Approx polarizability: 164.187 -12.022 152.276  -2.906  17.937 145.365

                      1                      2                      3
                      A                      A                      A
 Frequencies --     41.3402                50.9665                91.7006
 Red. masses --      3.3629                 3.0703                 3.9486
 Frc consts  --      0.0034                 0.0047                 0.0196
 IR Inten    --      0.3417                 1.6697                 5.1606

                      4                      5                      6
                      A                      A                      A
 Frequencies --    106.6978               139.4940               190.2315
 Red. masses --      2.8157                 3.4719                 2.6218
 Frc consts  --      0.0189                 0.0398                 0.0559
 IR Inten    --      0.8123                 2.5495                 1.0213

                      7                      8                      9
                      A                      A                      A
 Frequencies --    211.4961               243.4606               270.8960
 Red. masses --      1.7166                 1.1783                 4.5121
 Frc consts  --      0.0452                 0.0412                 0.1951
 IR Inten    --      0.1594                 0.5566                13.3771

                     10                     11                     12
                      A                      A                      A
 Frequencies --    342.9039               365.5756               407.1820
 Red. masses --      1.2129                 2.1280                 2.0656
 Frc consts  --      0.0840                 0.1676                 0.2018
 IR Inten    --     22.7628                12.0044                14.9532

                     13                     14                     15
                      A                      A                      A
 Frequencies --    418.2091               450.8358               481.8829
 Red. masses --      2.7464                 1.5902                 2.9542
 Frc consts  --      0.2830                 0.1904                 0.4042
 IR Inten    --      6.2074                96.4038                13.7529

                     16                     17                     18
                      A                      A                      A
 Frequencies --    571.3222               637.9088               639.8765
 Red. masses --      2.5005                 2.2205                 2.6762
 Frc consts  --      0.4809                 0.5324                 0.6456
 IR Inten    --     17.6672                74.9148                45.0603

                     19                     20                     21
                      A                      A                      A
 Frequencies --    683.8569               745.8940               758.8526
 Red. masses --      2.9316                 2.5985                 2.7483
 Frc consts  --      0.8078                 0.8518                 0.9325
 IR Inten    --      3.7079                 5.1924               109.8286

                     22                     23                     24
                      A                      A                      A
 Frequencies --    770.2934               809.4008               816.8012
 Red. masses --      2.3322                 1.9060                 1.2114
 Frc consts  --      0.8153                 0.7357                 0.4762
 IR Inten    --     18.2840                 6.8842                 1.6130

                     25                     26                     27
                      A                      A                      A
 Frequencies --    822.7374               858.6083               888.2280
 Red. masses --      1.6182                 2.7968                 3.4579
 Frc consts  --      0.6453                 1.2148                 1.6074
 IR Inten    --      3.4970                 5.9533                 0.7036

                     28                     29                     30
                      A                      A                      A
 Frequencies --    897.9613               949.9196               971.3579
 Red. masses --      1.4502                 2.2795                 2.5714
 Frc consts  --      0.6890                 1.2119                 1.4295
 IR Inten    --      1.1441                 0.1429                 7.6713

                     31                     32                     33
                      A                      A                      A
 Frequencies --    989.8908              1040.9346              1044.2772
 Red. masses --      2.0056                 1.6560                 1.8998
 Frc consts  --      1.1579                 1.0572                 1.2207
 IR Inten    --      1.6706                 0.5905                 2.5919

                     34                     35                     36
                      A                      A                      A
 Frequencies --   1071.5592              1094.2616              1099.0571
 Red. masses --      1.5416                 1.8382                 1.6861
 Frc consts  --      1.0429                 1.2969                 1.2000
 IR Inten    --      2.9728                 3.1834                 5.0384

                     37                     38                     39
                      A                      A                      A
 Frequencies --   1115.9654              1121.5832              1143.4167
 Red. masses --      1.5039                 1.5438                 1.8688
 Frc consts  --      1.1035                 1.1442                 1.4395
 IR Inten    --      8.1922                 0.4162                 2.3001

                     40                     41                     42
                      A                      A                      A
 Frequencies --   1168.8273              1195.5506              1203.8971
 Red. masses --      1.7527                 1.3492                 2.2807
 Frc consts  --      1.4108                 1.1362                 1.9476
 IR Inten    --     11.8770                 4.1253                36.0193

                     43                     44                     45
                      A                      A                      A
 Frequencies --   1233.5964              1270.7702              1290.4029
 Red. masses --      1.4182                 1.2404                 1.7315
 Frc consts  --      1.2716                 1.1802                 1.6987
 IR Inten    --      0.3710                 3.2169                 3.5850

                     46                     47                     48
                      A                      A                      A
 Frequencies --   1310.9046              1330.9852              1337.9145
 Red. masses --      1.2446                 1.3418                 1.8830
 Frc consts  --      1.2602                 1.4005                 1.9859
 IR Inten    --     31.8274                 1.2409                 4.3195

                     49                     50                     51
                      A                      A                      A
 Frequencies --   1344.0894              1355.8075              1379.7039
 Red. masses --      1.3262                 1.7010                 1.5591
 Frc consts  --      1.4116                 1.8422                 1.7487
 IR Inten    --      6.8233                35.5225                 1.0345

                     52                     53                     54
                      A                      A                      A
 Frequencies --   1387.2544              1401.1961              1431.1898
 Red. masses --      1.3400                 1.4558                 1.2445
 Frc consts  --      1.5193                 1.6841                 1.5019
 IR Inten    --     60.6379                 4.7129                 7.3464

                     55                     56                     57
                      A                      A                      A
 Frequencies --   1455.6572              1518.7622              1519.7397
 Red. masses --      2.2664                 1.1141                 1.0650
 Frc consts  --      2.8295                 1.5141                 1.4492
 IR Inten    --      3.2965                20.7754                 7.9212

                     58                     59                     60
                      A                      A                      A
 Frequencies --   1525.3381              1529.8736              1541.6934
 Red. masses --      1.1190                 1.0449                 1.6419
 Frc consts  --      1.5339                 1.4409                 2.2992
 IR Inten    --     19.1066                 3.6617               182.4545

                     61                     62                     63
                      A                      A                      A
 Frequencies --   1549.8174              1557.1052              1678.0899
 Red. masses --      1.1240                 1.1120                 1.1894
 Frc consts  --      1.5907                 1.5885                 1.9733
 IR Inten    --     11.1376                19.4451               101.0394

                     64                     65                     66
                      A                      A                      A
 Frequencies --   1752.0426              2919.0899              3031.7416
 Red. masses --      5.2754                 1.0745                 1.0655
 Frc consts  --      9.5411                 5.3943                 5.7703
 IR Inten    --    355.6185               116.1242                51.8696

                     67                     68                     69
                      A                      A                      A
 Frequencies --   3045.3572              3049.6217              3057.3424
 Red. masses --      1.0355                 1.0694                 1.0862
 Frc consts  --      5.6584                 5.8598                 5.9820
 IR Inten    --     27.5362                34.3806                41.5256

                     70                     71                     72
                      A                      A                      A
 Frequencies --   3070.4585              3077.0783              3109.0330
 Red. masses --      1.0991                 1.0623                 1.0983
 Frc consts  --      6.1048                 5.9264                 6.2551
 IR Inten    --     17.8807                43.0774                18.5747

                     73                     74                     75
                      A                      A                      A
 Frequencies --   3112.7173              3123.7832              3124.3431
 Red. masses --      1.1024                 1.1008                 1.1022
 Frc consts  --      6.2933                 6.3288                 6.3392
 IR Inten    --     61.7396                48.6916                29.7847

                     76                     77                     78
                      A                      A                      A
 Frequencies --   3144.7752              3171.1061              3185.6671
 Red. masses --      1.0877                 1.0891                 1.0927
 Frc consts  --      6.3380                 6.4529                 6.5333
 IR Inten    --     18.7568                24.8895                32.4582

                     79                     80                     81
                      A                      A                      A
 Frequencies --   3535.2956              3606.6674              3640.4085
 Red. masses --      1.0501                 1.0756                 1.0945
 Frc consts  --      7.7327                 8.2434                 8.5458
 IR Inten    --      7.8723                13.8418                 8.9985

 - Thermochemistry -
 -------------------
 Temperature   298.150 Kelvin.  Pressure   1.00000 Atm.
 Atom     1 has atomic number  6 and mass  12.00000

 Molecular mass:   167.14225 amu.
 Principal axes and moments of inertia in atomic units:
                           1         2         3
     Eigenvalues --  1099.491953013.492713213.08518
           X            0.99995  -0.00962  -0.00001
           Y            0.00962   0.99994   0.00594
           Z           -0.00004  -0.00594   0.99998
 This molecule is an asymmetric top.
 Rotational symmetry number  1.
 Warning -- assumption of classical behavior for rotation
           may cause significant error
 Rotational temperatures (Kelvin)      0.07878     0.02874     0.02696
 Rotational constants (GHZ):           1.64143     0.59889     0.56168
 Zero-point vibrational energy     685648.8 (Joules/Mol)
                                  163.87400 (Kcal/Mol)
 Warning -- explicit consideration of  16 degrees of freedom as
           vibrations may cause significant error
 Vibrational temperatures:     59.48    73.33   131.94   153.51   200.70
          (Kelvin)            273.70   304.30   350.29   389.76   493.36
                              525.98   585.84   601.71   648.65   693.32
                              822.01   917.81   920.64   983.92  1073.18
                             1091.82  1108.28  1164.55  1175.19  1183.74
                             1235.35  1277.96  1291.97  1366.72  1397.57
                             1424.23  1497.67  1502.48  1541.73  1574.40
                             1581.30  1605.63  1613.71  1645.12  1681.68
                             1720.13  1732.14  1774.87  1828.35  1856.60
                             1886.10  1914.99  1924.96  1933.84  1950.70
                             1985.09  1995.95  2016.01  2059.16  2094.37
                             2185.16  2186.57  2194.62  2201.15  2218.15
                             2229.84  2240.33  2414.40  2520.80  4199.92
                             4362.00  4381.59  4387.73  4398.83  4417.70
                             4427.23  4473.21  4478.51  4494.43  4495.23
                             4524.63  4562.51  4583.46  5086.50  5189.19
                             5237.74

 Zero-point correction=                           0.261150 (Hartree/Particle)
 Thermal correction to Energy=                    0.273471
 Thermal correction to Enthalpy=                  0.274415
 Thermal correction to Gibbs Free Energy=         0.222293
 Sum of electronic and zero-point Energies=           -517.198336
 Sum of electronic and thermal Energies=              -517.186014
 Sum of electronic and thermal Enthalpies=            -517.185070
 Sum of electronic and thermal Free Energies=         -517.237193

                     E (Thermal)             CV                S
                      KCal/Mol        Cal/Mol-Kelvin    Cal/Mol-Kelvin
 Total                  171.606             47.434            109.701
 Electronic               0.000              0.000              0.000
 Translational            0.889              2.981             41.249
 Rotational               0.889              2.981             30.744
 Vibrational            169.828             41.473             37.708
 Vibration     1          0.594              1.981              5.194
 Vibration     2          0.595              1.977              4.780
 Vibration     3          0.602              1.955              3.623
 Vibration     4          0.606              1.944              3.328
 Vibration     5          0.615              1.914              2.811
 Vibration     6          0.634              1.853              2.226
 Vibration     7          0.643              1.823              2.031
 Vibration     8          0.659              1.774              1.777
 Vibration     9          0.675              1.727              1.590
 Vibration    10          0.722              1.590              1.199
 Vibration    11          0.739              1.543              1.098
 Vibration    12          0.772              1.455              0.937
 Vibration    13          0.781              1.431              0.898
 Vibration    14          0.810              1.359              0.793
 Vibration    15          0.838              1.290              0.705
 Vibration    16          0.927              1.093              0.502

                           ! Non-Optimized Parameters !

 1\1\GINC-NODE204\Freq\RB3LYP\6-31G(d)\C9H17N3\VSC10255\09-Dec-2020\0\\
 #N Geom=AllCheck Guess=TCheck SCRF=Check GenChk RB3LYP/6-31G(d) Freq\\
 CID_130650641_JID_2701_neutraal\\0,1\C,1.1881077776,0.432274634,-0.303
 2304238\C,1.4495161349,0.4882528061,1.2076300507\N,1.5466025508,1.8495
 996002,1.6952912505\C,2.6763521548,2.4525900815,1.6521369974\N,3.88054
 44252,1.985197689,1.0929502879\N,2.8232105364,3.7271376209,2.179271620
 6\C,1.693997285,4.4662523666,2.6648815856\C,1.5314364632,5.9297366912,
 2.3306996988\C,0.5305072961,4.9132686553,1.8118300653\C,0.6385324621,4

 Normal termination of Gaussian 16 at Wed Dec  9 18:19:48 2020.

 ----------------------------------------------------------------------
 # B3LYP/6-311++G(d,p) empiricaldispersion=gd3bj scf=xqc pop=npa geom=c
 heck
 ----------------------------------------------------------------------

 ---------------------------------------
 CID_130650641_JID_2701_Energie_neutraal
 ---------------------------------------
 Structure from the checkpoint file:  "JID_2701.chk"
 Charge =  0 Multiplicity = 1

 SCF Done:  E(RB3LYP) =  -517.611157447     A.U. after   13 cycles
 Normal termination of Gaussian 16 at Wed Dec  9 18:22:55 2020.

 ----------------------------------------------------------------------
 # B3LYP/6-311++G(d,p) empiricaldispersion=gd3bj scf=xqc pop=npa geom=c
 heck
 ----------------------------------------------------------------------

 -------------------------------------
 CID_130650641_JID_2701_Energie_kation
 -------------------------------------
 Structure from the checkpoint file:  "JID_2701.chk"
 Charge =  1 Multiplicity = 2

 SCF Done:  E(UB3LYP) =  -517.328309202     A.U. after   22 cycles
 Normal termination of Gaussian 16 at Wed Dec  9 18:29:53 2020.
 Gaussian 16:  ES64L-G16RevA.03 25-Dec-2016

 ------------------------------------
 CID_130650641_JID_2701_Energie_anion
 ------------------------------------
 Structure from the checkpoint file:  "JID_2701.chk"
 Charge = -1 Multiplicity = 2

                         Standard orientation:
 ---------------------------------------------------------------------
 Center     Atomic      Atomic             Coordinates (Angstroms)
 Number     Number       Type             X           Y           Z
 ---------------------------------------------------------------------
      1          6           0       -3.219466    1.392081   -0.422538
      2          6           0       -2.995313    0.296347    0.627838
      3          7           0       -1.592958   -0.036818    0.779184
      4          6           0       -1.068932   -0.912838    0.004730
      5          7           0       -1.672808   -1.571343   -1.082896
      6          7           0        0.249252   -1.311439    0.170317
      7          6           0        1.108818   -0.664328    1.118801
      8          6           0        2.527675   -0.303280    0.749503
      9          6           0        1.517645    0.788221    1.054066
     10          6           0        1.265260    1.587070   -0.214465
     11          6           0        1.849808    0.744380   -1.374648
     12          6           0        2.896662   -0.200984   -0.726955
     13          1           0       -2.626737    2.277401   -0.169803
     14          1           0       -4.275294    1.683942   -0.474076
     15          1           0       -2.905129    1.054140   -1.416835
     16          1           0       -3.359876    0.654764    1.598307
     17          1           0       -3.626745   -0.580095    0.380984
     18          1           0       -1.420499   -2.552026   -1.150254
     19          1           0       -2.678218   -1.458046   -1.116049
     20          1           0        0.695346   -1.665170   -0.664421
     21          1           0        0.975275   -1.037754    2.132203
     22          1           0        3.314856   -0.572015    1.449171
     23          1           0        1.532671    1.324146    1.998788
     24          1           0        0.202590    1.803840   -0.355340
     25          1           0        1.793911    2.545229   -0.134121
     26          1           0        1.054253    0.171070   -1.858413
     27          1           0        2.300253    1.370259   -2.152038
     28          1           0        2.944763   -1.175366   -1.233250
     29          1           0        3.901225    0.232864   -0.799073
 ---------------------------------------------------------------------

 SCF Done:  E(UB3LYP) =  -517.598386271     A.U. after   29 cycles

 The electronic state is 2-A.
 Alpha  occ. eigenvalues --  -14.21344 -14.20990 -14.15829 -10.15277 -10.09722
 Alpha  occ. eigenvalues --  -10.08518 -10.07158 -10.06640 -10.06575 -10.05975
 Alpha  occ. eigenvalues --  -10.05879 -10.05629  -0.87188  -0.80066  -0.75596
 Alpha  occ. eigenvalues --   -0.74503  -0.65809  -0.63628  -0.60516  -0.53733
 Alpha  occ. eigenvalues --   -0.51432  -0.48012  -0.45107  -0.43823  -0.41910
 Alpha  occ. eigenvalues --   -0.40835  -0.39710  -0.36399  -0.35284  -0.33755
 Alpha  occ. eigenvalues --   -0.33136  -0.31614  -0.30273  -0.29983  -0.27816
 Alpha  occ. eigenvalues --   -0.26068  -0.25218  -0.24347  -0.23778  -0.23440
 Alpha  occ. eigenvalues --   -0.23055  -0.19300  -0.17631  -0.14951  -0.13469
 Alpha  occ. eigenvalues --   -0.11101   0.04425
 Alpha virt. eigenvalues --    0.06393   0.07442   0.07950   0.08803   0.09208
 Alpha virt. eigenvalues --    0.09685   0.10167   0.11019   0.11486   0.11759
 Alpha virt. eigenvalues --    0.12102   0.13045   0.13828   0.14393   0.15177

  Beta  occ. eigenvalues --  -14.21317 -14.20920 -14.15827 -10.15271 -10.09717
  Beta  occ. eigenvalues --  -10.08498 -10.07150 -10.06614 -10.06572 -10.05959
  Beta  occ. eigenvalues --  -10.05870 -10.05612  -0.87147  -0.80022  -0.75540
  Beta  occ. eigenvalues --   -0.74446  -0.65777  -0.63593  -0.60477  -0.53683
  Beta  occ. eigenvalues --   -0.51386  -0.47954  -0.45066  -0.43785  -0.41821
  Beta  occ. eigenvalues --   -0.40782  -0.39653  -0.36368  -0.35239  -0.33720
  Beta  occ. eigenvalues --   -0.33116  -0.31577  -0.30241  -0.29952  -0.27788
  Beta  occ. eigenvalues --   -0.26027  -0.25189  -0.24322  -0.23745  -0.23413
  Beta  occ. eigenvalues --   -0.23025  -0.19269  -0.17612  -0.14918  -0.13443
  Beta  occ. eigenvalues --   -0.11082
  Beta virt. eigenvalues --    0.06649   0.07421   0.08256   0.08382   0.09279
  Beta virt. eigenvalues --    0.09733   0.09958   0.10459   0.11234   0.11821
  Beta virt. eigenvalues --    0.12165   0.12445   0.13337   0.14171   0.14565

 Mulliken charges and spin densities:
               1          2
     1  C   -0.038850  -0.352365
     2  C    0.142124  -0.419159
     3  N   -0.114625   0.040430
     4  C    0.908375  -1.122401
     5  N   -0.654782   0.316937
     6  N    0.007593  -0.055787
     7  C   -0.004218  -0.301748
     8  C   -0.188976   0.160779
     9  C   -0.302520   0.325251
    10  C    0.492193  -0.813200
    11  C   -0.891231   0.618759
    12  C    1.348100  -2.039520
    13  H    0.058079   0.075694
    14  H   -0.105928   0.223472
    15  H   -0.058403   0.197000
    16  H    0.052522   0.093734
    17  H   -0.245605   0.333956
    18  H   -0.613556   0.873498
    19  H   -0.121247   0.374989
    20  H    0.179663   0.079111
    21  H    0.059525   0.156678
    22  H   -0.410308   0.620737
    23  H    0.053168   0.151911
    24  H    0.408079  -0.289157
    25  H   -0.194787   0.355550
    26  H   -0.000439   0.178938
    27  H   -0.364339   0.535792
    28  H   -0.345480   0.488332
    29  H   -0.054131   0.191788
 Sum of Mulliken charges =  -1.00000   1.00000

 Dipole moment (field-independent basis, Debye):
    X=              0.2998    Y=              3.5543    Z=              2.7146  Tot=              4.4824
 Quadrupole moment (field-independent basis, Debye-Ang):
   XX=           -137.9814   YY=           -116.8751   ZZ=           -109.3267
   XY=             -7.6500   XZ=             -1.4190   YZ=             -5.9320

 Summary of Natural Population Analysis:

                                       Natural Population
                Natural  -----------------------------------------------
    Atom  No    Charge         Core      Valence    Rydberg      Total
 -----------------------------------------------------------------------
      C    1   -0.28933      0.99966     2.28512    0.00454     3.28933
      C    2   -0.09624      0.99963     2.08424    0.01238     3.09624
      N    3   -0.30775      0.99964     2.79774    0.01037     3.80775
      C    4    0.31259      0.99959     1.67108    0.01674     2.68741
      N    5   -0.41798      0.99972     2.90776    0.01050     3.91798
      N    6   -0.32848      0.99966     2.81587    0.01294     3.82848
      C    7   -0.00902      0.99952     1.99539    0.01410     3.00902
      C    8   -0.11111      0.99957     2.10118    0.01035     3.11111
      C    9   -0.10266      0.99957     2.09290    0.01019     3.10266
      C   10   -0.19524      0.99963     2.18732    0.00830     3.19524
      C   11   -0.19538      0.99964     2.18806    0.00768     3.19538
      C   12   -0.19575      0.99963     2.18779    0.00833     3.19575
      H   13    0.09729      0.00000     0.40139    0.00132     0.40271
      H   14    0.09341      0.00000     0.40545    0.00114     0.40659
      H   15    0.09794      0.00000     0.40079    0.00127     0.40206
      H   16    0.08845      0.00000     0.41021    0.00134     0.41155
      H   17    0.07589      0.00000     0.42198    0.00213     0.42411
      H   18    0.19238      0.00000     0.30006    0.00757     0.30762
      H   19    0.19041      0.00000     0.30566    0.00393     0.30959
      H   20    0.19161      0.00000     0.30454    0.00385     0.30839
      H   21    0.09971      0.00000     0.39910    0.00119     0.40029
      H   22    0.10417      0.00000     0.39469    0.00113     0.39583
      H   23    0.10361      0.00000     0.39541    0.00097     0.39639
      H   24    0.10827      0.00000     0.39037    0.00136     0.39173
      H   25    0.09544      0.00000     0.40347    0.00109     0.40456
      H   26    0.09896      0.00000     0.39946    0.00159     0.40104
      H   27    0.09865      0.00000     0.40037    0.00098     0.40135
      H   28    0.09887      0.00000     0.39957    0.00156     0.40113
      H   29    0.10128      0.00000     0.39723    0.00149     0.39872
 =======================================================================
   * Total *   -0.00000     11.99548    33.84418    0.16035    46.00000

 Normal termination of Gaussian 16 at Wed Dec  9 18:38:24 2020.
