 Gaussian 16, Revision A.03,

 -----------------------------------------------------------
 # opt freq B3LYP/6-31G(d) empiricaldispersion=gd3bj scf=xqc
 -----------------------------------------------------------

 -------------------------------
 CID_148975356_JID_2254_neutraal
 -------------------------------
 Symbolic Z-matrix:
 Charge =  0 Multiplicity = 1

 SCF Done:  E(RB3LYP) =  -862.916216959     A.U. after   14 cycles
 SCF Done:  E(RB3LYP) =  -862.920785452     A.U. after   12 cycles
 SCF Done:  E(RB3LYP) =  -862.921864178     A.U. after   11 cycles
 SCF Done:  E(RB3LYP) =  -862.922265120     A.U. after   12 cycles
 SCF Done:  E(RB3LYP) =  -862.922365594     A.U. after   11 cycles
 SCF Done:  E(RB3LYP) =  -862.922382373     A.U. after    9 cycles
 SCF Done:  E(RB3LYP) =  -862.922387417     A.U. after    9 cycles
 SCF Done:  E(RB3LYP) =  -862.922388631     A.U. after    8 cycles
 SCF Done:  E(RB3LYP) =  -862.922388912     A.U. after    8 cycles
 Optimization completed.
    -- Stationary point found.
 Normal termination of Gaussian 16 at Wed Dec  9 16:54:55 2020.

 --------------------------------------------------------------------
 #N Geom=AllCheck Guess=TCheck SCRF=Check GenChk RB3LYP/6-31G(d) Freq
 --------------------------------------------------------------------

 Structure from the checkpoint file:  "JID_2254.chk"
 -------------------------------
 CID_148975356_JID_2254_neutraal
 -------------------------------
 Charge =  0 Multiplicity = 1

 SCF Done:  E(RB3LYP) =  -862.922388912     A.U. after    1 cycles

  Exact polarizability: 154.527  -0.307 121.880  -6.693   5.118  87.413
 Approx polarizability: 225.316  -2.350 190.034 -17.548  11.917 142.144

                      1                      2                      3
                      A                      A                      A
 Frequencies --     72.1088                88.4372               113.6631
 Red. masses --      2.7679                 3.5834                 3.6528
 Frc consts  --      0.0085                 0.0165                 0.0278
 IR Inten    --      0.1948                 1.9867                 1.3060

                      4                      5                      6
                      A                      A                      A
 Frequencies --    186.1610               244.2801               254.8936
 Red. masses --      3.3819                 1.3644                 3.0700
 Frc consts  --      0.0691                 0.0480                 0.1175
 IR Inten    --      0.4330                 0.4903                 0.1558

                      7                      8                      9
                      A                      A                      A
 Frequencies --    275.2853               314.8425               327.4389
 Red. masses --      1.9859                 3.0060                 1.4483
 Frc consts  --      0.0887                 0.1756                 0.0915
 IR Inten    --      2.6654                 0.2898                58.3848

                     10                     11                     12
                      A                      A                      A
 Frequencies --    346.2100               392.8640               401.5446
 Red. masses --      2.1498                 4.9848                 4.5999
 Frc consts  --      0.1518                 0.4533                 0.4370
 IR Inten    --     28.3540                13.1681                 4.5578

                     13                     14                     15
                      A                      A                      A
 Frequencies --    428.9173               454.2910               475.9571
 Red. masses --      3.8845                 3.3709                 3.7906
 Frc consts  --      0.4211                 0.4099                 0.5059
 IR Inten    --      3.4318                 9.0134                 6.5054

                     16                     17                     18
                      A                      A                      A
 Frequencies --    523.9336               554.8860               606.0293
 Red. masses --      3.0382                 3.2433                 4.3966
 Frc consts  --      0.4914                 0.5884                 0.9514
 IR Inten    --      0.3805                 0.1382                 1.4614

                     19                     20                     21
                      A                      A                      A
 Frequencies --    658.9512               693.2949               722.6269
 Red. masses --      3.3639                 3.4986                 1.5391
 Frc consts  --      0.8606                 0.9908                 0.4735
 IR Inten    --      3.9751                 7.2381                33.7305

                     22                     23                     24
                      A                      A                      A
 Frequencies --    768.9357               875.9393               889.9695
 Red. masses --      2.3847                 1.8546                 1.4412
 Frc consts  --      0.8307                 0.8384                 0.6726
 IR Inten    --     11.6480                 3.3820                 4.7290

                     25                     26                     27
                      A                      A                      A
 Frequencies --    933.9041               949.6148               976.8221
 Red. masses --      1.9961                 3.2511                 1.3323
 Frc consts  --      1.0257                 1.7273                 0.7490
 IR Inten    --      3.2736                 1.8304                 0.6218

                     28                     29                     30
                      A                      A                      A
 Frequencies --    987.4217              1018.3311              1021.9078
 Red. masses --      2.2238                 2.3642                 2.1028
 Frc consts  --      1.2774                 1.4445                 1.2938
 IR Inten    --      9.8707                 1.4840                 9.8610

                     31                     32                     33
                      A                      A                      A
 Frequencies --   1035.2190              1053.3935              1082.5366
 Red. masses --      2.5146                 2.2781                 2.9327
 Frc consts  --      1.5878                 1.4894                 2.0249
 IR Inten    --     14.3117                 2.5689                68.8750

                     34                     35                     36
                      A                      A                      A
 Frequencies --   1091.4633              1123.7545              1134.7524
 Red. masses --      1.8765                 1.9558                 2.4091
 Frc consts  --      1.3171                 1.4552                 1.8277
 IR Inten    --     21.4030                13.7387                18.2288

                     37                     38                     39
                      A                      A                      A
 Frequencies --   1158.0912              1195.9852              1215.2458
 Red. masses --      2.4624                 1.1442                 1.2096
 Frc consts  --      1.9458                 0.9643                 1.0525
 IR Inten    --      2.7845                 0.1810                 5.6076

                     40                     41                     42
                      A                      A                      A
 Frequencies --   1234.8422              1254.3572              1280.0421
 Red. masses --      1.2915                 1.3180                 1.3118
 Frc consts  --      1.1603                 1.2218                 1.2663
 IR Inten    --     14.7849                 3.5207                10.5073

                     43                     44                     45
                      A                      A                      A
 Frequencies --   1328.6003              1334.0264              1356.2761
 Red. masses --      1.2682                 1.3105                 1.2390
 Frc consts  --      1.3189                 1.3741                 1.3429
 IR Inten    --      2.3652                 7.2171                 2.2448

                     46                     47                     48
                      A                      A                      A
 Frequencies --   1364.8337              1379.7811              1388.7934
 Red. masses --      1.5712                 1.4841                 1.4142
 Frc consts  --      1.7245                 1.6647                 1.6071
 IR Inten    --      3.2850                 7.9891                16.2591

                     49                     50                     51
                      A                      A                      A
 Frequencies --   1404.5416              1434.0892              1439.1142
 Red. masses --      1.5099                 1.6274                 1.2271
 Frc consts  --      1.7549                 1.9720                 1.4973
 IR Inten    --      4.2698                 2.4401                21.6972

                     52                     53                     54
                      A                      A                      A
 Frequencies --   1445.3286              1495.7380              1511.8072
 Red. masses --      1.2587                 1.0923                 1.0777
 Frc consts  --      1.5492                 1.4398                 1.4512
 IR Inten    --     30.5529                 3.6278                 2.2712

                     55                     56                     57
                      A                      A                      A
 Frequencies --   1522.4110              1526.2356              1631.2380
 Red. masses --      1.0515                 1.0464                 8.6473
 Frc consts  --      1.4358                 1.4362                13.5570
 IR Inten    --      3.5775                 2.1621                31.3294

                     58                     59                     60
                      A                      A                      A
 Frequencies --   1707.3556              2943.1301              2988.0052
 Red. masses --      5.6570                 1.0795                 1.0735
 Frc consts  --      9.7160                 5.5092                 5.6467
 IR Inten    --      5.9618                24.6989                33.4067

                     61                     62                     63
                      A                      A                      A
 Frequencies --   3020.2992              3047.1596              3079.3004
 Red. masses --      1.0691                 1.0392                 1.0874
 Frc consts  --      5.7460                 5.6850                 6.0748
 IR Inten    --     27.4868                34.1335                 3.9262

                     64                     65                     66
                      A                      A                      A
 Frequencies --   3088.2723              3107.3259              3113.0748
 Red. masses --      1.0856                 1.0944                 1.0876
 Frc consts  --      6.1004                 6.2257                 6.2102
 IR Inten    --     14.1428                28.7975                17.2879

                     67                     68                     69
                      A                      A                      A
 Frequencies --   3116.3602              3139.8464              3175.9406
 Red. masses --      1.0978                 1.1024                 1.0847
 Frc consts  --      6.2813                 6.4033                 6.4462
 IR Inten    --     33.8755                21.9888                 4.6127

                     70                     71                     72
                      A                      A                      A
 Frequencies --   3190.7407              3201.5217              3714.5912
 Red. masses --      1.0911                 1.0974                 1.0657
 Frc consts  --      6.5449                 6.6274                 8.6637
 IR Inten    --     24.6056                33.0701                 7.2861

 - Thermochemistry -
 -------------------
 Temperature   298.150 Kelvin.  Pressure   1.00000 Atm.
 Atom     1 has atomic number  6 and mass  12.00000

 Molecular mass:   182.07654 amu.
 Principal axes and moments of inertia in atomic units:
                           1         2         3
     Eigenvalues --  1608.610112350.434823365.04588
           X            0.99987   0.00243   0.01612
           Y           -0.00218   0.99988  -0.01541
           Z           -0.01615   0.01537   0.99975
 This molecule is an asymmetric top.
 Rotational symmetry number  1.
 Warning -- assumption of classical behavior for rotation
           may cause significant error
 Rotational temperatures (Kelvin)      0.05384     0.03685     0.02574
 Rotational constants (GHZ):           1.12193     0.76783     0.53632
 Zero-point vibrational energy     583866.7 (Joules/Mol)
                                  139.54748 (Kcal/Mol)
 Warning -- explicit consideration of  18 degrees of freedom as
           vibrations may cause significant error
 Vibrational temperatures:    103.75   127.24   163.54   267.84   351.46
          (Kelvin)            366.74   396.07   452.99   471.11   498.12
                              565.24   577.73   617.12   653.62   684.80
                              753.82   798.36   871.94   948.08   997.50
                             1039.70  1106.33  1260.28  1280.47  1343.68
                             1366.28  1405.43  1420.68  1465.15  1470.30
                             1489.45  1515.60  1557.53  1570.37  1616.83
                             1632.66  1666.23  1720.76  1748.47  1776.66
                             1804.74  1841.70  1911.56  1919.37  1951.38
                             1963.69  1985.20  1998.16  2020.82  2063.33
                             2070.56  2079.51  2152.03  2175.15  2190.41
                             2195.91  2346.99  2456.50  4234.51  4299.07
                             4345.54  4384.18  4430.43  4443.34  4470.75
                             4479.02  4483.75  4517.54  4569.47  4590.76
                             4606.28  5344.47

 Zero-point correction=                           0.222383 (Hartree/Particle)
 Thermal correction to Energy=                    0.233740
 Thermal correction to Enthalpy=                  0.234684
 Thermal correction to Gibbs Free Energy=         0.185571
 Sum of electronic and zero-point Energies=           -862.700006
 Sum of electronic and thermal Energies=              -862.688649
 Sum of electronic and thermal Enthalpies=            -862.687705
 Sum of electronic and thermal Free Energies=         -862.736818

                     E (Thermal)             CV                S
                      KCal/Mol        Cal/Mol-Kelvin    Cal/Mol-Kelvin
 Total                  146.674             45.214            103.367
 Electronic               0.000              0.000              0.000
 Translational            0.889              2.981             41.504
 Rotational               0.889              2.981             30.921
 Vibrational            144.897             39.252             30.942
 Vibration     1          0.598              1.967              4.095
 Vibration     2          0.601              1.957              3.694
 Vibration     3          0.607              1.938              3.205
 Vibration     4          0.632              1.859              2.266
 Vibration     5          0.660              1.772              1.771
 Vibration     6          0.665              1.755              1.696
 Vibration     7          0.677              1.719              1.563
 Vibration     8          0.702              1.645              1.337
 Vibration     9          0.711              1.621              1.273
 Vibration    10          0.724              1.583              1.183
 Vibration    11          0.760              1.485              0.989
 Vibration    12          0.767              1.467              0.957
 Vibration    13          0.790              1.407              0.862
 Vibration    14          0.813              1.351              0.783
 Vibration    15          0.833              1.303              0.721
 Vibration    16          0.879              1.197              0.601
 Vibration    17          0.910              1.129              0.534
 Vibration    18          0.965              1.019              0.439

 Optimization completed.
    -- Stationary point found.
 Normal termination of Gaussian 16 at Wed Dec  9 17:01:59 2020.

 ----------------------------------------------------------------------
 # B3LYP/6-311++G(d,p) empiricaldispersion=gd3bj scf=xqc pop=npa geom=c
 heck
 ----------------------------------------------------------------------

 ---------------------------------------
 CID_148975356_JID_2254_Energie_neutraal
 ---------------------------------------
 Structure from the checkpoint file:  "JID_2254.chk"
 Charge =  0 Multiplicity = 1

 SCF Done:  E(RB3LYP) =  -863.084424553     A.U. after   16 cycles
 Normal termination of Gaussian 16 at Wed Dec  9 17:05:32 2020.

 ----------------------------------------------------------------------
 # B3LYP/6-311++G(d,p) empiricaldispersion=gd3bj scf=xqc pop=npa geom=c
 heck
 ----------------------------------------------------------------------

 -------------------------------------
 CID_148975356_JID_2254_Energie_kation
 -------------------------------------
 Structure from the checkpoint file:  "JID_2254.chk"
 Charge =  1 Multiplicity = 2

 SCF Done:  E(UB3LYP) =  -862.814814523     A.U. after   20 cycles
 Normal termination of Gaussian 16 at Wed Dec  9 17:12:13 2020.
 Gaussian 16:  ES64L-G16RevA.03 25-Dec-2016

 ----------------------------------------------------------------------
 # B3LYP/6-311++G(d,p) empiricaldispersion=gd3bj scf=xqc pop=npa geom=c
 heck
 ----------------------------------------------------------------------

 ------------------------------------
 CID_148975356_JID_2254_Energie_anion
 ------------------------------------
 Structure from the checkpoint file:  "JID_2254.chk"
 Charge = -1 Multiplicity = 2

                         Standard orientation:
 ---------------------------------------------------------------------
 Center     Atomic      Atomic             Coordinates (Angstroms)
 Number     Number       Type             X           Y           Z
 ---------------------------------------------------------------------
      1          6           0        2.279240   -0.973683    1.503484
      2          6           0        2.230877   -0.432959    0.072125
      3          6           0        1.925138    1.085711    0.010568
      4          6           0        0.505486    1.478181   -0.430757
      5          6           0       -0.580191    0.602842    0.211930
      6          6           0       -1.993072    1.129372   -0.078271
      7          6           0       -3.052748    0.163277    0.389403
      8          6           0       -2.812392   -1.159004    0.373824
      9          6           0       -1.526524   -1.677677   -0.084005
     10          6           0       -0.466000   -0.855681   -0.223410
     11         16           0        1.046270   -1.413113   -0.956614
     12          8           0        0.289266    2.867024   -0.189319
     13          1           0        2.541519   -2.035376    1.512499
     14          1           0        1.308918   -0.863446    1.998946
     15          1           0        3.026253   -0.424590    2.090535
     16          1           0        3.194460   -0.625762   -0.409299
     17          1           0        2.086537    1.504314    1.014978
     18          1           0        2.633524    1.591095   -0.652996
     19          1           0        0.421244    1.374526   -1.517195
     20          1           0       -0.432583    0.627889    1.308110
     21          1           0       -2.104661    1.294707   -1.164050
     22          1           0       -2.113195    2.111619    0.385972
     23          1           0       -4.026700    0.551657    0.675889
     24          1           0       -3.581232   -1.870657    0.664181
     25          1           0       -1.438140   -2.733557   -0.324717
     26          1           0        0.370722    3.008914    0.768181
 ---------------------------------------------------------------------

 SCF Done:  E(UB3LYP) =  -863.075477581     A.U. after   33 cycles
 SCF Done:  E(UB3LYP) =  -863.075477581     a.u. after    1 cycles

 The electronic state is 2-A.
 Alpha  occ. eigenvalues --  -88.72070 -19.00436 -10.10380 -10.09478 -10.05989
 Alpha  occ. eigenvalues --  -10.05605 -10.05515 -10.05287 -10.04127 -10.03229
 Alpha  occ. eigenvalues --  -10.02871 -10.02568  -7.80689  -5.77045  -5.76712
 Alpha  occ. eigenvalues --   -5.76113  -0.90818  -0.73424  -0.69668  -0.64032
 Alpha  occ. eigenvalues --   -0.63086  -0.59831  -0.56874  -0.51966  -0.48397
 Alpha  occ. eigenvalues --   -0.47385  -0.42807  -0.38407  -0.37106  -0.35895
 Alpha  occ. eigenvalues --   -0.34976  -0.33286  -0.31885  -0.29935  -0.29521
 Alpha  occ. eigenvalues --   -0.28159  -0.26991  -0.26804  -0.25619  -0.24806
 Alpha  occ. eigenvalues --   -0.23518  -0.22302  -0.21202  -0.19932  -0.18195
 Alpha  occ. eigenvalues --   -0.17879  -0.15605  -0.13138  -0.07243   0.05148
 Alpha virt. eigenvalues --    0.07359   0.08599   0.08848   0.09725   0.10234
 Alpha virt. eigenvalues --    0.10647   0.11218   0.12042   0.12466   0.12845
 Alpha virt. eigenvalues --    0.13147   0.13851   0.14895   0.15495   0.15784

  Beta  occ. eigenvalues --  -88.72070 -19.00395 -10.10378 -10.09441 -10.05971
  Beta  occ. eigenvalues --  -10.05524 -10.05370 -10.05269 -10.04131 -10.03233
  Beta  occ. eigenvalues --  -10.02775 -10.02291  -7.80688  -5.77037  -5.76719
  Beta  occ. eigenvalues --   -5.76111  -0.90735  -0.73223  -0.69497  -0.63914
  Beta  occ. eigenvalues --   -0.62790  -0.59727  -0.56699  -0.51892  -0.48309
  Beta  occ. eigenvalues --   -0.47125  -0.42554  -0.38202  -0.36998  -0.35786
  Beta  occ. eigenvalues --   -0.34910  -0.33166  -0.31753  -0.29828  -0.29384
  Beta  occ. eigenvalues --   -0.28065  -0.26874  -0.26707  -0.25524  -0.24607
  Beta  occ. eigenvalues --   -0.23436  -0.22173  -0.20895  -0.19850  -0.17930
  Beta  occ. eigenvalues --   -0.17365  -0.15564  -0.12762  -0.06331
  Beta virt. eigenvalues --    0.07768   0.08537   0.09210   0.09438   0.10302
  Beta virt. eigenvalues --    0.10543   0.10848   0.11399   0.12161   0.12706
  Beta virt. eigenvalues --    0.12914   0.13440   0.13945   0.15143   0.15675

 Mulliken charges and spin densities:
               1          2
     1  C    0.526756  -1.273518
     2  C   -0.625971   0.977517
     3  C   -0.240855  -0.296455
     4  C    0.750988  -1.325714
     5  C   -0.423344   1.233554
     6  C    0.047189  -0.773713
     7  C   -0.440867   0.702030
     8  C   -0.112255  -0.644587
     9  C   -0.453641   0.518916
    10  C    0.634655  -0.442186
    11  S   -0.438545  -0.022461
    12  O   -0.198393   0.011889
    13  H    0.014175   0.121680
    14  H   -0.010516   0.178878
    15  H   -0.321434   0.437460
    16  H    0.253941  -0.002200
    17  H   -0.378947   0.558971
    18  H    0.111033   0.026697
    19  H    0.260574  -0.030055
    20  H   -0.047079   0.241630
    21  H    0.092555   0.019451
    22  H    0.027697   0.113549
    23  H    0.000631   0.132450
    24  H    0.090546   0.016717
    25  H    0.010094   0.134830
    26  H   -0.128988   0.384670
 Sum of Mulliken charges =  -1.00000   1.00000

 Dipole moment (field-independent basis, Debye):
    X=              0.8740    Y=             -1.9915    Z=             -3.5778  Tot=              4.1870
 Quadrupole moment (field-independent basis, Debye-Ang):
   XX=           -111.7632   YY=           -119.9096   ZZ=           -110.2069
   XY=             -2.6248   XZ=             -6.8386   YZ=             -3.9555

 Summary of Natural Population Analysis:

                                       Natural Population
                Natural  -----------------------------------------------
    Atom  No    Charge         Core      Valence    Rydberg      Total
 -----------------------------------------------------------------------
      C    1   -0.28880      0.99963     2.28248    0.00670     3.28880
      C    2   -0.16444      0.99958     2.15143    0.01343     3.16444
      C    3   -0.20319      0.99958     2.19149    0.01212     3.20319
      C    4    0.07130      0.99951     1.91457    0.01462     2.92870
      C    5   -0.13820      0.99952     2.12547    0.01321     3.13820
      C    6   -0.20360      0.99961     2.19370    0.01029     3.20360
      C    7   -0.03753      0.99955     2.02634    0.01164     3.03753
      C    8   -0.12338      0.99953     2.11385    0.01000     3.12338
      C    9   -0.11093      0.99944     2.09948    0.01200     3.11093
      C   10   -0.04705      0.99940     2.03477    0.01288     3.04705
      S   11    0.11266      4.99951     2.86945    0.01838     7.88734
      O   12   -0.37278      0.99990     3.36600    0.00688     4.37278
      H   13    0.09968      0.00000     0.39934    0.00098     0.40032
      H   14    0.10595      0.00000     0.39284    0.00122     0.39405
      H   15    0.09821      0.00000     0.40049    0.00130     0.40179
      H   16    0.09829      0.00000     0.40070    0.00101     0.40171
      H   17    0.10082      0.00000     0.39746    0.00172     0.39918
      H   18    0.10047      0.00000     0.39857    0.00096     0.39953
      H   19    0.08901      0.00000     0.40953    0.00146     0.41099
      H   20    0.10172      0.00000     0.39519    0.00309     0.39828
      H   21    0.10007      0.00000     0.39864    0.00129     0.39993
      H   22    0.10793      0.00000     0.39070    0.00137     0.39207
      H   23    0.08646      0.00000     0.41273    0.00081     0.41354
      H   24    0.09253      0.00000     0.40664    0.00083     0.40747
      H   25    0.09626      0.00000     0.40255    0.00119     0.40374
      H   26    0.22855      0.00000     0.26640    0.00505     0.27145
 =======================================================================
   * Total *    0.00000     15.99475    32.84081    0.16444    49.00000

 Normal termination of Gaussian 16 at Wed Dec  9 17:22:55 2020.
