 Gaussian 16, Revision A.03,

 -----------------------------------------------------------
 # opt freq B3LYP/6-31G(d) empiricaldispersion=gd3bj scf=xqc
 -----------------------------------------------------------

 -----------------------------
 CID_23528914_JID_839_neutraal
 -----------------------------
 Symbolic Z-matrix:
 Charge =  0 Multiplicity = 1

 SCF Done:  E(RB3LYP) =  -389.512562880     A.U. after   14 cycles
 SCF Done:  E(RB3LYP) =  -389.515044614     A.U. after   12 cycles
 SCF Done:  E(RB3LYP) =  -389.515201802     A.U. after   10 cycles
 SCF Done:  E(RB3LYP) =  -389.515221713     A.U. after   10 cycles
 SCF Done:  E(RB3LYP) =  -389.515223677     A.U. after    8 cycles
 SCF Done:  E(RB3LYP) =  -389.515224077     A.U. after    7 cycles
 SCF Done:  E(RB3LYP) =  -389.515224160     A.U. after    7 cycles
 SCF Done:  E(RB3LYP) =  -389.515224205     A.U. after    7 cycles
 Optimization completed.
    -- Stationary point found.
 Normal termination of Gaussian 16 at Tue Dec  8 12:31:04 2020.

 --------------------------------------------------------------------
 #N Geom=AllCheck Guess=TCheck SCRF=Check GenChk RB3LYP/6-31G(d) Freq
 --------------------------------------------------------------------

 Structure from the checkpoint file:  "JID_839.chk"
 -----------------------------
 CID_23528914_JID_839_neutraal
 -----------------------------
 Charge =  0 Multiplicity = 1

 SCF Done:  E(RB3LYP) =  -389.515224205     A.U. after    1 cycles

  Exact polarizability: 129.624  -0.700 107.258   1.401   3.295  67.360
 Approx polarizability: 176.742   1.524 155.336   4.283   7.857 105.922

                      1                      2                      3
                      A                      A                      A
 Frequencies --     70.4144               165.8808               188.2807
 Red. masses --      2.7850                 2.0070                 2.6251
 Frc consts  --      0.0081                 0.0325                 0.0548
 IR Inten    --      0.0647                 0.0260                 1.3660

                      4                      5                      6
                      A                      A                      A
 Frequencies --    256.2683               283.3163               309.6090
 Red. masses --      2.8170                 1.7751                 2.3334
 Frc consts  --      0.1090                 0.0840                 0.1318
 IR Inten    --      0.3599                 0.2655                 0.7770

                      7                      8                      9
                      A                      A                      A
 Frequencies --    412.7413               451.8726               477.8240
 Red. masses --      2.7031                 2.8486                 3.0185
 Frc consts  --      0.2713                 0.3427                 0.4060
 IR Inten    --      1.0651                 0.1643                 0.7141

                     10                     11                     12
                      A                      A                      A
 Frequencies --    499.7915               577.9424               614.6870
 Red. masses --      3.3051                 2.0631                 2.2232
 Frc consts  --      0.4864                 0.4060                 0.4949
 IR Inten    --      4.0719                 0.7455                 0.8110

                     13                     14                     15
                      A                      A                      A
 Frequencies --    637.8456               726.2042               752.4998
 Red. masses --      2.4872                 1.5711                 2.1427
 Frc consts  --      0.5962                 0.4882                 0.7149
 IR Inten    --      0.6104                 2.2321                 0.3814

                     16                     17                     18
                      A                      A                      A
 Frequencies --    815.4935               849.8579               876.0225
 Red. masses --      1.4650                 1.6156                 2.6510
 Frc consts  --      0.5740                 0.6875                 1.1986
 IR Inten    --      4.4043                 6.9131                 0.9827

                     19                     20                     21
                      A                      A                      A
 Frequencies --    889.6458               896.2579               916.4963
 Red. masses --      1.6275                 1.4910                 2.0105
 Frc consts  --      0.7590                 0.7057                 0.9950
 IR Inten    --      4.1619                30.1351                 2.5686

                     22                     23                     24
                      A                      A                      A
 Frequencies --    919.1675               959.8400               993.3745
 Red. masses --      1.5142                 2.2332                 1.9914
 Frc consts  --      0.7538                 1.2122                 1.1578
 IR Inten    --      4.6086                 1.9633                 1.0580

                     25                     26                     27
                      A                      A                      A
 Frequencies --   1011.6809              1061.7956              1074.9090
 Red. masses --      1.5396                 2.7146                 2.5577
 Frc consts  --      0.9284                 1.8032                 1.7412
 IR Inten    --      2.2830                 0.6818                 0.2014

                     28                     29                     30
                      A                      A                      A
 Frequencies --   1096.9390              1105.9461              1121.0167
 Red. masses --      1.5007                 1.8407                 1.8735
 Frc consts  --      1.0639                 1.3264                 1.3872
 IR Inten    --      3.0526                 0.9411                 0.3675

                     31                     32                     33
                      A                      A                      A
 Frequencies --   1161.5374              1198.0352              1211.9284
 Red. masses --      1.3015                 1.4074                 1.4887
 Frc consts  --      1.0346                 1.1902                 1.2883
 IR Inten    --      2.0536                 1.0973                 3.8576

                     34                     35                     36
                      A                      A                      A
 Frequencies --   1255.5518              1281.8449              1293.9364
 Red. masses --      1.3941                 1.5144                 2.0336
 Frc consts  --      1.2948                 1.4661                 2.0061
 IR Inten    --      1.5144                 1.2373                 5.0633

                     37                     38                     39
                      A                      A                      A
 Frequencies --   1322.1479              1328.0791              1335.1530
 Red. masses --      1.3547                 1.3634                 1.3312
 Frc consts  --      1.3952                 1.4168                 1.3982
 IR Inten    --      2.8292                 2.0129                 0.7725

                     40                     41                     42
                      A                      A                      A
 Frequencies --   1350.1424              1382.7131              1392.4683
 Red. masses --      1.3422                 1.4832                 1.4978
 Frc consts  --      1.4415                 1.6708                 1.7111
 IR Inten    --      2.1387                 5.0637                 3.3276

                     43                     44                     45
                      A                      A                      A
 Frequencies --   1402.6298              1407.7893              1469.6975
 Red. masses --      1.4806                 1.7630                 1.2163
 Frc consts  --      1.7162                 2.0586                 1.5479
 IR Inten    --      0.2227                 1.1314                 4.4941

                     46                     47                     48
                      A                      A                      A
 Frequencies --   1504.5423              1507.4598              1518.2221
 Red. masses --      1.0882                 1.0848                 1.0917
 Frc consts  --      1.4513                 1.4524                 1.4826
 IR Inten    --      2.6992                 1.6970                 2.5351

                     49                     50                     51
                      A                      A                      A
 Frequencies --   1526.7055              1529.0346              1717.2349
 Red. masses --      1.1015                 1.0971                 5.8226
 Frc consts  --      1.5126                 1.5112                10.1164
 IR Inten    --      2.4157                 1.3733                11.2415

                     52                     53                     54
                      A                      A                      A
 Frequencies --   1741.6850              2978.8348              3000.4575
 Red. masses --      7.2297                 1.0816                 1.0700
 Frc consts  --     12.9214                 5.6547                 5.6753
 IR Inten    --      4.9574                20.6333                38.3872

                     55                     56                     57
                      A                      A                      A
 Frequencies --   3029.5351              3030.8416              3033.0674
 Red. masses --      1.0698                 1.0712                 1.0710
 Frc consts  --      5.7848                 5.7974                 5.8050
 IR Inten    --     22.0135                24.2117                 3.6504

                     58                     59                     60
                      A                      A                      A
 Frequencies --   3046.2470              3049.2191              3078.4675
 Red. masses --      1.0765                 1.0636                 1.0985
 Frc consts  --      5.8855                 5.8264                 6.1336
 IR Inten    --     61.1146                45.9213                57.5727

                     61                     62                     63
                      A                      A                      A
 Frequencies --   3085.5740              3100.6283              3107.9785
 Red. masses --      1.1029                 1.0927                 1.1024
 Frc consts  --      6.1868                 6.1894                 6.2741
 IR Inten    --     54.8716                32.9202                49.5143

                     64                     65                     66
                      A                      A                      A
 Frequencies --   3154.6027              3160.9527              3236.6080
 Red. masses --      1.0880                 1.0598                 1.1162
 Frc consts  --      6.3793                 6.2387                 6.8892
 IR Inten    --     16.7131                16.6739                13.6004

 - Thermochemistry -
 -------------------
 Temperature   298.150 Kelvin.  Pressure   1.00000 Atm.
 Atom     1 has atomic number  6 and mass  12.00000

 Molecular mass:   134.10955 amu.
 Principal axes and moments of inertia in atomic units:
                           1         2         3
     Eigenvalues --   776.265551566.543752230.14731
           X            0.99999   0.00502  -0.00035
           Y           -0.00502   0.99998   0.00256
           Z            0.00036  -0.00255   1.00000
 This molecule is an asymmetric top.
 Rotational symmetry number  1.
 Warning -- assumption of classical behavior for rotation
           may cause significant error
 Rotational temperatures (Kelvin)      0.11158     0.05529     0.03884
 Rotational constants (GHZ):           2.32490     1.15205     0.80925
 Zero-point vibrational energy     567898.3 (Joules/Mol)
                                  135.73094 (Kcal/Mol)
 Warning -- explicit consideration of  12 degrees of freedom as
           vibrations may cause significant error
 Vibrational temperatures:    101.31   238.67   270.89   368.71   407.63
          (Kelvin)            445.46   593.84   650.14   687.48   719.09
                              831.53   884.40   917.72  1044.85  1082.68
                             1173.31  1222.76  1260.40  1280.00  1289.52
                             1318.63  1322.48  1381.00  1429.24  1455.58
                             1527.69  1546.55  1578.25  1591.21  1612.89
                             1671.19  1723.71  1743.69  1806.46  1844.29
                             1861.69  1902.28  1910.81  1920.99  1942.55
                             1989.42  2003.45  2018.07  2025.49  2114.57
                             2164.70  2168.90  2184.38  2196.59  2199.94
                             2470.72  2505.90  4285.88  4316.99  4358.83
                             4360.71  4363.91  4382.87  4387.15  4429.23
                             4439.45  4461.11  4471.69  4538.77  4547.91
                             4656.76

 Zero-point correction=                           0.216301 (Hartree/Particle)
 Thermal correction to Energy=                    0.224981
 Thermal correction to Enthalpy=                  0.225925
 Thermal correction to Gibbs Free Energy=         0.182939
 Sum of electronic and zero-point Energies=           -389.298923
 Sum of electronic and thermal Energies=              -389.290243
 Sum of electronic and thermal Enthalpies=            -389.289299
 Sum of electronic and thermal Free Energies=         -389.332285

                     E (Thermal)             CV                S
                      KCal/Mol        Cal/Mol-Kelvin    Cal/Mol-Kelvin
 Total                  141.178             35.564             90.471
 Electronic               0.000              0.000              0.000
 Translational            0.889              2.981             40.593
 Rotational               0.889              2.981             29.385
 Vibrational            139.400             29.603             20.494
 Vibration     1          0.598              1.968              4.142
 Vibration     2          0.624              1.884              2.482
 Vibration     3          0.633              1.856              2.245
 Vibration     4          0.666              1.752              1.687
 Vibration     5          0.682              1.705              1.514
 Vibration     6          0.699              1.655              1.364
 Vibration     7          0.777              1.443              0.917
 Vibration     8          0.811              1.357              0.790
 Vibration     9          0.834              1.299              0.716
 Vibration    10          0.855              1.250              0.659
 Vibration    11          0.934              1.079              0.489
 Vibration    12          0.974              1.001              0.425

 Optimization completed.
    -- Stationary point found.
 Normal termination of Gaussian 16 at Tue Dec  8 12:42:48 2020.

 ----------------------------------------------------------------------
 # B3LYP/6-311++G(d,p) empiricaldispersion=gd3bj scf=xqc pop=npa geom=c
 heck
 ----------------------------------------------------------------------

 -------------------------------------
 CID_23528914_JID_839_Energie_neutraal
 -------------------------------------
 Structure from the checkpoint file:  "JID_839.chk"
 Charge =  0 Multiplicity = 1

 SCF Done:  E(RB3LYP) =  -389.616415241     A.U. after   14 cycles
 Normal termination of Gaussian 16 at Tue Dec  8 12:49:40 2020.

 ----------------------------------------------------------------------
 # B3LYP/6-311++G(d,p) empiricaldispersion=gd3bj scf=xqc pop=npa geom=c
 heck
 ----------------------------------------------------------------------

 -----------------------------------
 CID_23528914_JID_839_Energie_kation
 -----------------------------------
 Structure from the checkpoint file:  "JID_839.chk"
 Charge =  1 Multiplicity = 2

 SCF Done:  E(UB3LYP) =  -389.328157259     A.U. after   18 cycles
 Normal termination of Gaussian 16 at Tue Dec  8 13:04:43 2020.
 Gaussian 16:  ES64L-G16RevA.03 25-Dec-2016

 ----------------------------------------------------------------------
 # B3LYP/6-311++G(d,p) empiricaldispersion=gd3bj scf=xqc pop=npa geom=c
 heck
 ----------------------------------------------------------------------

 ----------------------------------
 CID_23528914_JID_839_Energie_anion
 ----------------------------------
 Structure from the checkpoint file:  "JID_839.chk"
 Charge = -1 Multiplicity = 2

                         Standard orientation:
 ---------------------------------------------------------------------
 Center     Atomic      Atomic             Coordinates (Angstroms)
 Number     Number       Type             X           Y           Z
 ---------------------------------------------------------------------
      1          6           0       -2.473942    1.612525   -0.009089
      2          6           0       -1.698511    0.523805   -0.064367
      3          6           0       -2.200280   -0.915817   -0.085682
      4          6           0       -0.963976   -1.754621    0.297676
      5          6           0        0.206524   -0.968444   -0.322444
      6          6           0       -0.220480    0.475626   -0.109300
      7          6           0        0.652188    1.464337    0.127399
      8          6           0        2.144164    1.255382    0.160214
      9          6           0        2.567858   -0.151388   -0.296090
     10          6           0        1.606639   -1.227757    0.229220
     11          1           0       -2.056501    2.615819   -0.022883
     12          1           0       -3.556299    1.536752    0.048674
     13          1           0       -3.057748   -1.072474    0.576397
     14          1           0       -2.526225   -1.178681   -1.102180
     15          1           0       -0.849181   -1.772511    1.389362
     16          1           0       -1.019441   -2.790757   -0.051215
     17          1           0        0.214040   -1.175886   -1.405951
     18          1           0        0.289320    2.465583    0.357911
     19          1           0        2.499260    1.437816    1.187361
     20          1           0        2.644091    2.016403   -0.455745
     21          1           0        2.571354   -0.190198   -1.393763
     22          1           0        3.594937   -0.353871    0.029091
     23          1           0        1.956509   -2.229156   -0.049686
     24          1           0        1.574791   -1.190733    1.327400
 ---------------------------------------------------------------------

 SCF Done:  E(UB3LYP) =  -389.602329290     A.U. after   30 cycles

 The electronic state is 2-A.
 Alpha  occ. eigenvalues --  -10.04473 -10.04201 -10.04181 -10.04114 -10.04012
 Alpha  occ. eigenvalues --  -10.03883 -10.03625 -10.02658 -10.02143 -10.01434
 Alpha  occ. eigenvalues --   -0.72919  -0.67496  -0.63166  -0.59303  -0.58249
 Alpha  occ. eigenvalues --   -0.50619  -0.48181  -0.46033  -0.42169  -0.37552
 Alpha  occ. eigenvalues --   -0.34576  -0.33241  -0.31880  -0.30833  -0.29632
 Alpha  occ. eigenvalues --   -0.28893  -0.25553  -0.25123  -0.24684  -0.22934
 Alpha  occ. eigenvalues --   -0.22660  -0.20811  -0.20047  -0.18633  -0.17181
 Alpha  occ. eigenvalues --   -0.15193  -0.08600   0.05447
 Alpha virt. eigenvalues --    0.08036   0.08852   0.09154   0.09963   0.10469
 Alpha virt. eigenvalues --    0.10729   0.11706   0.11816   0.12777   0.13026
 Alpha virt. eigenvalues --    0.13321   0.14554   0.15168   0.15707   0.17409

  Beta  occ. eigenvalues --  -10.04479 -10.04182 -10.04177 -10.04113 -10.03994
  Beta  occ. eigenvalues --  -10.03860 -10.03533 -10.02629 -10.01934 -10.01298
  Beta  occ. eigenvalues --   -0.72756  -0.67370  -0.62969  -0.59124  -0.58144
  Beta  occ. eigenvalues --   -0.50429  -0.47967  -0.45946  -0.41979  -0.37411
  Beta  occ. eigenvalues --   -0.34457  -0.33090  -0.31754  -0.30742  -0.29531
  Beta  occ. eigenvalues --   -0.28813  -0.25432  -0.25011  -0.24583  -0.22798
  Beta  occ. eigenvalues --   -0.22537  -0.20726  -0.19971  -0.18576  -0.17083
  Beta  occ. eigenvalues --   -0.14568  -0.07610
  Beta virt. eigenvalues --    0.08169   0.09044   0.09293   0.09696   0.10407
  Beta virt. eigenvalues --    0.10721   0.11029   0.11981   0.12161   0.13029
  Beta virt. eigenvalues --    0.13304   0.13437   0.14803   0.15249   0.15932

 Mulliken charges and spin densities:
               1          2
     1  C   -0.726357   0.253636
     2  C    0.302319   0.213887
     3  C   -0.060699  -0.409924
     4  C    0.854657  -1.533795
     5  C   -0.772820   1.351764
     6  C    1.172042  -0.948140
     7  C   -1.018468   1.018449
     8  C    0.942314  -1.799663
     9  C   -1.016864   0.868516
    10  C    0.406713  -0.928630
    11  H    0.006975   0.087036
    12  H    0.087356   0.002893
    13  H    0.196110  -0.063929
    14  H   -0.227323   0.387115
    15  H    0.112640   0.004706
    16  H   -0.247346   0.388613
    17  H   -0.153917   0.334132
    18  H    0.124452  -0.021860
    19  H   -0.017821   0.149556
    20  H   -0.032623   0.159686
    21  H    0.023502   0.104067
    22  H   -0.505216   0.662588
    23  H   -0.438055   0.603302
    24  H   -0.011570   0.115996
 Sum of Mulliken charges =  -1.00000   1.00000

 Dipole moment (field-independent basis, Debye):
    X=             -1.3077    Y=              1.7926    Z=              2.2742  Tot=              3.1774
 Quadrupole moment (field-independent basis, Debye-Ang):
   XX=           -106.4955   YY=            -97.0320   ZZ=            -84.3197
   XY=              5.7110   XZ=             -5.3210   YZ=             -2.7503

 Summary of Natural Population Analysis:

                                       Natural Population
                Natural  -----------------------------------------------
    Atom  No    Charge         Core      Valence    Rydberg      Total
 -----------------------------------------------------------------------
      C    1   -0.18166      0.99951     2.17490    0.00725     3.18166
      C    2    0.00099      0.99951     1.98926    0.01024     2.99901
      C    3   -0.19966      0.99961     2.19177    0.00828     3.19966
      C    4   -0.18131      0.99963     2.17305    0.00863     3.18131
      C    5   -0.11705      0.99956     2.10624    0.01125     3.11705
      C    6   -0.02773      0.99945     2.01741    0.01087     3.02773
      C    7   -0.04290      0.99946     2.03548    0.00795     3.04290
      C    8   -0.20226      0.99963     2.19257    0.01006     3.20226
      C    9   -0.18610      0.99964     2.17832    0.00814     3.18610
      C   10   -0.18488      0.99962     2.17550    0.00976     3.18488
      H   11    0.08881      0.00000     0.41028    0.00091     0.41119
      H   12    0.08511      0.00000     0.41404    0.00085     0.41489
      H   13    0.09654      0.00000     0.40265    0.00081     0.40346
      H   14    0.10230      0.00000     0.39578    0.00192     0.39770
      H   15    0.09034      0.00000     0.40837    0.00129     0.40966
      H   16    0.09844      0.00000     0.40011    0.00145     0.40156
      H   17    0.09943      0.00000     0.39768    0.00288     0.40057
      H   18    0.08847      0.00000     0.41020    0.00134     0.41153
      H   19    0.09664      0.00000     0.40213    0.00123     0.40336
      H   20    0.09662      0.00000     0.40235    0.00103     0.40338
      H   21    0.09366      0.00000     0.40485    0.00149     0.40634
      H   22    0.09578      0.00000     0.40294    0.00128     0.40422
      H   23    0.09862      0.00000     0.39985    0.00153     0.40138
      H   24    0.09179      0.00000     0.40692    0.00129     0.40821
 =======================================================================
   * Total *   -0.00000      9.99562    26.89267    0.11172    37.00000

 Normal termination of Gaussian 16 at Tue Dec  8 13:17:14 2020.
