 Gaussian 16, Revision A.03,

 -----------------------------------------------------------
 # opt freq B3LYP/6-31G(d) empiricaldispersion=gd3bj scf=xqc
 -----------------------------------------------------------

 --------------------------------
 CID_104499845_JID_10070_neutraal
 --------------------------------
 Symbolic Z-matrix:
 Charge =  0 Multiplicity = 1

 SCF Done:  E(RB3LYP) =  -989.129969508     A.U. after   18 cycles
 SCF Done:  E(RB3LYP) =  -989.173913053     A.U. after   15 cycles
 SCF Done:  E(RB3LYP) =  -989.219272108     A.U. after   15 cycles
 SCF Done:  E(RB3LYP) =  -989.230015861     A.U. after   16 cycles
 SCF Done:  E(RB3LYP) =  -989.241825433     A.U. after   16 cycles
 SCF Done:  E(RB3LYP) =  -989.245783201     A.U. after   15 cycles
 SCF Done:  E(RB3LYP) =  -989.248992501     A.U. after   14 cycles
 SCF Done:  E(RB3LYP) =  -989.251420052     A.U. after   13 cycles
 SCF Done:  E(RB3LYP) =  -989.253852234     A.U. after   15 cycles
 SCF Done:  E(RB3LYP) =  -989.255517701     A.U. after   13 cycles
 SCF Done:  E(RB3LYP) =  -989.272189655     A.U. after   12 cycles
 SCF Done:  E(RB3LYP) =  -989.272216359     A.U. after   11 cycles
 SCF Done:  E(RB3LYP) =  -989.272227324     A.U. after   10 cycles
 SCF Done:  E(RB3LYP) =  -989.272228728     A.U. after    9 cycles
 SCF Done:  E(RB3LYP) =  -989.272228963     A.U. after    8 cycles
 SCF Done:  E(RB3LYP) =  -989.272229018     A.U. after    7 cycles
 Optimization completed.
    -- Stationary point found.
 Normal termination of Gaussian 16 at Sun Dec 13 20:58:57 2020.

 --------------------------------------------------------------------
 #N Geom=AllCheck Guess=TCheck SCRF=Check GenChk RB3LYP/6-31G(d) Freq
 --------------------------------------------------------------------

 Structure from the checkpoint file:  "JID_10070.chk"
 --------------------------------
 CID_104499845_JID_10070_neutraal
 --------------------------------
 Charge =  0 Multiplicity = 1

 SCF Done:  E(RB3LYP) =  -989.272229018     A.U. after    1 cycles

  Exact polarizability: 264.610  -3.254 160.520   0.596   4.110  97.117
 Approx polarizability: 357.997  -4.095 270.702 -11.458  22.541 176.174

                      1                      2                      3
                      A                      A                      A
 Frequencies --     29.2990                37.8057                49.0741
 Red. masses --      7.0018                 8.6515                 4.3107
 Frc consts  --      0.0035                 0.0073                 0.0061
 IR Inten    --      0.1131                 0.5349                 0.4160

                      4                      5                      6
                      A                      A                      A
 Frequencies --     88.1883                92.5603               109.3163
 Red. masses --      5.6374                12.2237                 5.9873
 Frc consts  --      0.0258                 0.0617                 0.0422
 IR Inten    --      0.3244                 0.3979                 0.9920

                      7                      8                      9
                      A                      A                      A
 Frequencies --    154.1951               181.8293               214.4501
 Red. masses --      5.1669                10.2101                 3.7158
 Frc consts  --      0.0724                 0.1989                 0.1007
 IR Inten    --      0.1397                 0.2214                 1.6279

                     10                     11                     12
                      A                      A                      A
 Frequencies --    224.3330               240.0944               261.7514
 Red. masses --      4.2902                 7.7697                 3.1265
 Frc consts  --      0.1272                 0.2639                 0.1262
 IR Inten    --      1.1519                 0.5916                 2.5231

                     13                     14                     15
                      A                      A                      A
 Frequencies --    293.1762               319.4158               343.5949
 Red. masses --      2.3683                 3.3872                 6.5703
 Frc consts  --      0.1199                 0.2036                 0.4570
 IR Inten    --      3.0811                 0.5170                 3.6932

                     16                     17                     18
                      A                      A                      A
 Frequencies --    360.1991               384.4708               426.0233
 Red. masses --      2.6261                 6.9357                 4.8241
 Frc consts  --      0.2007                 0.6040                 0.5159
 IR Inten    --      5.6304                 4.1562                10.3364

                     19                     20                     21
                      A                      A                      A
 Frequencies --    460.2391               481.0316               534.3278
 Red. masses --      3.5364                 5.8551                 3.9074
 Frc consts  --      0.4413                 0.7982                 0.6573
 IR Inten    --      3.1498                21.7230                 6.5909

                     22                     23                     24
                      A                      A                      A
 Frequencies --    570.6784               577.5854               601.7835
 Red. masses --      3.8707                 5.3306                 1.6118
 Frc consts  --      0.7427                 1.0477                 0.3439
 IR Inten    --     26.9763                15.1497                39.4067

                     25                     26                     27
                      A                      A                      A
 Frequencies --    608.4995               643.4042               644.3364
 Red. masses --      2.8110                 4.5885                 4.6008
 Frc consts  --      0.6132                 1.1191                 1.1254
 IR Inten    --     13.0096                72.2951                 6.3314

                     28                     29                     30
                      A                      A                      A
 Frequencies --    688.5550               694.0205               723.1148
 Red. masses --      5.5512                 3.4499                 5.0188
 Frc consts  --      1.5507                 0.9790                 1.5462
 IR Inten    --      8.2694                12.1721                29.0285

                     31                     32                     33
                      A                      A                      A
 Frequencies --    755.8400               776.2159               778.8777
 Red. masses --      3.9393                 3.3624                 5.9884
 Frc consts  --      1.3260                 1.1936                 2.1404
 IR Inten    --      2.1322                29.7312                42.2238

                     34                     35                     36
                      A                      A                      A
 Frequencies --    783.4898               797.3633               827.6206
 Red. masses --      2.7077                 5.5863                 2.5164
 Frc consts  --      0.9793                 2.0926                 1.0155
 IR Inten    --      4.3583                14.0345                17.5278

                     37                     38                     39
                      A                      A                      A
 Frequencies --    831.4822               850.4378               863.7889
 Red. masses --      2.5321                 2.4710                 1.7554
 Frc consts  --      1.0314                 1.0529                 0.7717
 IR Inten    --      3.1194                 9.7756                 8.6887

                     40                     41                     42
                      A                      A                      A
 Frequencies --    875.4809               893.9289               920.7720
 Red. masses --      5.3334                 3.6495                 2.0696
 Frc consts  --      2.4085                 1.7183                 1.0338
 IR Inten    --     39.7680                26.8462                 9.2304

                     43                     44                     45
                      A                      A                      A
 Frequencies --    967.1775               975.3961              1004.4528
 Red. masses --      1.3149                 3.9250                 2.3744
 Frc consts  --      0.7247                 2.2001                 1.4114
 IR Inten    --      1.8870                 8.7577                 7.5044

                     46                     47                     48
                      A                      A                      A
 Frequencies --   1019.8704              1037.3740              1067.6768
 Red. masses --      2.1268                 1.8711                 3.8359
 Frc consts  --      1.3034                 1.1864                 2.5763
 IR Inten    --     15.2742                 4.6899                 3.4055

                     49                     50                     51
                      A                      A                      A
 Frequencies --   1079.3540              1085.1378              1113.4859
 Red. masses --      2.1385                 5.3379                 2.5821
 Frc consts  --      1.4679                 3.7033                 1.8863
 IR Inten    --      3.4705                53.0640                25.2935

                     52                     53                     54
                      A                      A                      A
 Frequencies --   1139.4633              1149.6180              1197.4240
 Red. masses --      1.3933                 3.2494                 1.1852
 Frc consts  --      1.0659                 2.5303                 1.0012
 IR Inten    --      9.8719               306.1058                 1.7659

                     55                     56                     57
                      A                      A                      A
 Frequencies --   1204.7100              1208.0915              1232.2190
 Red. masses --      1.2091                 1.2980                 1.9419
 Frc consts  --      1.0339                 1.1162                 1.7372
 IR Inten    --     15.5290                90.9026                22.0874

                     58                     59                     60
                      A                      A                      A
 Frequencies --   1234.7024              1244.4297              1263.6108
 Red. masses --      1.6498                 1.2531                 1.2757
 Frc consts  --      1.4818                 1.1434                 1.2001
 IR Inten    --    174.1328                13.7499                 1.5953

                     61                     62                     63
                      A                      A                      A
 Frequencies --   1298.1174              1317.2807              1331.6671
 Red. masses --      1.4653                 1.5734                 1.5271
 Frc consts  --      1.4548                 1.6086                 1.5955
 IR Inten    --      1.4390                10.8597                 2.8909

                     64                     65                     66
                      A                      A                      A
 Frequencies --   1343.1833              1353.1464              1378.1612
 Red. masses --      1.7762                 1.3049                 2.2810
 Frc consts  --      1.8880                 1.4077                 2.5526
 IR Inten    --     15.1449                13.3752                70.0335

                     67                     68                     69
                      A                      A                      A
 Frequencies --   1387.9816              1396.2671              1412.5716
 Red. masses --      1.4716                 2.7561                 3.2980
 Frc consts  --      1.6704                 3.1658                 3.8773
 IR Inten    --     42.9598               218.6982               156.5520

                     70                     71                     72
                      A                      A                      A
 Frequencies --   1421.9980              1467.5558              1485.1678
 Red. masses --     11.6055                 1.1588                 3.5399
 Frc consts  --     13.8265                 1.4704                 4.6004
 IR Inten    --    266.9320                 7.1772                37.7746

                     73                     74                     75
                      A                      A                      A
 Frequencies --   1503.8883              1525.1064              1534.9899
 Red. masses --      1.0886                 1.1089                 1.1099
 Frc consts  --      1.4507                 1.5196                 1.5408
 IR Inten    --      2.3412                 1.3342                 9.5878

                     76                     77                     78
                      A                      A                      A
 Frequencies --   1538.8780              1569.3996              1593.8702
 Red. masses --      1.1092                 3.2682                 6.9047
 Frc consts  --      1.5476                 4.7427                10.3348
 IR Inten    --     34.6605                79.3826                31.2007

                     79                     80                     81
                      A                      A                      A
 Frequencies --   1651.8784              1677.3054              1731.3194
 Red. masses --     12.2160                 6.9114                 1.0527
 Frc consts  --     19.6397                11.4561                 1.8591
 IR Inten    --    385.5364               383.7062                 4.0393

                     82                     83                     84
                      A                      A                      A
 Frequencies --   1828.9936              2951.2098              3033.8387
 Red. masses --      9.9278                 1.0784                 1.0670
 Frc consts  --     19.5672                 5.5341                 5.7861
 IR Inten    --    339.6872                13.7189                33.8133

                     85                     86                     87
                      A                      A                      A
 Frequencies --   3064.4717              3073.0959              3086.2090
 Red. masses --      1.0581                 1.0631                 1.0885
 Frc consts  --      5.8543                 5.9154                 6.1084
 IR Inten    --     27.8112                19.3533                39.3133

                     88                     89                     90
                      A                      A                      A
 Frequencies --   3100.7948              3108.4615              3131.4387
 Red. masses --      1.0588                 1.0962                 1.1096
 Frc consts  --      5.9980                 6.2409                 6.4105
 IR Inten    --     48.2670                26.3687                15.7287

                     91                     92                     93
                      A                      A                      A
 Frequencies --   3133.7041              3164.5770              3227.8759
 Red. masses --      1.1048                 1.1103                 1.0885
 Frc consts  --      6.3920                 6.5512                 6.6820
 IR Inten    --     22.6823                31.1428                 2.7928

                     94                     95                     96
                      A                      A                      A
 Frequencies --   3247.2410              3266.0748              3697.9018
 Red. masses --      1.0922                 1.0895                 1.0641
 Frc consts  --      6.7856                 6.8475                 8.5730
 IR Inten    --      9.1580                 2.0325                87.8986

 - Thermochemistry -
 -------------------
 Temperature   298.150 Kelvin.  Pressure   1.00000 Atm.
 Atom     1 has atomic number  6 and mass  12.00000

 Molecular mass:   278.09027 amu.
 Principal axes and moments of inertia in atomic units:
                           1         2         3
     Eigenvalues --  2091.85884********************
           X            0.99998  -0.00369   0.00421
           Y            0.00371   0.99999  -0.00374
           Z           -0.00419   0.00376   0.99998
 This molecule is an asymmetric top.
 Rotational symmetry number  1.
 Warning -- assumption of classical behavior for rotation
           may cause significant error
 Rotational temperatures (Kelvin)      0.04141     0.00772     0.00677
 Rotational constants (GHZ):           0.86275     0.16080     0.14109
 Zero-point vibrational energy     707306.8 (Joules/Mol)
                                  169.05039 (Kcal/Mol)
 Warning -- explicit consideration of  25 degrees of freedom as
           vibrations may cause significant error
 Vibrational temperatures:     42.15    54.39    70.61   126.88   133.17
          (Kelvin)            157.28   221.85   261.61   308.55   322.77
                              345.44   376.60   421.82   459.57   494.36
                              518.25   553.17   612.95   662.18   692.10
                              768.78   821.08   831.02   865.83   875.50
                              925.72   927.06   990.68   998.54  1040.40
                             1087.49  1116.80  1120.63  1127.27  1147.23
                             1190.76  1196.32  1223.59  1242.80  1259.62
                             1286.16  1324.79  1391.55  1403.38  1445.18
                             1467.37  1492.55  1536.15  1552.95  1561.27
                             1602.06  1639.43  1654.04  1722.83  1733.31
                             1738.17  1772.89  1776.46  1790.46  1818.05
                             1867.70  1895.27  1915.97  1932.54  1946.88
                             1982.87  1997.00  2008.92  2032.38  2045.94
                             2111.49  2136.83  2163.76  2194.29  2208.51
                             2214.10  2258.02  2293.22  2376.68  2413.27
                             2490.98  2631.51  4246.13  4365.02  4409.09
                             4421.50  4440.37  4461.35  4472.38  4505.44
                             4508.70  4553.12  4644.19  4672.06  4699.15
                             5320.46

 Zero-point correction=                           0.269399 (Hartree/Particle)
 Thermal correction to Energy=                    0.285837
 Thermal correction to Enthalpy=                  0.286781
 Thermal correction to Gibbs Free Energy=         0.224029
 Sum of electronic and zero-point Energies=           -989.002830
 Sum of electronic and thermal Energies=              -988.986392
 Sum of electronic and thermal Enthalpies=            -988.985448
 Sum of electronic and thermal Free Energies=         -989.048200

                     E (Thermal)             CV                S
                      KCal/Mol        Cal/Mol-Kelvin    Cal/Mol-Kelvin
 Total                  179.365             64.466            132.072
 Electronic               0.000              0.000              0.000
 Translational            0.889              2.981             42.767
 Rotational               0.889              2.981             34.062
 Vibrational            177.588             58.505             55.244
 Vibration     1          0.593              1.984              5.876
 Vibration     2          0.594              1.982              5.371
 Vibration     3          0.595              1.978              4.854
 Vibration     4          0.601              1.957              3.700
 Vibration     5          0.602              1.954              3.605
 Vibration     6          0.606              1.942              3.281
 Vibration     7          0.620              1.898              2.620
 Vibration     8          0.630              1.864              2.310
 Vibration     9          0.644              1.819              2.005
 Vibration    10          0.649              1.804              1.924
 Vibration    11          0.657              1.779              1.802
 Vibration    12          0.669              1.743              1.650
 Vibration    13          0.688              1.686              1.456
 Vibration    14          0.705              1.636              1.313
 Vibration    15          0.722              1.588              1.195
 Vibration    16          0.735              1.554              1.121
 Vibration    17          0.753              1.503              1.022
 Vibration    18          0.788              1.414              0.872
 Vibration    19          0.818              1.338              0.765
 Vibration    20          0.837              1.292              0.707
 Vibration    21          0.889              1.174              0.578
 Vibration    22          0.927              1.095              0.503
 Vibration    23          0.934              1.080              0.490
 Vibration    24          0.960              1.028              0.447
 Vibration    25          0.967              1.014              0.435

                           ! Non-Optimized Parameters !
 Normal termination of Gaussian 16 at Sun Dec 13 21:15:03 2020.

 ----------------------------------------------------------------------
 # B3LYP/6-311++G(d,p) empiricaldispersion=gd3bj scf=xqc pop=npa geom=c
 heck
 ----------------------------------------------------------------------

 ----------------------------------------
 CID_104499845_JID_10070_Energie_neutraal
 ----------------------------------------
 Structure from the checkpoint file:  "JID_10070.chk"
 Charge =  0 Multiplicity = 1

 SCF Done:  E(RB3LYP) =  -989.556936348     A.U. after   16 cycles
 Normal termination of Gaussian 16 at Sun Dec 13 21:21:07 2020.

 ----------------------------------------------------------------------
 # B3LYP/6-311++G(d,p) empiricaldispersion=gd3bj scf=xqc pop=npa geom=c
 heck
 ----------------------------------------------------------------------

 --------------------------------------
 CID_104499845_JID_10070_Energie_kation
 --------------------------------------
 Structure from the checkpoint file:  "JID_10070.chk"
 Charge =  1 Multiplicity = 2

 SCF Done:  E(UB3LYP) =  -989.271829561     A.U. after   24 cycles
 Normal termination of Gaussian 16 at Sun Dec 13 21:33:37 2020.
 Gaussian 16:  ES64L-G16RevA.03 25-Dec-2016

 ----------------------------------------------------------------------
 # B3LYP/6-311++G(d,p) empiricaldispersion=gd3bj scf=xqc pop=npa geom=c
 heck
 ----------------------------------------------------------------------

 -------------------------------------
 CID_104499845_JID_10070_Energie_anion
 -------------------------------------
 Structure from the checkpoint file:  "JID_10070.chk"
 Charge = -1 Multiplicity = 2

                         Standard orientation:
 ---------------------------------------------------------------------
 Center     Atomic      Atomic             Coordinates (Angstroms)
 Number     Number       Type             X           Y           Z
 ---------------------------------------------------------------------
      1          6           0       -5.239497   -0.655080   -0.392203
      2          6           0       -5.108279    0.929011   -0.606025
      3          6           0       -3.623894    0.894888   -0.211390
      4          6           0       -2.160988    1.273242   -0.119051
      5          7           0       -1.622909   -0.150084   -0.009104
      6          6           0       -2.543956   -1.356993    0.038720
      7          6           0       -4.010892   -1.004941    0.574482
      8          8           0       -3.777037    0.270249    1.100725
      9          6           0       -0.268239   -0.350390   -0.026456
     10          6           0        0.622523    0.751717    0.022671
     11          6           0        1.988222    0.551907    0.000192
     12          6           0        2.577203   -0.719656   -0.042614
     13          6           0        1.692026   -1.803940   -0.107665
     14          6           0        0.315705   -1.639206   -0.113693
     15          6           0        4.031684   -0.928548    0.125157
     16          8           0        4.798301   -0.161847    0.667917
     17          8           0        4.435182   -2.134762   -0.359903
     18          7           0        2.804791    1.780256   -0.082887
     19          8           0        2.527353    2.692102    0.693741
     20          8           0        3.651063    1.827310   -0.967592
     21          1           0       -5.201850   -1.179116   -1.353867
     22          1           0       -6.172656   -0.923462    0.110303
     23          1           0       -5.294940    1.211215   -1.645261
     24          1           0       -5.745832    1.505654    0.066326
     25          1           0       -3.406041    0.154081   -0.990960
     26          1           0       -1.891240    1.851446    0.768185
     27          1           0       -1.758666    1.745751   -1.021911
     28          1           0       -2.100827   -2.039431    0.768600
     29          1           0       -2.552215   -1.870991   -0.931893
     30          1           0       -4.303967   -1.717444    1.352435
     31          1           0        0.262721    1.768962    0.077355
     32          1           0        2.106003   -2.805091   -0.144126
     33          1           0       -0.307691   -2.519542   -0.194708
     34          1           0        5.385398   -2.189713   -0.148388
 ---------------------------------------------------------------------

 SCF Done:  E(UB3LYP) =  -989.582667086     A.U. after   30 cycles

 The electronic state is 2-A.
 Alpha  occ. eigenvalues --  -19.04656 -19.04457 -18.97243 -18.96145 -18.96117
 Alpha  occ. eigenvalues --  -14.33916 -14.23726 -10.16557 -10.16464 -10.14988
 Alpha  occ. eigenvalues --  -10.13610 -10.13309 -10.12160 -10.11504 -10.10309
 Alpha  occ. eigenvalues --  -10.07739 -10.06164 -10.05014 -10.04971 -10.04684
 Alpha  occ. eigenvalues --   -1.04045  -0.99426  -0.97984  -0.88520  -0.86950
 Alpha  occ. eigenvalues --   -0.84333  -0.74062  -0.71996  -0.69734  -0.66088
 Alpha  occ. eigenvalues --   -0.64937  -0.60205  -0.60033  -0.55183  -0.52090
 Alpha  occ. eigenvalues --   -0.51283  -0.50247  -0.48464  -0.45091  -0.42294
 Alpha  occ. eigenvalues --   -0.42045  -0.40412  -0.40094  -0.38741  -0.37809
 Alpha  occ. eigenvalues --   -0.36712  -0.36235  -0.35547  -0.34380  -0.33782
 Alpha  occ. eigenvalues --   -0.33280  -0.32453  -0.32198  -0.31803  -0.30589
 Alpha  occ. eigenvalues --   -0.29762  -0.28998  -0.28631  -0.27962  -0.26667
 Alpha  occ. eigenvalues --   -0.26347  -0.24838  -0.24071  -0.21837  -0.20279
 Alpha  occ. eigenvalues --   -0.18887  -0.18448  -0.15245  -0.14992  -0.14063
 Alpha  occ. eigenvalues --   -0.13086  -0.10929  -0.09286   0.02952
 Alpha virt. eigenvalues --    0.04636   0.06029   0.06674   0.07387   0.08528
 Alpha virt. eigenvalues --    0.08995   0.09318   0.09524   0.10311   0.10532
 Alpha virt. eigenvalues --    0.11054   0.11657   0.12403   0.13080   0.13441

  Beta  occ. eigenvalues --  -19.04655 -19.04424 -18.97158 -18.95760 -18.95757
  Beta  occ. eigenvalues --  -14.33414 -14.23691 -10.16462 -10.16458 -10.14989
  Beta  occ. eigenvalues --  -10.13605 -10.13307 -10.12153 -10.11492 -10.10221
  Beta  occ. eigenvalues --  -10.07532 -10.06197 -10.04930 -10.04867 -10.04662
  Beta  occ. eigenvalues --   -1.03207  -0.99423  -0.97867  -0.88371  -0.86254
  Beta  occ. eigenvalues --   -0.84240  -0.73813  -0.71970  -0.69707  -0.65836
  Beta  occ. eigenvalues --   -0.64592  -0.60140  -0.59856  -0.54630  -0.52057
  Beta  occ. eigenvalues --   -0.51050  -0.50211  -0.48294  -0.44973  -0.42103
  Beta  occ. eigenvalues --   -0.41904  -0.40328  -0.39893  -0.38596  -0.37670
  Beta  occ. eigenvalues --   -0.36432  -0.35538  -0.35320  -0.33816  -0.33194
  Beta  occ. eigenvalues --   -0.32699  -0.32356  -0.31822  -0.31507  -0.30276
  Beta  occ. eigenvalues --   -0.29741  -0.28876  -0.28439  -0.27908  -0.26461
  Beta  occ. eigenvalues --   -0.26211  -0.24549  -0.23970  -0.21821  -0.19831
  Beta  occ. eigenvalues --   -0.18849  -0.18018  -0.14983  -0.14389  -0.12721
  Beta  occ. eigenvalues --   -0.11638  -0.10407  -0.08625
  Beta virt. eigenvalues --    0.04703   0.06011   0.06665   0.07342   0.08514
  Beta virt. eigenvalues --    0.08594   0.09197   0.09443   0.09926   0.10311
  Beta virt. eigenvalues --    0.10458   0.10989   0.12308   0.12852   0.13353

 Mulliken charges and spin densities:
               1          2
     1  C   -0.248708  -0.346615
     2  C   -0.061144  -0.222032
     3  C   -0.446647   0.076691
     4  C   -0.224393  -0.063041
     5  N    0.217276   0.004940
     6  C   -0.278616  -0.306897
     7  C   -0.098672   0.463591
     8  O   -0.052696  -0.001881
     9  C   -0.321025   0.058157
    10  C   -0.345557  -0.023969
    11  C   -0.695750   0.130035
    12  C    0.882756   0.007702
    13  C   -0.385072   0.003651
    14  C   -0.075752   0.060788
    15  C    0.219428   0.050665
    16  O   -0.311590   0.032556
    17  O   -0.195026   0.007186
    18  N   -0.156620   0.165321
    19  O   -0.120085   0.130773
    20  O   -0.142380   0.143440
    21  H    0.007925   0.136083
    22  H    0.046158   0.104342
    23  H    0.052381   0.091701
    24  H    0.125569   0.033303
    25  H    0.227396  -0.000858
    26  H    0.194157  -0.015891
    27  H    0.107138   0.064928
    28  H    0.145678   0.005060
    29  H    0.120856   0.053803
    30  H    0.095736   0.106610
    31  H    0.184788   0.041023
    32  H    0.176324   0.005664
    33  H    0.090809   0.001708
    34  H    0.265361   0.001462
 Sum of Mulliken charges =  -1.00000   1.00000

 Dipole moment (field-independent basis, Debye):
    X=            -12.0128    Y=             -6.2586    Z=             -1.0522  Tot=             13.5862
 Quadrupole moment (field-independent basis, Debye-Ang):
   XX=           -186.6893   YY=           -140.4957   ZZ=           -132.5978
   XY=            -23.0342   XZ=              2.0133   YZ=             -3.6910

 Summary of Natural Population Analysis:

                                       Natural Population
                Natural  -----------------------------------------------
    Atom  No    Charge         Core      Valence    Rydberg      Total
 -----------------------------------------------------------------------
      C    1   -0.19905      0.99964     2.19200    0.00742     3.19905
      C    2   -0.17977      0.99960     2.17310    0.00707     3.17977
      C    3    0.03494      0.99950     1.94699    0.01856     2.96506
      C    4   -0.07239      0.99955     2.06423    0.00861     3.07239
      N    5   -0.25172      0.99964     2.74334    0.00874     3.75172
      C    6   -0.09925      0.99959     2.09088    0.00878     3.09925
      C    7    0.06126      0.99964     1.92356    0.01554     2.93874
      O    8   -0.30371      0.99990     3.29518    0.00863     4.30371
      C    9    0.11984      0.99951     1.87021    0.01043     2.88016
      C   10   -0.15006      0.99955     2.13562    0.01489     3.15006
      C   11    0.18039      0.99936     1.80752    0.01273     2.81961
      C   12   -0.10788      0.99945     2.09165    0.01677     3.10788
      C   13   -0.07866      0.99956     2.07057    0.00854     3.07866
      C   14   -0.13309      0.99955     2.12529    0.00825     3.13309
      C   15    0.40959      0.99966     1.56540    0.02535     2.59041
      O   16   -0.29868      0.99987     3.29018    0.00863     4.29868
      O   17   -0.35491      0.99988     3.34903    0.00600     4.35491
      N   18    0.28567      0.99976     2.18531    0.02926     3.21433
      O   19   -0.19866      0.99990     3.19030    0.00847     4.19866
      O   20   -0.18040      0.99989     3.17127    0.00924     4.18040
      H   21    0.09796      0.00000     0.40052    0.00152     0.40204
      H   22    0.10083      0.00000     0.39777    0.00139     0.39917
      H   23    0.10080      0.00000     0.39801    0.00119     0.39920
      H   24    0.10008      0.00000     0.39850    0.00142     0.39992
      H   25    0.08647      0.00000     0.41063    0.00290     0.41353
      H   26    0.10513      0.00000     0.39339    0.00148     0.39487
      H   27    0.10122      0.00000     0.39695    0.00183     0.39878
      H   28    0.10405      0.00000     0.39383    0.00211     0.39595
      H   29    0.09221      0.00000     0.40599    0.00180     0.40779
      H   30    0.08938      0.00000     0.40953    0.00108     0.41062
      H   31    0.11032      0.00000     0.38749    0.00219     0.38968
      H   32    0.10275      0.00000     0.39603    0.00122     0.39725
      H   33    0.09356      0.00000     0.40474    0.00171     0.40644
      H   34    0.23351      0.00000     0.26326    0.00323     0.26649
 =======================================================================
   * Total *    0.00175     19.99300    52.73828    0.26698    72.99825

 Normal termination of Gaussian 16 at Sun Dec 13 21:49:11 2020.
