 Gaussian 16, Revision A.03,

 -----------------------------------------------------------
 # opt freq B3LYP/6-31G(d) empiricaldispersion=gd3bj scf=xqc
 -----------------------------------------------------------

 ------------------------------
 CID_63363559_JID_8248_neutraal
 ------------------------------
 Symbolic Z-matrix:
 Charge =  0 Multiplicity = 1

 SCF Done:  E(RB3LYP) =  -866.099856811     A.U. after   13 cycles
 SCF Done:  E(RB3LYP) =  -866.103847261     A.U. after   11 cycles
 SCF Done:  E(RB3LYP) =  -866.080093042     A.U. after   13 cycles
 SCF Done:  E(RB3LYP) =  -866.094090118     A.U. after   12 cycles
 SCF Done:  E(RB3LYP) =  -866.104504237     A.U. after   10 cycles
 SCF Done:  E(RB3LYP) =  -866.105122059     A.U. after   10 cycles
 SCF Done:  E(RB3LYP) =  -866.104867146     A.U. after   11 cycles
 SCF Done:  E(RB3LYP) =  -866.105472277     A.U. after   10 cycles
 SCF Done:  E(RB3LYP) =  -866.105706441     A.U. after   11 cycles
 SCF Done:  E(RB3LYP) =  -866.105792754     A.U. after   10 cycles
 SCF Done:  E(RB3LYP) =  -866.106234877     A.U. after    9 cycles
 SCF Done:  E(RB3LYP) =  -866.106227688     A.U. after    9 cycles
 SCF Done:  E(RB3LYP) =  -866.106236527     A.U. after    9 cycles
 SCF Done:  E(RB3LYP) =  -866.106237145     A.U. after    7 cycles
 SCF Done:  E(RB3LYP) =  -866.106237513     A.U. after    7 cycles
 SCF Done:  E(RB3LYP) =  -866.106237556     A.U. after    7 cycles
 Optimization completed.
    -- Stationary point found.
 Normal termination of Gaussian 16 at Fri Dec 11 20:00:30 2020.

 --------------------------------------------------------------------
 #N Geom=AllCheck Guess=TCheck SCRF=Check GenChk RB3LYP/6-31G(d) Freq
 --------------------------------------------------------------------

 Structure from the checkpoint file:  "JID_8248.chk"
 ------------------------------
 CID_63363559_JID_8248_neutraal
 ------------------------------
 Charge =  0 Multiplicity = 1

 SCF Done:  E(RB3LYP) =  -866.106237556     A.U. after    1 cycles

  Exact polarizability: 170.975  -6.015 159.515  -0.576  -0.540 127.890
 Approx polarizability: 218.331  -3.444 214.807  -2.680  -0.967 193.960

                      1                      2                      3
                      A                      A                      A
 Frequencies --     27.0970                33.9345                41.6258
 Red. masses --      3.7031                 3.3747                 3.6933
 Frc consts  --      0.0016                 0.0023                 0.0038
 IR Inten    --      0.0191                 0.1405                 0.0129

                      4                      5                      6
                      A                      A                      A
 Frequencies --     56.6137                61.0863                99.0199
 Red. masses --      4.0571                 3.3872                 5.6232
 Frc consts  --      0.0077                 0.0074                 0.0325
 IR Inten    --      2.0285                 0.2879                 0.4301

                      7                      8                      9
                      A                      A                      A
 Frequencies --    111.1739               125.6614               164.3479
 Red. masses --      4.7959                 3.9725                 3.3515
 Frc consts  --      0.0349                 0.0370                 0.0533
 IR Inten    --      5.1442                 0.1440                 2.8917

                     10                     11                     12
                      A                      A                      A
 Frequencies --    195.9607               207.7737               229.6398
 Red. masses --      3.3731                 2.8936                 2.8667
 Frc consts  --      0.0763                 0.0736                 0.0891
 IR Inten    --      1.1693                 0.4654                 7.6256

                     13                     14                     15
                      A                      A                      A
 Frequencies --    241.5990               275.1195               298.4744
 Red. masses --      2.0156                 3.2554                 2.6238
 Frc consts  --      0.0693                 0.1452                 0.1377
 IR Inten    --      1.7495                 2.8724                 3.5731

                     16                     17                     18
                      A                      A                      A
 Frequencies --    307.6471               331.4989               374.0858
 Red. masses --      3.4426                 2.6977                 2.6099
 Frc consts  --      0.1920                 0.1747                 0.2152
 IR Inten    --      3.1573                 1.1074                10.2534

                     19                     20                     21
                      A                      A                      A
 Frequencies --    415.5519               428.0056               442.8703
 Red. masses --      3.1481                 2.4885                 2.7730
 Frc consts  --      0.3203                 0.2686                 0.3204
 IR Inten    --      1.0053                 2.5814                 1.2660

                     22                     23                     24
                      A                      A                      A
 Frequencies --    456.8855               463.4104               472.9352
 Red. masses --      2.5963                 2.5327                 1.2553
 Frc consts  --      0.3193                 0.3204                 0.1654
 IR Inten    --      1.8025                 3.8576                98.6108

                     25                     26                     27
                      A                      A                      A
 Frequencies --    481.7909               558.8940               581.6917
 Red. masses --      2.0598                 3.3272                 2.1819
 Frc consts  --      0.2817                 0.6123                 0.4350
 IR Inten    --      5.9653                 0.6228                 1.3535

                     28                     29                     30
                      A                      A                      A
 Frequencies --    592.8528               648.5713               677.2074
 Red. masses --      1.8630                 2.7692                 3.3542
 Frc consts  --      0.3858                 0.6863                 0.9063
 IR Inten    --      1.5599                 9.4245                 8.5879

                     31                     32                     33
                      A                      A                      A
 Frequencies --    758.7349               810.5837               831.1422
 Red. masses --      1.6221                 2.8985                 3.0367
 Frc consts  --      0.5502                 1.1221                 1.2360
 IR Inten    --     42.5401                11.6531                24.9188

                     34                     35                     36
                      A                      A                      A
 Frequencies --    840.6695               874.1621               882.6716
 Red. masses --      2.3152                 1.4412                 2.3900
 Frc consts  --      0.9640                 0.6489                 1.0971
 IR Inten    --     25.0961                 5.3009                17.0583

                     37                     38                     39
                      A                      A                      A
 Frequencies --    889.0694               898.4210               908.0811
 Red. masses --      1.8328                 1.9971                 1.7374
 Frc consts  --      0.8536                 0.9497                 0.8441
 IR Inten    --      7.2680                 5.6955                 3.7017

                     40                     41                     42
                      A                      A                      A
 Frequencies --    932.6717               934.2227               950.3766
 Red. masses --      1.9826                 2.4778                 2.1633
 Frc consts  --      1.0161                 1.2741                 1.1512
 IR Inten    --     10.1774                14.2890                 6.4599

                     43                     44                     45
                      A                      A                      A
 Frequencies --    963.0841               975.3456               992.2365
 Red. masses --      2.6300                 2.7607                 1.4990
 Frc consts  --      1.4372                 1.5473                 0.8695
 IR Inten    --     24.5736                12.1447                 2.8114

                     46                     47                     48
                      A                      A                      A
 Frequencies --   1010.9712              1017.6614              1035.4466
 Red. masses --      1.9014                 1.9078                 2.3544
 Frc consts  --      1.1450                 1.1641                 1.4873
 IR Inten    --     51.3652                24.6792                 4.6213

                     49                     50                     51
                      A                      A                      A
 Frequencies --   1046.3559              1085.2373              1100.7233
 Red. masses --      1.7955                 3.1162                 2.8464
 Frc consts  --      1.1582                 2.1624                 2.0319
 IR Inten    --      9.7533               180.3468                 4.3127

                     52                     53                     54
                      A                      A                      A
 Frequencies --   1111.3815              1113.9766              1123.2229
 Red. masses --      2.8165                 3.3339                 3.0422
 Frc consts  --      2.0497                 2.4376                 2.2614
 IR Inten    --      3.6661               107.2955                19.8471

                     55                     56                     57
                      A                      A                      A
 Frequencies --   1138.6739              1145.7833              1156.5998
 Red. masses --      3.5738                 2.5625                 2.5694
 Frc consts  --      2.7301                 1.9820                 2.0251
 IR Inten    --     86.5971                29.1518                43.4363

                     58                     59                     60
                      A                      A                      A
 Frequencies --   1161.3206              1172.9158              1201.2222
 Red. masses --      2.2507                 2.9788                 2.2506
 Frc consts  --      1.7884                 2.4145                 1.9134
 IR Inten    --     10.4728                90.0579                14.6230

                     61                     62                     63
                      A                      A                      A
 Frequencies --   1210.7677              1216.7289              1220.5199
 Red. masses --      1.3720                 1.4887                 1.3949
 Frc consts  --      1.1850                 1.2985                 1.2242
 IR Inten    --      4.6127                 3.9000                 5.2241

                     64                     65                     66
                      A                      A                      A
 Frequencies --   1252.0643              1270.5827              1273.6202
 Red. masses --      1.4472                 1.3202                 1.2638
 Frc consts  --      1.3367                 1.2557                 1.2079
 IR Inten    --     30.5242                38.4871                 1.2085

                     67                     68                     69
                      A                      A                      A
 Frequencies --   1281.2784              1308.8062              1317.5542
 Red. masses --      1.3205                 1.2272                 1.2581
 Frc consts  --      1.2773                 1.2386                 1.2867
 IR Inten    --      2.3356                 5.3708                 3.7113

                     70                     71                     72
                      A                      A                      A
 Frequencies --   1320.2335              1335.1195              1341.2016
 Red. masses --      1.2199                 1.3073                 1.2010
 Frc consts  --      1.2528                 1.3730                 1.2728
 IR Inten    --      2.8747                 4.5097                 2.1396

                     73                     74                     75
                      A                      A                      A
 Frequencies --   1352.5269              1354.4496              1359.5930
 Red. masses --      1.2746                 1.2958                 1.2640
 Frc consts  --      1.3738                 1.4006                 1.3766
 IR Inten    --      0.9496                 1.2535                 7.8256

                     76                     77                     78
                      A                      A                      A
 Frequencies --   1377.3885              1379.4707              1384.1447
 Red. masses --      1.2636                 1.2901                 1.2245
 Frc consts  --      1.4124                 1.4464                 1.3822
 IR Inten    --      2.5827                16.1177                 5.0162

                     79                     80                     81
                      A                      A                      A
 Frequencies --   1390.1785              1395.1914              1412.0612
 Red. masses --      1.3272                 1.3986                 1.2865
 Frc consts  --      1.5112                 1.6040                 1.5114
 IR Inten    --      4.2105                 2.1145                 0.7618

                     82                     83                     84
                      A                      A                      A
 Frequencies --   1415.6280              1418.4481              1421.5220
 Red. masses --      1.3147                 1.3056                 1.3840
 Frc consts  --      1.5523                 1.5476                 1.6478
 IR Inten    --     17.0537                 5.9458                12.3864

                     85                     86                     87
                      A                      A                      A
 Frequencies --   1438.8510              1446.7383              1454.4829
 Red. masses --      1.3556                 1.3687                 1.2897
 Frc consts  --      1.6536                 1.6879                 1.6076
 IR Inten    --      7.1735                 8.8855                54.5980

                     88                     89                     90
                      A                      A                      A
 Frequencies --   1507.5585              1508.1041              1514.9037
 Red. masses --      1.0834                 1.0852                 1.0882
 Frc consts  --      1.4508                 1.4542                 1.4714
 IR Inten    --      0.6406                 7.6658                 0.7689

                     91                     92                     93
                      A                      A                      A
 Frequencies --   1516.5018              1520.1672              1521.4148
 Red. masses --      1.1006                 1.0841                 1.0858
 Frc consts  --      1.4913                 1.4760                 1.4808
 IR Inten    --      2.8555                 0.3072                 9.8647

                     94                     95                     96
                      A                      A                      A
 Frequencies --   1526.6840              1529.8418              1533.7664
 Red. masses --      1.0982                 1.1041                 1.1014
 Frc consts  --      1.5081                 1.5225                 1.5265
 IR Inten    --      2.6683                 1.7004                 4.0197

                     97                     98                     99
                      A                      A                      A
 Frequencies --   1559.5527              1580.1694              2959.8586
 Red. masses --      1.0965                 1.2122                 1.0723
 Frc consts  --      1.5713                 1.7833                 5.5348
 IR Inten    --      3.2897                22.4932                28.7411

                    100                    101                    102
                      A                      A                      A
 Frequencies --   2967.2738              3014.3496              3026.3578
 Red. masses --      1.0720                 1.0705                 1.0694
 Frc consts  --      5.5609                 5.7307                 5.7710
 IR Inten    --     77.8734                34.4816                40.9737

                    103                    104                    105
                      A                      A                      A
 Frequencies --   3029.8428              3037.7673              3041.8642
 Red. masses --      1.0677                 1.0729                 1.0618
 Frc consts  --      5.7749                 5.8331                 5.7885
 IR Inten    --     22.2411                23.8904                26.2595

                    106                    107                    108
                      A                      A                      A
 Frequencies --   3042.6688              3046.3058              3053.3442
 Red. masses --      1.0724                 1.0816                 1.0703
 Frc consts  --      5.8494                 5.9139                 5.8789
 IR Inten    --     18.7663                46.1941                49.3600

                    109                    110                    111
                      A                      A                      A
 Frequencies --   3059.2975              3071.4490              3083.2396
 Red. masses --      1.0818                 1.0635                 1.1023
 Frc consts  --      5.9653                 5.9113                 6.1737
 IR Inten    --     40.7649                23.7281                44.2542

                    112                    113                    114
                      A                      A                      A
 Frequencies --   3085.5215              3091.6799              3095.4851
 Red. masses --      1.0665                 1.0977                 1.1007
 Frc consts  --      5.9825                 6.1818                 6.2139
 IR Inten    --     30.7290                83.3071                 8.1374

                    115                    116                    117
                      A                      A                      A
 Frequencies --   3097.1790              3104.7423              3105.9271
 Red. masses --      1.0947                 1.0957                 1.0923
 Frc consts  --      6.1869                 6.2226                 6.2085
 IR Inten    --     43.3688                46.1273                49.7919

                    118                    119                    120
                      A                      A                      A
 Frequencies --   3123.7466              3124.0983              3130.8978
 Red. masses --      1.0918                 1.0965                 1.1046
 Frc consts  --      6.2771                 6.3053                 6.3795
 IR Inten    --     50.3597                14.0700                36.2227

                    121                    122                    123
                      A                      A                      A
 Frequencies --   3147.5254              3494.8208              3689.5481
 Red. masses --      1.1035                 1.0742                 1.0651
 Frc consts  --      6.4410                 7.7302                 8.5425
 IR Inten    --      9.3849                93.4174                30.9391

 - Thermochemistry -
 -------------------
 Temperature   298.150 Kelvin.  Pressure   1.00000 Atm.
 Atom     1 has atomic number  6 and mass  12.00000

 Molecular mass:   259.17836 amu.
 Principal axes and moments of inertia in atomic units:
                           1         2         3
     Eigenvalues --  3801.050796017.866218596.80329
           X            0.99996   0.00890   0.00179
           Y           -0.00890   0.99996  -0.00191
           Z           -0.00180   0.00190   1.00000
 This molecule is an asymmetric top.
 Rotational symmetry number  1.
 Warning -- assumption of classical behavior for rotation
           may cause significant error
 Rotational temperatures (Kelvin)      0.02279     0.01439     0.01008
 Rotational constants (GHZ):           0.47480     0.29990     0.20993
 Zero-point vibrational energy    1018970.7 (Joules/Mol)
                                  243.53984 (Kcal/Mol)
 Warning -- explicit consideration of  28 degrees of freedom as
           vibrations may cause significant error
 Vibrational temperatures:     38.99    48.82    59.89    81.45    87.89
          (Kelvin)            142.47   159.95   180.80   236.46   281.94
                              298.94   330.40   347.61   395.84   429.44
                              442.64   476.95   538.23   597.89   615.80
                              637.19   657.36   666.74   680.45   693.19
                              804.12   836.92   852.98   933.15   974.35
                             1091.65  1166.25  1195.83  1209.54  1257.72
                             1269.97  1279.17  1292.63  1306.53  1341.91
                             1344.14  1367.38  1385.66  1403.30  1427.61
                             1454.56  1464.19  1489.78  1505.47  1561.41
                             1583.70  1599.03  1602.76  1616.07  1638.30
                             1648.53  1664.09  1670.88  1687.56  1728.29
                             1742.02  1750.60  1756.06  1801.44  1828.09
                             1832.46  1843.47  1883.08  1895.67  1899.52
                             1920.94  1929.69  1945.98  1948.75  1956.15
                             1981.75  1984.75  1991.48  2000.16  2007.37
                             2031.64  2036.77  2040.83  2045.25  2070.19
                             2081.53  2092.68  2169.04  2169.83  2179.61
                             2181.91  2187.18  2188.98  2196.56  2201.10
                             2206.75  2243.85  2273.51  4258.58  4269.25
                             4336.98  4354.25  4359.27  4370.67  4376.56
                             4377.72  4382.95  4393.08  4401.65  4419.13
                             4436.09  4439.38  4448.24  4453.71  4456.15
                             4467.03  4468.74  4494.37  4494.88  4504.66
                             4528.59  5028.27  5308.44

 Zero-point correction=                           0.388105 (Hartree/Particle)
 Thermal correction to Energy=                    0.406206
 Thermal correction to Enthalpy=                  0.407150
 Thermal correction to Gibbs Free Energy=         0.340434
 Sum of electronic and zero-point Energies=           -865.718132
 Sum of electronic and thermal Energies=              -865.700032
 Sum of electronic and thermal Enthalpies=            -865.699088
 Sum of electronic and thermal Free Energies=         -865.765804

                     E (Thermal)             CV                S
                      KCal/Mol        Cal/Mol-Kelvin    Cal/Mol-Kelvin
 Total                  254.898             69.625            140.416
 Electronic               0.000              0.000              0.000
 Translational            0.889              2.981             42.557
 Rotational               0.889              2.981             33.641
 Vibrational            253.120             63.663             64.218
 Vibration     1          0.593              1.984              6.031
 Vibration     2          0.594              1.983              5.585
 Vibration     3          0.594              1.981              5.180
 Vibration     4          0.596              1.975              4.572
 Vibration     5          0.597              1.973              4.422
 Vibration     6          0.604              1.950              3.474
 Vibration     7          0.607              1.940              3.248
 Vibration     8          0.611              1.927              3.011
 Vibration     9          0.623              1.886              2.499
 Vibration    10          0.636              1.846              2.171
 Vibration    11          0.641              1.829              2.063
 Vibration    12          0.652              1.796              1.882
 Vibration    13          0.658              1.777              1.791
 Vibration    14          0.677              1.719              1.564
 Vibration    15          0.692              1.677              1.425
 Vibration    16          0.698              1.659              1.375
 Vibration    17          0.714              1.613              1.253
 Vibration    18          0.745              1.525              1.063
 Vibration    19          0.779              1.436              0.907
 Vibration    20          0.790              1.409              0.865
 Vibration    21          0.803              1.377              0.818
 Vibration    22          0.815              1.346              0.775
 Vibration    23          0.821              1.331              0.756
 Vibration    24          0.830              1.310              0.729
 Vibration    25          0.838              1.290              0.705
 Vibration    26          0.914              1.120              0.526
 Vibration    27          0.938              1.071              0.482
 Vibration    28          0.950              1.047              0.462

 Optimization completed.
    -- Stationary point found.
 Normal termination of Gaussian 16 at Fri Dec 11 20:22:06 2020.

 ----------------------------------------------------------------------
 # B3LYP/6-311++G(d,p) empiricaldispersion=gd3bj scf=xqc pop=npa geom=c
 heck
 ----------------------------------------------------------------------

 --------------------------------------
 CID_63363559_JID_8248_Energie_neutraal
 --------------------------------------
 Structure from the checkpoint file:  "JID_8248.chk"
 Charge =  0 Multiplicity = 1

 SCF Done:  E(RB3LYP) =  -866.366054789     A.U. after   14 cycles
 Normal termination of Gaussian 16 at Fri Dec 11 20:32:19 2020.

 ----------------------------------------------------------------------
 # B3LYP/6-311++G(d,p) empiricaldispersion=gd3bj scf=xqc pop=npa geom=c
 heck
 ----------------------------------------------------------------------

 ------------------------------------
 CID_63363559_JID_8248_Energie_kation
 ------------------------------------
 Structure from the checkpoint file:  "JID_8248.chk"
 Charge =  1 Multiplicity = 2

 SCF Done:  E(UB3LYP) =  -866.087037934     A.U. after   21 cycles
 Normal termination of Gaussian 16 at Fri Dec 11 20:53:58 2020.
 Gaussian 16:  ES64L-G16RevA.03 25-Dec-2016

 ----------------------------------------------------------------------
 # B3LYP/6-311++G(d,p) empiricaldispersion=gd3bj scf=xqc pop=npa geom=c
 heck
 ----------------------------------------------------------------------

 -----------------------------------
 CID_63363559_JID_8248_Energie_anion
 -----------------------------------
 Structure from the checkpoint file:  "JID_8248.chk"
 Charge = -1 Multiplicity = 2

                         Standard orientation:
 ---------------------------------------------------------------------
 Center     Atomic      Atomic             Coordinates (Angstroms)
 Number     Number       Type             X           Y           Z
 ---------------------------------------------------------------------
      1          6           0        3.996951   -1.133634    0.682631
      2          6           0        2.577532   -0.887254    1.207703
      3          6           0        1.990749    0.417896    0.647693
      4          6           0        2.160072    0.416504   -0.885712
      5          8           0        3.508750    0.213247   -1.287019
      6          6           0        4.014937   -1.036915   -0.841838
      7          7           0        0.614160    0.563737    1.106607
      8          6           0        0.031619    1.895599    1.176380
      9          6           0       -0.417705    2.586938   -0.133607
     10          6           0       -1.293054    1.727947   -1.049012
     11          8           0       -2.600005    1.531284   -0.484492
     12          6           0       -2.821165    0.370827    0.301897
     13          6           0       -2.636616   -0.960685   -0.422266
     14          6           0       -3.282564   -2.131267    0.333208
     15          6           0       -2.365070   -3.308863   -0.014911
     16          6           0       -0.996487   -2.629724   -0.043325
     17          8           0       -1.234360   -1.301453   -0.537330
     18          8           0       -1.107827    3.791920    0.185013
     19          1           0        4.680940   -0.377887    1.089822
     20          1           0        4.368394   -2.116473    1.000466
     21          1           0        1.925824   -1.718317    0.895836
     22          1           0        2.547857   -0.857385    2.301936
     23          1           0        2.570024    1.260886    1.047645
     24          1           0        1.511487   -0.370028   -1.313423
     25          1           0        1.862785    1.373946   -1.320453
     26          1           0        5.031778   -1.110211   -1.239179
     27          1           0        3.417368   -1.859026   -1.276425
     28          1           0        0.006115   -0.085137    0.609887
     29          1           0       -0.846700    1.855208    1.834692
     30          1           0        0.743641    2.561721    1.676410
     31          1           0        0.466137    2.886855   -0.709475
     32          1           0       -1.469709    2.283977   -1.974847
     33          1           0       -0.819756    0.776278   -1.299187
     34          1           0       -2.202823    0.356218    1.210066
     35          1           0       -3.868631    0.450054    0.614106
     36          1           0       -3.043976   -0.872381   -1.438391
     37          1           0       -3.257737   -1.938145    1.413862
     38          1           0       -4.325112   -2.284404    0.041817
     39          1           0       -2.416177   -4.127967    0.707956
     40          1           0       -2.613480   -3.707349   -1.004921
     41          1           0       -0.558162   -2.569818    0.963110
     42          1           0       -0.274250   -3.114045   -0.707460
     43          1           0       -2.022605    3.513077    0.367466
 ---------------------------------------------------------------------

 SCF Done:  E(UB3LYP) =  -866.355739976     A.U. after   28 cycles

 The electronic state is 2-A.
 Alpha  occ. eigenvalues --  -19.04909 -19.03839 -19.03798 -19.03720 -14.20409
 Alpha  occ. eigenvalues --  -10.13553 -10.13466 -10.13418 -10.13067 -10.12739
 Alpha  occ. eigenvalues --  -10.12436 -10.12158 -10.11101 -10.10749 -10.08108
 Alpha  occ. eigenvalues --  -10.08107 -10.07617 -10.07602  -0.96444  -0.95204
 Alpha  occ. eigenvalues --   -0.94845  -0.93447  -0.81956  -0.70759  -0.70272
 Alpha  occ. eigenvalues --   -0.68505  -0.67492  -0.65283  -0.60887  -0.56641
 Alpha  occ. eigenvalues --   -0.55845  -0.53975  -0.51115  -0.50772  -0.48836
 Alpha  occ. eigenvalues --   -0.48190  -0.43486  -0.42633  -0.42089  -0.41301
 Alpha  occ. eigenvalues --   -0.40296  -0.39349  -0.38567  -0.38064  -0.37343
 Alpha  occ. eigenvalues --   -0.36678  -0.35417  -0.34530  -0.33760  -0.33268
 Alpha  occ. eigenvalues --   -0.32343  -0.31450  -0.30947  -0.29735  -0.29089
 Alpha  occ. eigenvalues --   -0.28803  -0.27831  -0.27475  -0.26523  -0.25617
 Alpha  occ. eigenvalues --   -0.25066  -0.24723  -0.24162  -0.23811  -0.22668
 Alpha  occ. eigenvalues --   -0.22535  -0.21176  -0.18626  -0.17635  -0.16969
 Alpha  occ. eigenvalues --   -0.12731   0.04072
 Alpha virt. eigenvalues --    0.05884   0.06761   0.07095   0.07704   0.07830
 Alpha virt. eigenvalues --    0.08384   0.08737   0.09210   0.09744   0.10231
 Alpha virt. eigenvalues --    0.10838   0.11079   0.11195   0.11753   0.12024

  Beta  occ. eigenvalues --  -19.04907 -19.03837 -19.03795 -19.03720 -14.20406
  Beta  occ. eigenvalues --  -10.13552 -10.13455 -10.13407 -10.13064 -10.12723
  Beta  occ. eigenvalues --  -10.12432 -10.12129 -10.11100 -10.10747 -10.08094
  Beta  occ. eigenvalues --  -10.08072 -10.07592 -10.07577  -0.96438  -0.95197
  Beta  occ. eigenvalues --   -0.94836  -0.93442  -0.81951  -0.70739  -0.70235
  Beta  occ. eigenvalues --   -0.68471  -0.67470  -0.65263  -0.60865  -0.56614
  Beta  occ. eigenvalues --   -0.55822  -0.53955  -0.51031  -0.50736  -0.48799
  Beta  occ. eigenvalues --   -0.48152  -0.43467  -0.42616  -0.42056  -0.41279
  Beta  occ. eigenvalues --   -0.40260  -0.39321  -0.38539  -0.38050  -0.37329
  Beta  occ. eigenvalues --   -0.36660  -0.35391  -0.34515  -0.33737  -0.33240
  Beta  occ. eigenvalues --   -0.32310  -0.31428  -0.30922  -0.29718  -0.29072
  Beta  occ. eigenvalues --   -0.28794  -0.27787  -0.27445  -0.26474  -0.25605
  Beta  occ. eigenvalues --   -0.25042  -0.24683  -0.24121  -0.23795  -0.22652
  Beta  occ. eigenvalues --   -0.22521  -0.21169  -0.18615  -0.17618  -0.16955
  Beta  occ. eigenvalues --   -0.12724
  Beta virt. eigenvalues --    0.06175   0.06735   0.07174   0.07435   0.08036
  Beta virt. eigenvalues --    0.08425   0.08753   0.09027   0.09549   0.10115
  Beta virt. eigenvalues --    0.10522   0.11096   0.11268   0.11548   0.11991

 Mulliken charges and spin densities:
               1          2
     1  C   -0.347650  -0.124400
     2  C    0.247916   0.011431
     3  C   -0.892440  -0.004016
     4  C   -0.327357  -0.137154
     5  O   -0.115097   0.020060
     6  C    0.287235  -0.566154
     7  N    0.133646  -0.013726
     8  C   -0.100603  -0.009068
     9  C   -0.253602  -0.143676
    10  C   -0.333365   0.049377
    11  O   -0.097651   0.008551
    12  C    0.312835  -0.908943
    13  C   -0.785227   1.026871
    14  C    0.675378  -1.230225
    15  C    0.765806  -1.298463
    16  C    0.434141  -0.475626
    17  O   -0.132991   0.032951
    18  O   -0.174391   0.001982
    19  H    0.207250  -0.073042
    20  H   -0.420799   0.591327
    21  H    0.106616   0.012614
    22  H   -0.032638   0.228839
    23  H    0.084110   0.044169
    24  H    0.102413   0.109828
    25  H    0.126550   0.035392
    26  H   -0.011995   0.194577
    27  H   -0.028957   0.145542
    28  H    0.655985  -0.411176
    29  H    0.120965   0.052669
    30  H    0.101890   0.031687
    31  H    0.211431  -0.013477
    32  H    0.076654   0.123209
    33  H    0.081176   0.110980
    34  H    0.179885   0.040014
    35  H   -0.182082   0.360293
    36  H   -0.154519   0.379078
    37  H   -0.071832   0.225517
    38  H   -0.487015   0.672538
    39  H   -0.675231   0.851187
    40  H   -0.163910   0.341274
    41  H   -0.118316   0.272836
    42  H   -0.259392   0.433365
    43  H    0.255180   0.000989
 Sum of Mulliken charges =  -1.00000   1.00000

 Dipole moment (field-independent basis, Debye):
    X=              3.3736    Y=              7.4087    Z=              0.3408  Tot=              8.1477
 Quadrupole moment (field-independent basis, Debye-Ang):
   XX=           -193.0525   YY=           -189.9160   ZZ=           -147.0857
   XY=             -9.9601   XZ=              0.2494   YZ=              3.1712

 Summary of Natural Population Analysis:

                                       Natural Population
                Natural  -----------------------------------------------
    Atom  No    Charge         Core      Valence    Rydberg      Total
 -----------------------------------------------------------------------
      C    1   -0.20513      0.99963     2.19701    0.00849     3.20513
      C    2   -0.19366      0.99961     2.18327    0.01078     3.19366
      C    3   -0.01879      0.99958     2.00757    0.01163     3.01879
      C    4   -0.01973      0.99955     2.00689    0.01330     3.01973
      O    5   -0.30033      0.99989     3.29174    0.00870     4.30033
      C    6   -0.01037      0.99958     1.99737    0.01342     3.01037
      N    7   -0.36010      0.99973     2.84775    0.01262     3.86010
      C    8   -0.09684      0.99960     2.08481    0.01243     3.09684
      C    9    0.04199      0.99956     1.94648    0.01196     2.95801
      C   10   -0.03294      0.99953     2.02053    0.01288     3.03294
      O   11   -0.31047      0.99989     3.30045    0.01013     4.31047
      C   12   -0.01742      0.99952     2.00423    0.01367     3.01742
      C   13    0.05209      0.99955     1.93391    0.01445     2.94791
      C   14   -0.20089      0.99962     2.19224    0.00903     3.20089
      C   15   -0.20178      0.99964     2.19399    0.00815     3.20178
      C   16   -0.00855      0.99959     1.99639    0.01257     3.00855
      O   17   -0.32141      0.99989     3.31164    0.00988     4.32141
      O   18   -0.37413      0.99990     3.36790    0.00633     4.37413
      H   19    0.09384      0.00000     0.40507    0.00109     0.40616
      H   20    0.10314      0.00000     0.39553    0.00132     0.39686
      H   21    0.09769      0.00000     0.40020    0.00211     0.40231
      H   22    0.10369      0.00000     0.39507    0.00124     0.39631
      H   23    0.08920      0.00000     0.40908    0.00173     0.41080
      H   24    0.08185      0.00000     0.41625    0.00190     0.41815
      H   25    0.08772      0.00000     0.41081    0.00147     0.41228
      H   26    0.08961      0.00000     0.40930    0.00109     0.41039
      H   27    0.07904      0.00000     0.41943    0.00153     0.42096
      H   28    0.19175      0.00000     0.30422    0.00403     0.30825
      H   29    0.09165      0.00000     0.40713    0.00122     0.40835
      H   30    0.09646      0.00000     0.40253    0.00101     0.40354
      H   31    0.08523      0.00000     0.41335    0.00142     0.41477
      H   32    0.09209      0.00000     0.40695    0.00095     0.40791
      H   33    0.10151      0.00000     0.39667    0.00182     0.39849
      H   34    0.08300      0.00000     0.41518    0.00182     0.41700
      H   35    0.09555      0.00000     0.40309    0.00136     0.40445
      H   36    0.09044      0.00000     0.40796    0.00160     0.40956
      H   37    0.09775      0.00000     0.40065    0.00161     0.40225
      H   38    0.11124      0.00000     0.38618    0.00258     0.38876
      H   39    0.10874      0.00000     0.38888    0.00238     0.39126
      H   40    0.10089      0.00000     0.39699    0.00212     0.39911
      H   41    0.08144      0.00000     0.41666    0.00190     0.41856
      H   42    0.09285      0.00000     0.40527    0.00188     0.40715
      H   43    0.23210      0.00000     0.26505    0.00284     0.26790
 =======================================================================
   * Total *   -0.00000     17.99386    52.76169    0.24446    71.00000

 Normal termination of Gaussian 16 at Fri Dec 11 21:22:54 2020.
