 Gaussian 16, Revision A.03,

 -----------------------------------------------------------
 # opt freq B3LYP/6-31G(d) empiricaldispersion=gd3bj scf=xqc
 -----------------------------------------------------------

 -------------------------------
 CID_103284361_JID_3548_neutraal
 -------------------------------
 Symbolic Z-matrix:
 Charge =  0 Multiplicity = 1

 SCF Done:  E(RB3LYP) =  -598.979347808     A.U. after   14 cycles
 SCF Done:  E(RB3LYP) =  -598.983682482     A.U. after   12 cycles
 SCF Done:  E(RB3LYP) =  -598.981479166     A.U. after   12 cycles
 SCF Done:  E(RB3LYP) =  -598.984877517     A.U. after   12 cycles
 SCF Done:  E(RB3LYP) =  -598.985166376     A.U. after   10 cycles
 SCF Done:  E(RB3LYP) =  -598.985219114     A.U. after   10 cycles
 SCF Done:  E(RB3LYP) =  -598.985238354     A.U. after   10 cycles
 SCF Done:  E(RB3LYP) =  -598.985247241     A.U. after    9 cycles
 SCF Done:  E(RB3LYP) =  -598.985250477     A.U. after    9 cycles
 SCF Done:  E(RB3LYP) =  -598.985250952     A.U. after    8 cycles
 SCF Done:  E(RB3LYP) =  -598.985251091     A.U. after    7 cycles
 Optimization completed.
    -- Stationary point found.
 Normal termination of Gaussian 16 at Wed Dec  9 23:37:20 2020.

 --------------------------------------------------------------------
 #N Geom=AllCheck Guess=TCheck SCRF=Check GenChk RB3LYP/6-31G(d) Freq
 --------------------------------------------------------------------

 Structure from the checkpoint file:  "JID_3548.chk"
 -------------------------------
 CID_103284361_JID_3548_neutraal
 -------------------------------
 Charge =  0 Multiplicity = 1

 SCF Done:  E(RB3LYP) =  -598.985251091     A.U. after    1 cycles

  Exact polarizability: 132.981  -5.927 112.474  -1.955   0.637 106.895
 Approx polarizability: 161.252  -8.418 150.962  -4.628  -3.397 169.499

                      1                      2                      3
                      A                      A                      A
 Frequencies --     24.6755                31.0497                54.5762
 Red. masses --      3.1036                 2.9531                 3.3269
 Frc consts  --      0.0011                 0.0017                 0.0058
 IR Inten    --      0.3440                 0.2816                 0.8054

                      4                      5                      6
                      A                      A                      A
 Frequencies --     68.0759                83.1248               123.8268
 Red. masses --      6.3877                 3.3501                 2.0328
 Frc consts  --      0.0174                 0.0136                 0.0184
 IR Inten    --      1.9890                 0.1755                 0.0457

                      7                      8                      9
                      A                      A                      A
 Frequencies --    178.4365               205.4612               219.3199
 Red. masses --      3.0445                 1.4454                 1.9086
 Frc consts  --      0.0571                 0.0360                 0.0541
 IR Inten    --      0.3315                 0.3144                 0.6738

                     10                     11                     12
                      A                      A                      A
 Frequencies --    234.6618               243.2225               259.0417
 Red. masses --      1.3401                 1.1334                 1.1510
 Frc consts  --      0.0435                 0.0395                 0.0455
 IR Inten    --     10.5712                 2.4811                36.5750

                     13                     14                     15
                      A                      A                      A
 Frequencies --    273.5893               282.6484               297.5855
 Red. masses --      2.3432                 1.1128                 1.8682
 Frc consts  --      0.1033                 0.0524                 0.0975
 IR Inten    --      6.4715                 2.4817                 2.4525

                     16                     17                     18
                      A                      A                      A
 Frequencies --    312.4509               334.2689               371.2606
 Red. masses --      2.2472                 2.4955                 2.5383
 Frc consts  --      0.1293                 0.1643                 0.2061
 IR Inten    --      3.8139                 1.5337                 0.9051

                     19                     20                     21
                      A                      A                      A
 Frequencies --    388.3401               408.6917               427.6477
 Red. masses --      4.4618                 2.0626                 2.4514
 Frc consts  --      0.3964                 0.2030                 0.2641
 IR Inten    --      7.8115                 3.1213                 6.2452

                     22                     23                     24
                      A                      A                      A
 Frequencies --    445.7908               508.8176               570.7412
 Red. masses --      2.5804                 2.7223                 4.2629
 Frc consts  --      0.3021                 0.4152                 0.8182
 IR Inten    --      6.0582                 3.8533                 1.6523

                     25                     26                     27
                      A                      A                      A
 Frequencies --    605.3984               745.5863               764.9046
 Red. masses --      3.0845                 1.5098                 6.5899
 Frc consts  --      0.6661                 0.4945                 2.2717
 IR Inten    --      6.0641                 4.2358                13.5682

                     28                     29                     30
                      A                      A                      A
 Frequencies --    800.2783               834.0558               864.0764
 Red. masses --      3.6479                 1.8971                 1.5622
 Frc consts  --      1.3765                 0.7775                 0.6872
 IR Inten    --      2.7850                 2.5200                 0.5036

                     31                     32                     33
                      A                      A                      A
 Frequencies --    882.1036               910.1671               917.4087
 Red. masses --      2.3990                 1.5610                 1.4661
 Frc consts  --      1.0998                 0.7619                 0.7270
 IR Inten    --     65.3300                 8.0888               103.9342

                     34                     35                     36
                      A                      A                      A
 Frequencies --    944.4420               946.9633               973.4928
 Red. masses --      1.6890                 1.6676                 1.5719
 Frc consts  --      0.8876                 0.8810                 0.8777
 IR Inten    --      1.9839                 1.4793                 3.6419

                     37                     38                     39
                      A                      A                      A
 Frequencies --    997.4823              1015.2977              1033.4873
 Red. masses --      1.7442                 3.2942                 1.5425
 Frc consts  --      1.0225                 2.0007                 0.9707
 IR Inten    --      2.5717                25.5735                13.3479

                     40                     41                     42
                      A                      A                      A
 Frequencies --   1040.0820              1054.9009              1086.9393
 Red. masses --      1.3686                 1.5142                 2.5787
 Frc consts  --      0.8723                 0.9928                 1.7950
 IR Inten    --      9.8397                 2.3627                 0.3039

                     43                     44                     45
                      A                      A                      A
 Frequencies --   1127.3529              1165.6325              1184.4619
 Red. masses --      1.6030                 2.0327                 2.4116
 Frc consts  --      1.2004                 1.6272                 1.9934
 IR Inten    --     67.1618                 0.3264                22.6313

                     46                     47                     48
                      A                      A                      A
 Frequencies --   1190.8347              1198.9911              1232.9013
 Red. masses --      2.4929                 1.9434                 2.9970
 Frc consts  --      2.0829                 1.6461                 2.6841
 IR Inten    --     11.9422                 1.7547               340.6048

                     49                     50                     51
                      A                      A                      A
 Frequencies --   1279.1929              1292.6768              1302.0302
 Red. masses --      1.4201                 2.0134                 1.5354
 Frc consts  --      1.3691                 1.9822                 1.5336
 IR Inten    --      8.1837                19.9871                25.3342

                     52                     53                     54
                      A                      A                      A
 Frequencies --   1333.1977              1353.8022              1378.3092
 Red. masses --      1.2437                 1.2402                 1.2699
 Frc consts  --      1.3024                 1.3392                 1.4214
 IR Inten    --      2.2363                 2.7046                 3.9563

                     55                     56                     57
                      A                      A                      A
 Frequencies --   1384.0226              1399.8579              1416.9739
 Red. masses --      1.9081                 1.3582                 1.2346
 Frc consts  --      2.1535                 1.5681                 1.4605
 IR Inten    --     18.5021                 4.6877                 5.5062

                     58                     59                     60
                      A                      A                      A
 Frequencies --   1425.4999              1431.7163              1441.1494
 Red. masses --      1.4379                 1.3998                 1.2361
 Frc consts  --      1.7216                 1.6906                 1.5126
 IR Inten    --      3.1388                 4.1926                 4.0021

                     61                     62                     63
                      A                      A                      A
 Frequencies --   1444.2450              1446.9173              1506.7659
 Red. masses --      1.2715                 1.2926                 1.0773
 Frc consts  --      1.5626                 1.5945                 1.4411
 IR Inten    --     13.7133                 2.8710                 0.4207

                     64                     65                     66
                      A                      A                      A
 Frequencies --   1511.0811              1515.3777              1519.4116
 Red. masses --      1.0497                 1.0509                 1.0889
 Frc consts  --      1.4122                 1.4219                 1.4812
 IR Inten    --      0.7425                 1.5375                 3.1424

                     67                     68                     69
                      A                      A                      A
 Frequencies --   1522.0518              1528.6297              1529.4178
 Red. masses --      1.0659                 1.0540                 1.0586
 Frc consts  --      1.4549                 1.4512                 1.4589
 IR Inten    --      6.1850                 6.2866                 6.5737

                     70                     71                     72
                      A                      A                      A
 Frequencies --   1534.1936              1535.0808              1540.9107
 Red. masses --      1.0500                 1.0454                 1.0856
 Frc consts  --      1.4562                 1.4515                 1.5188
 IR Inten    --      2.3460                 1.4511                28.8783

                     73                     74                     75
                      A                      A                      A
 Frequencies --   1545.3020              1668.4830              1814.6761
 Red. masses --      1.0694                 1.1246                 9.0258
 Frc consts  --      1.5046                 1.8445                17.5118
 IR Inten    --      6.1873                70.1277               161.8651

                     76                     77                     78
                      A                      A                      A
 Frequencies --   3034.5758              3041.6399              3043.4077
 Red. masses --      1.0714                 1.0647                 1.0358
 Frc consts  --      5.8131                 5.8034                 5.6526
 IR Inten    --      7.0511                19.7956                14.6197

                     79                     80                     81
                      A                      A                      A
 Frequencies --   3044.0819              3045.2421              3049.5920
 Red. masses --      1.0442                 1.0445                 1.0535
 Frc consts  --      5.7009                 5.7069                 5.7724
 IR Inten    --     26.9056                20.8919                30.2271

                     82                     83                     84
                      A                      A                      A
 Frequencies --   3060.7901              3068.1589              3085.2888
 Red. masses --      1.0393                 1.1013                 1.0609
 Frc consts  --      5.7365                 6.1082                 5.9499
 IR Inten    --     23.7425                12.6608                25.5829

                     85                     86                     87
                      A                      A                      A
 Frequencies --   3089.0186              3106.6399              3109.2568
 Red. masses --      1.0984                 1.1017                 1.1014
 Frc consts  --      6.1751                 6.2645                 6.2737
 IR Inten    --     53.7768                28.1822                67.9462

                     88                     89                     90
                      A                      A                      A
 Frequencies --   3114.6660              3115.9180              3123.8768
 Red. masses --      1.1024                 1.1019                 1.1032
 Frc consts  --      6.3009                 6.3033                 6.3429
 IR Inten    --     21.9090                52.2493                18.2578

                     91                     92                     93
                      A                      A                      A
 Frequencies --   3129.7174              3130.6064              3145.4795
 Red. masses --      1.0996                 1.0975                 1.1078
 Frc consts  --      6.3457                 6.3377                 6.4580
 IR Inten    --     30.3275                31.7220                14.9319

                     94                     95                     96
                      A                      A                      A
 Frequencies --   3158.6122              3474.1010              3566.6973
 Red. masses --      1.1038                 1.0489                 1.0929
 Frc consts  --      6.4883                 7.4592                 8.1918
 IR Inten    --     20.4188                 4.3226                 1.6235

 - Thermochemistry -
 -------------------
 Temperature   298.150 Kelvin.  Pressure   1.00000 Atm.
 Atom     1 has atomic number  6 and mass  12.00000

 Molecular mass:   187.15723 amu.
 Principal axes and moments of inertia in atomic units:
                           1         2         3
     Eigenvalues --  1461.109824325.161064834.07566
           X            0.99995  -0.00803   0.00643
           Y            0.00797   0.99993   0.00906
           Z           -0.00650  -0.00901   0.99994
 This molecule is an asymmetric top.
 Rotational symmetry number  1.
 Warning -- assumption of classical behavior for rotation
           may cause significant error
 Rotational temperatures (Kelvin)      0.05928     0.02003     0.01792
 Rotational constants (GHZ):           1.23519     0.41727     0.37334
 Zero-point vibrational energy     808692.8 (Joules/Mol)
                                  193.28223 (Kcal/Mol)
 Warning -- explicit consideration of  25 degrees of freedom as
           vibrations may cause significant error
 Vibrational temperatures:     35.50    44.67    78.52    97.95   119.60
          (Kelvin)            178.16   256.73   295.61   315.55   337.63
                              349.94   372.70   393.63   406.67   428.16
                              449.55   480.94   534.16   558.73   588.02
                              615.29   641.39   732.08   821.17   871.03
                             1072.73  1100.53  1151.42  1200.02  1243.21
                             1269.15  1309.53  1319.95  1358.84  1362.47
                             1400.64  1435.15  1460.79  1486.96  1496.45
                             1517.77  1563.86  1622.01  1677.09  1704.18
                             1713.35  1725.08  1773.87  1840.47  1859.87
                             1873.33  1918.17  1947.82  1983.08  1991.30
                             2014.08  2038.71  2050.98  2059.92  2073.49
                             2077.95  2081.79  2167.90  2174.11  2180.29
                             2186.09  2189.89  2199.36  2200.49  2207.36
                             2208.64  2217.03  2223.34  2400.57  2610.91
                             4366.08  4376.24  4378.78  4379.75  4381.42
                             4387.68  4403.79  4414.40  4439.04  4444.41
                             4469.76  4473.53  4481.31  4483.11  4494.56
                             4502.97  4504.24  4525.64  4544.54  4998.46
                             5131.68

 Zero-point correction=                           0.308015 (Hartree/Particle)
 Thermal correction to Energy=                    0.324169
 Thermal correction to Enthalpy=                  0.325113
 Thermal correction to Gibbs Free Energy=         0.263785
 Sum of electronic and zero-point Energies=           -598.677236
 Sum of electronic and thermal Energies=              -598.661082
 Sum of electronic and thermal Enthalpies=            -598.660138
 Sum of electronic and thermal Free Energies=         -598.721466

                     E (Thermal)             CV                S
                      KCal/Mol        Cal/Mol-Kelvin    Cal/Mol-Kelvin
 Total                  203.419             59.344            129.077
 Electronic               0.000              0.000              0.000
 Translational            0.889              2.981             41.586
 Rotational               0.889              2.981             31.791
 Vibrational            201.642             53.382             55.700
 Vibration     1          0.593              1.985              6.217
 Vibration     2          0.594              1.983              5.761
 Vibration     3          0.596              1.976              4.644
 Vibration     4          0.598              1.969              4.208
 Vibration     5          0.600              1.961              3.816
 Vibration     6          0.610              1.929              3.040
 Vibration     7          0.629              1.869              2.345
 Vibration     8          0.640              1.832              2.084
 Vibration     9          0.647              1.812              1.965
 Vibration    10          0.654              1.788              1.843
 Vibration    11          0.659              1.774              1.779
 Vibration    12          0.668              1.747              1.668
 Vibration    13          0.676              1.722              1.573
 Vibration    14          0.682              1.706              1.518
 Vibration    15          0.691              1.678              1.430
 Vibration    16          0.701              1.650              1.349
 Vibration    17          0.716              1.607              1.239
 Vibration    18          0.743              1.531              1.075
 Vibration    19          0.757              1.495              1.007
 Vibration    20          0.773              1.451              0.931
 Vibration    21          0.789              1.410              0.866
 Vibration    22          0.805              1.370              0.809
 Vibration    23          0.864              1.230              0.636
 Vibration    24          0.927              1.095              0.503
 Vibration    25          0.964              1.020              0.440

 Optimization completed.
    -- Stationary point found.
 Normal termination of Gaussian 16 at Wed Dec  9 23:46:15 2020.

 ----------------------------------------------------------------------
 # B3LYP/6-311++G(d,p) empiricaldispersion=gd3bj scf=xqc pop=npa geom=c
 heck
 ----------------------------------------------------------------------

 ---------------------------------------
 CID_103284361_JID_3548_Energie_neutraal
 ---------------------------------------
 Structure from the checkpoint file:  "JID_3548.chk"
 Charge =  0 Multiplicity = 1

 SCF Done:  E(RB3LYP) =  -599.167138851     A.U. after   14 cycles
 Normal termination of Gaussian 16 at Wed Dec  9 23:49:59 2020.

 ----------------------------------------------------------------------
 # B3LYP/6-311++G(d,p) empiricaldispersion=gd3bj scf=xqc pop=npa geom=c
 heck
 ----------------------------------------------------------------------

 -------------------------------------
 CID_103284361_JID_3548_Energie_kation
 -------------------------------------
 Structure from the checkpoint file:  "JID_3548.chk"
 Charge =  1 Multiplicity = 2

 SCF Done:  E(UB3LYP) =  -598.835154633     A.U. after   27 cycles
 Normal termination of Gaussian 16 at Wed Dec  9 23:59:27 2020.
 Gaussian 16:  ES64L-G16RevA.03 25-Dec-2016

 ----------------------------------------------------------------------
 # B3LYP/6-311++G(d,p) empiricaldispersion=gd3bj scf=xqc pop=npa geom=c
 heck
 ----------------------------------------------------------------------

 ------------------------------------
 CID_103284361_JID_3548_Energie_anion
 ------------------------------------
 Structure from the checkpoint file:  "JID_3548.chk"
 Charge = -1 Multiplicity = 2

                         Standard orientation:
 ---------------------------------------------------------------------
 Center     Atomic      Atomic             Coordinates (Angstroms)
 Number     Number       Type             X           Y           Z
 ---------------------------------------------------------------------
      1          6           0        3.236274    2.030541   -0.617052
      2          6           0        3.026738    1.283709    0.703794
      3          6           0        1.825823    0.326812    0.694040
      4          6           0        1.881385   -0.789482   -0.363830
      5          6           0        3.114328   -1.688688   -0.203444
      6          6           0        0.627903   -1.664014   -0.315688
      7          8           0       -0.552843   -0.896437   -0.642588
      8          6           0       -1.384894   -0.563819    0.364258
      9          8           0       -1.223828   -0.886529    1.522722
     10          6           0       -2.516943    0.350458   -0.115633
     11          6           0       -1.922973    1.780685   -0.168300
     12          6           0       -3.039309   -0.057221   -1.499676
     13          7           0       -3.604999    0.210279    0.857361
     14          1           0        3.499877    1.348778   -1.433467
     15          1           0        4.042564    2.767243   -0.531143
     16          1           0        2.325161    2.564638   -0.914704
     17          1           0        3.942030    0.738374    0.966965
     18          1           0        2.872415    2.014162    1.508420
     19          1           0        1.716902   -0.133355    1.685123
     20          1           0        0.917296    0.919321    0.531431
     21          1           0        1.912436   -0.330057   -1.361109
     22          1           0        3.142780   -2.139319    0.796562
     23          1           0        3.112939   -2.501683   -0.938876
     24          1           0        4.040514   -1.122881   -0.339684
     25          1           0        0.676191   -2.449966   -1.074597
     26          1           0        0.493978   -2.116389    0.669732
     27          1           0       -1.094608    1.849173   -0.881750
     28          1           0       -2.701297    2.487154   -0.480510
     29          1           0       -1.558943    2.081948    0.820134
     30          1           0       -3.414352   -1.083749   -1.475105
     31          1           0       -3.870902    0.600159   -1.779037
     32          1           0       -2.261355    0.022906   -2.262328
     33          1           0       -3.208882    0.207652    1.795506
     34          1           0       -4.226379    1.013788    0.785020
 ---------------------------------------------------------------------

 SCF Done:  E(UB3LYP) =  -599.153582834     A.U. after   32 cycles

 The electronic state is 2-A.
 Alpha  occ. eigenvalues --  -19.07563 -19.02138 -14.19676 -10.20815 -10.13038
 Alpha  occ. eigenvalues --  -10.12792 -10.08337 -10.06958 -10.06910 -10.06856
 Alpha  occ. eigenvalues --  -10.06726 -10.06511 -10.05959  -1.01635  -0.93182
 Alpha  occ. eigenvalues --   -0.80312  -0.72792  -0.68012  -0.66354  -0.61299
 Alpha  occ. eigenvalues --   -0.59835  -0.58769  -0.53687  -0.51140  -0.46707
 Alpha  occ. eigenvalues --   -0.46079  -0.42243  -0.39310  -0.39167  -0.38239
 Alpha  occ. eigenvalues --   -0.36478  -0.35824  -0.34071  -0.33611  -0.32732
 Alpha  occ. eigenvalues --   -0.32092  -0.30827  -0.30148  -0.29403  -0.28669
 Alpha  occ. eigenvalues --   -0.28163  -0.27895  -0.26328  -0.26066  -0.25528
 Alpha  occ. eigenvalues --   -0.25102  -0.24195  -0.22975  -0.22077  -0.20600
 Alpha  occ. eigenvalues --   -0.18851  -0.15221   0.04257
 Alpha virt. eigenvalues --    0.05978   0.06894   0.07681   0.08281   0.08700
 Alpha virt. eigenvalues --    0.08967   0.09622   0.10005   0.10106   0.10872
 Alpha virt. eigenvalues --    0.11019   0.11771   0.12144   0.12712   0.13258

  Beta  occ. eigenvalues --  -19.07559 -19.02134 -14.19651 -10.20811 -10.13026
  Beta  occ. eigenvalues --  -10.12790 -10.08327 -10.06920 -10.06894 -10.06822
  Beta  occ. eigenvalues --  -10.06718 -10.06487 -10.05924  -1.01626  -0.93175
  Beta  occ. eigenvalues --   -0.80277  -0.72767  -0.67978  -0.66315  -0.61256
  Beta  occ. eigenvalues --   -0.59779  -0.58717  -0.53635  -0.51079  -0.46685
  Beta  occ. eigenvalues --   -0.46026  -0.42214  -0.39289  -0.39138  -0.38210
  Beta  occ. eigenvalues --   -0.36438  -0.35793  -0.34046  -0.33576  -0.32691
  Beta  occ. eigenvalues --   -0.32058  -0.30795  -0.30112  -0.29361  -0.28641
  Beta  occ. eigenvalues --   -0.28135  -0.27858  -0.26296  -0.26032  -0.25496
  Beta  occ. eigenvalues --   -0.25073  -0.24169  -0.22942  -0.22052  -0.20583
  Beta  occ. eigenvalues --   -0.18840  -0.15192
  Beta virt. eigenvalues --    0.06385   0.07011   0.07548   0.08101   0.08643
  Beta virt. eigenvalues --    0.09178   0.09296   0.09881   0.10311   0.10510
  Beta virt. eigenvalues --    0.11206   0.11417   0.12140   0.12394   0.12982

 Mulliken charges and spin densities:
               1          2
     1  C    0.627480  -1.196105
     2  C   -0.365134  -0.050286
     3  C   -0.094688   0.027024
     4  C   -1.037238   1.573621
     5  C    0.530563  -1.224278
     6  C    0.487752  -1.040782
     7  O    0.074899   0.025896
     8  C   -0.219159  -0.197786
     9  O   -0.208683   0.004406
    10  C   -0.252156   0.453553
    11  C   -0.123242  -0.504383
    12  C    0.798362  -1.298709
    13  N   -0.371352   0.078165
    14  H   -0.264353   0.415605
    15  H   -0.326338   0.463723
    16  H   -0.239236   0.378432
    17  H    0.012892   0.121542
    18  H   -0.173307   0.323773
    19  H   -0.014254   0.197280
    20  H    1.186178  -1.074048
    21  H    0.070462   0.126289
    22  H   -0.043764   0.191650
    23  H   -0.321592   0.453485
    24  H   -0.132264   0.286318
    25  H   -0.082453   0.253468
    26  H    0.259076  -0.053503
    27  H    0.132936   0.035206
    28  H   -0.678465   0.844902
    29  H   -0.250446   0.434595
    30  H    0.063133   0.113182
    31  H   -0.178717   0.321886
    32  H   -0.069018   0.228628
    33  H    0.171462   0.078981
    34  H    0.030662   0.208272
 Sum of Mulliken charges =  -1.00000   1.00000

 Dipole moment (field-independent basis, Debye):
    X=             -0.5640    Y=             -2.9354    Z=              1.6231  Tot=              3.4013
 Quadrupole moment (field-independent basis, Debye-Ang):
   XX=           -167.5046   YY=           -131.9431   ZZ=           -118.5825
   XY=              3.1118   XZ=              5.4086   YZ=              1.3768

 Summary of Natural Population Analysis:

                                       Natural Population
                Natural  -----------------------------------------------
    Atom  No    Charge         Core      Valence    Rydberg      Total
 -----------------------------------------------------------------------
      C    1   -0.28771      0.99967     2.28328    0.00477     3.28771
      C    2   -0.18939      0.99964     2.18139    0.00835     3.18939
      C    3   -0.18906      0.99961     2.18142    0.00803     3.18906
      C    4   -0.12545      0.99959     2.11596    0.00990     3.12545
      C    5   -0.28749      0.99965     2.28128    0.00656     3.28749
      C    6   -0.01158      0.99951     2.00022    0.01185     3.01158
      O    7   -0.28096      0.99985     3.27242    0.00869     4.28096
      C    8    0.41992      0.99960     1.55414    0.02634     2.58008
      O    9   -0.31251      0.99987     3.30733    0.00532     4.31251
      C   10    0.00980      0.99956     1.97762    0.01302     2.99020
      C   11   -0.28869      0.99962     2.28165    0.00742     3.28869
      C   12   -0.28387      0.99963     2.27652    0.00773     3.28387
      N   13   -0.42409      0.99975     2.91329    0.01104     3.92409
      H   14    0.09665      0.00000     0.40210    0.00125     0.40335
      H   15    0.09907      0.00000     0.39983    0.00110     0.40093
      H   16    0.09750      0.00000     0.40113    0.00138     0.40250
      H   17    0.09307      0.00000     0.40576    0.00116     0.40693
      H   18    0.09580      0.00000     0.40327    0.00093     0.40420
      H   19    0.09865      0.00000     0.40020    0.00115     0.40135
      H   20    0.09862      0.00000     0.39944    0.00194     0.40138
      H   21    0.09907      0.00000     0.39889    0.00204     0.40093
      H   22    0.09632      0.00000     0.40274    0.00094     0.40368
      H   23    0.10089      0.00000     0.39787    0.00125     0.39911
      H   24    0.10479      0.00000     0.39414    0.00107     0.39521
      H   25    0.09242      0.00000     0.40652    0.00106     0.40758
      H   26    0.09806      0.00000     0.40060    0.00134     0.40194
      H   27    0.10522      0.00000     0.39313    0.00165     0.39478
      H   28    0.10274      0.00000     0.39536    0.00190     0.39726
      H   29    0.10267      0.00000     0.39568    0.00165     0.39733
      H   30    0.10360      0.00000     0.39530    0.00110     0.39640
      H   31    0.09986      0.00000     0.39907    0.00106     0.40014
      H   32    0.10653      0.00000     0.39223    0.00124     0.39347
      H   33    0.18454      0.00000     0.31349    0.00197     0.31546
      H   34    0.17499      0.00000     0.32321    0.00180     0.32501
 =======================================================================
   * Total *    0.00000     12.99556    38.84647    0.15797    52.00000

 Normal termination of Gaussian 16 at Thu Dec 10 00:10:45 2020.
