 Gaussian 16, Revision A.03,

 -----------------------------------------------------------
 # opt freq B3LYP/6-31G(d) empiricaldispersion=gd3bj scf=xqc
 -----------------------------------------------------------

 -------------------------------
 CID_105298505_JID_3356_neutraal
 -------------------------------
 Symbolic Z-matrix:
 Charge =  0 Multiplicity = 1

 SCF Done:  E(RB3LYP) =  -931.661753939     A.U. after   16 cycles
 SCF Done:  E(RB3LYP) =  -931.670717243     A.U. after   13 cycles
 SCF Done:  E(RB3LYP) =  -931.672271363     A.U. after   13 cycles
 SCF Done:  E(RB3LYP) =  -931.672503736     A.U. after   12 cycles
 SCF Done:  E(RB3LYP) =  -931.672572946     A.U. after   12 cycles
 SCF Done:  E(RB3LYP) =  -931.672657086     A.U. after   11 cycles
 SCF Done:  E(RB3LYP) =  -931.672753244     A.U. after   12 cycles
 SCF Done:  E(RB3LYP) =  -931.672865512     A.U. after   13 cycles
 SCF Done:  E(RB3LYP) =  -931.672911220     A.U. after   13 cycles
 SCF Done:  E(RB3LYP) =  -931.673024534     A.U. after   13 cycles
 SCF Done:  E(RB3LYP) =  -931.679350280     A.U. after   12 cycles
 SCF Done:  E(RB3LYP) =  -931.679353333     A.U. after   10 cycles
 SCF Done:  E(RB3LYP) =  -931.679353949     A.U. after    8 cycles
 SCF Done:  E(RB3LYP) =  -931.679354154     A.U. after    8 cycles
 SCF Done:  E(RB3LYP) =  -931.679354171     A.U. after    7 cycles
 Optimization completed.
    -- Stationary point found.
 Normal termination of Gaussian 16 at Wed Dec  9 23:13:55 2020.

 --------------------------------------------------------------------
 #N Geom=AllCheck Guess=TCheck SCRF=Check GenChk RB3LYP/6-31G(d) Freq
 --------------------------------------------------------------------

 Structure from the checkpoint file:  "JID_3356.chk"
 -------------------------------
 CID_105298505_JID_3356_neutraal
 -------------------------------
 Charge =  0 Multiplicity = 1

 SCF Done:  E(RB3LYP) =  -931.679354171     A.U. after    1 cycles

  Exact polarizability: 132.910  14.077 124.942   8.880  -0.094 111.497
 Approx polarizability: 183.352  37.880 193.869  19.135  -2.194 194.023

                      1                      2                      3
                      A                      A                      A
 Frequencies --     30.3436                47.0617                66.1366
 Red. masses --      4.3394                 4.2945                 2.7138
 Frc consts  --      0.0024                 0.0056                 0.0070
 IR Inten    --      0.1709                 0.2195                 0.0613

                      4                      5                      6
                      A                      A                      A
 Frequencies --     87.4760                99.6637               135.0115
 Red. masses --      4.3402                 2.6493                 4.2061
 Frc consts  --      0.0196                 0.0155                 0.0452
 IR Inten    --      0.1954                 0.1355                 1.0445

                      7                      8                      9
                      A                      A                      A
 Frequencies --    181.7810               199.6880               217.2361
 Red. masses --      2.3533                 3.6761                 1.0357
 Frc consts  --      0.0458                 0.0864                 0.0288
 IR Inten    --      6.3278                 0.9084                 0.0328

                     10                     11                     12
                      A                      A                      A
 Frequencies --    247.3950               252.6233               300.0557
 Red. masses --      1.8623                 2.4204                 2.8411
 Frc consts  --      0.0672                 0.0910                 0.1507
 IR Inten    --      0.8562                 1.2303                 1.2636

                     13                     14                     15
                      A                      A                      A
 Frequencies --    320.7008               347.2430               360.1440
 Red. masses --      1.8895                 2.4191                 1.5543
 Frc consts  --      0.1145                 0.1719                 0.1188
 IR Inten    --      0.0866                 6.6684                18.0698

                     16                     17                     18
                      A                      A                      A
 Frequencies --    414.7201               438.9640               510.0714
 Red. masses --      2.4014                 3.3930                 3.2552
 Frc consts  --      0.2433                 0.3852                 0.4990
 IR Inten    --      0.4591                 0.9438                 1.6889

                     19                     20                     21
                      A                      A                      A
 Frequencies --    526.5012               574.9337               626.9184
 Red. masses --      6.1168                 3.3792                 2.9662
 Frc consts  --      0.9990                 0.6581                 0.6869
 IR Inten    --     17.1509                 8.9653                 3.6233

                     22                     23                     24
                      A                      A                      A
 Frequencies --    700.8000               740.3352               760.8036
 Red. masses --      9.5945                 5.5431                 4.1753
 Frc consts  --      2.7763                 1.7900                 1.4239
 IR Inten    --      4.6328                 5.4986                16.6281

                     25                     26                     27
                      A                      A                      A
 Frequencies --    780.3634               796.0280               811.0665
 Red. masses --      1.6824                 5.2093                 2.1642
 Frc consts  --      0.6036                 1.9449                 0.8388
 IR Inten    --     11.4251               105.1526                36.9811

                     28                     29                     30
                      A                      A                      A
 Frequencies --    812.9221               896.5392               919.3746
 Red. masses --      1.7850                 1.4599                 1.6039
 Frc consts  --      0.6950                 0.6913                 0.7987
 IR Inten    --     25.8475                 8.4260                10.1013

                     31                     32                     33
                      A                      A                      A
 Frequencies --    951.6194               975.6173               983.6095
 Red. masses --      1.7310                 2.9323                 1.5920
 Frc consts  --      0.9236                 1.6444                 0.9075
 IR Inten    --     11.9884                25.0898                60.9785

                     34                     35                     36
                      A                      A                      A
 Frequencies --    991.8580              1008.9328              1059.6229
 Red. masses --      1.5839                 1.7382                 2.8252
 Frc consts  --      0.9181                 1.0425                 1.8689
 IR Inten    --     18.5089                 0.2710                 1.0928

                     37                     38                     39
                      A                      A                      A
 Frequencies --   1080.2683              1083.4912              1148.4928
 Red. masses --      2.1180                 2.0818                 2.1643
 Frc consts  --      1.4563                 1.4399                 1.6820
 IR Inten    --     19.3480                 6.6374                 1.1011

                     40                     41                     42
                      A                      A                      A
 Frequencies --   1158.1026              1184.4740              1207.8451
 Red. masses --      2.0344                 1.8544                 2.1694
 Frc consts  --      1.6076                 1.5328                 1.8647
 IR Inten    --     27.9028                19.1087                11.0286

                     43                     44                     45
                      A                      A                      A
 Frequencies --   1229.1203              1259.7016              1313.1502
 Red. masses --      1.8291                 1.4231                 1.2305
 Frc consts  --      1.6281                 1.3306                 1.2501
 IR Inten    --      1.9096                 3.9483                 1.1058

                     46                     47                     48
                      A                      A                      A
 Frequencies --   1323.2811              1334.4559              1362.9566
 Red. masses --      1.3430                 1.3670                 1.4431
 Frc consts  --      1.3856                 1.4342                 1.5795
 IR Inten    --      3.7057                 0.8399                 4.7788

                     49                     50                     51
                      A                      A                      A
 Frequencies --   1367.4227              1371.7585              1390.6773
 Red. masses --      1.6104                 1.3173                 2.3611
 Frc consts  --      1.7741                 1.4605                 2.6904
 IR Inten    --      1.0421                 1.3383                 1.0762

                     52                     53                     54
                      A                      A                      A
 Frequencies --   1409.9259              1417.8665              1419.0118
 Red. masses --      1.5118                 1.4511                 2.3092
 Frc consts  --      1.7707                 1.7188                 2.7395
 IR Inten    --      3.7080                 1.9117                20.5452

                     55                     56                     57
                      A                      A                      A
 Frequencies --   1440.3175              1443.9669              1513.4135
 Red. masses --      1.2894                 1.2196                 1.0689
 Frc consts  --      1.5760                 1.4983                 1.4424
 IR Inten    --      4.1894                 1.1544                 0.6073

                     58                     59                     60
                      A                      A                      A
 Frequencies --   1518.8364              1523.8950              1528.0364
 Red. masses --      1.0819                 1.1081                 1.0547
 Frc consts  --      1.4705                 1.5161                 1.4509
 IR Inten    --      2.0324                 4.6555                 5.7637

                     61                     62                     63
                      A                      A                      A
 Frequencies --   1531.3538              1535.3588              1545.1273
 Red. masses --      1.0571                 1.0661                 1.0525
 Frc consts  --      1.4606                 1.4807                 1.4805
 IR Inten    --      4.3136                 6.8659                 1.3633

                     64                     65                     66
                      A                      A                      A
 Frequencies --   1549.3840              1729.3018              3011.3135
 Red. masses --      6.1217                 1.0628                 1.0799
 Frc consts  --      8.6584                 1.8726                 5.7696
 IR Inten    --      3.1360                16.0336                12.5095

                     67                     68                     69
                      A                      A                      A
 Frequencies --   3023.2303              3027.1114              3043.9229
 Red. masses --      1.0675                 1.0667                 1.0388
 Frc consts  --      5.7484                 5.7593                 5.6708
 IR Inten    --     24.9169                29.1598                31.2151

                     70                     71                     72
                      A                      A                      A
 Frequencies --   3048.4592              3071.2667              3082.4471
 Red. masses --      1.0380                 1.0952                 1.0930
 Frc consts  --      5.6836                 6.0867                 6.1190
 IR Inten    --     27.1974                14.6617                21.6956

                     73                     74                     75
                      A                      A                      A
 Frequencies --   3099.8221              3104.7570              3111.7202
 Red. masses --      1.0881                 1.1004                 1.1010
 Frc consts  --      6.1601                 6.2499                 6.2812
 IR Inten    --     12.3751                49.3007                47.0329

                     76                     77                     78
                      A                      A                      A
 Frequencies --   3121.8695              3131.5720              3227.1290
 Red. masses --      1.1020                 1.0994                 1.0932
 Frc consts  --      6.3278                 6.3524                 6.7077
 IR Inten    --     41.4862                34.0482                 3.0509

                     79                     80                     81
                      A                      A                      A
 Frequencies --   3385.5549              3486.2911              3523.5108
 Red. masses --      1.0547                 1.0754                 1.0859
 Frc consts  --      7.1223                 7.7011                 7.9432
 IR Inten    --      6.8652                 1.0988                 0.0004

 - Thermochemistry -
 -------------------
 Temperature   298.150 Kelvin.  Pressure   1.00000 Atm.
 Atom     1 has atomic number  6 and mass  12.00000

 Molecular mass:   200.10957 amu.
 Principal axes and moments of inertia in atomic units:
                           1         2         3
     Eigenvalues --  2102.872003903.032604866.59713
           X            0.99881  -0.04885   0.00048
           Y            0.04884   0.99873   0.01238
           Z           -0.00108  -0.01234   0.99992
 This molecule is an asymmetric top.
 Rotational symmetry number  1.
 Warning -- assumption of classical behavior for rotation
           may cause significant error
 Rotational temperatures (Kelvin)      0.04119     0.02219     0.01780
 Rotational constants (GHZ):           0.85823     0.46239     0.37084
 Zero-point vibrational energy     655524.5 (Joules/Mol)
                                  156.67411 (Kcal/Mol)
 Warning -- explicit consideration of  20 degrees of freedom as
           vibrations may cause significant error
 Vibrational temperatures:     43.66    67.71    95.16   125.86   143.39
          (Kelvin)            194.25   261.54   287.31   312.55   355.95
                              363.47   431.71   461.42   499.61   518.17
                              596.69   631.57   733.88   757.52   827.20
                              902.00  1008.29  1065.18  1094.63  1122.77
                             1145.31  1166.94  1169.61  1289.92  1322.78
                             1369.17  1403.70  1415.19  1427.06  1451.63
                             1524.56  1554.27  1558.90  1652.43  1666.25
                             1704.19  1737.82  1768.43  1812.43  1889.33
                             1903.91  1919.98  1960.99  1967.42  1973.65
                             2000.87  2028.57  2039.99  2041.64  2072.30
                             2077.55  2177.46  2185.27  2192.55  2198.50
                             2203.28  2209.04  2223.09  2229.22  2488.08
                             4332.61  4349.75  4355.34  4379.53  4386.05
                             4418.87  4434.95  4459.95  4467.05  4477.07
                             4491.67  4505.63  4643.12  4871.06  5016.00
                             5069.55

 Zero-point correction=                           0.249676 (Hartree/Particle)
 Thermal correction to Energy=                    0.263926
 Thermal correction to Enthalpy=                  0.264870
 Thermal correction to Gibbs Free Energy=         0.207436
 Sum of electronic and zero-point Energies=           -931.429678
 Sum of electronic and thermal Energies=              -931.415428
 Sum of electronic and thermal Enthalpies=            -931.414484
 Sum of electronic and thermal Free Energies=         -931.471918

                     E (Thermal)             CV                S
                      KCal/Mol        Cal/Mol-Kelvin    Cal/Mol-Kelvin
 Total                  165.616             52.466            120.880
 Electronic               0.000              0.000              0.000
 Translational            0.889              2.981             41.786
 Rotational               0.889              2.981             32.057
 Vibrational            163.839             46.504             47.037
 Vibration     1          0.594              1.984              5.807
 Vibration     2          0.595              1.979              4.937
 Vibration     3          0.598              1.970              4.265
 Vibration     4          0.601              1.958              3.716
 Vibration     5          0.604              1.949              3.461
 Vibration     6          0.613              1.918              2.873
 Vibration     7          0.630              1.865              2.310
 Vibration     8          0.638              1.840              2.136
 Vibration     9          0.646              1.815              1.982
 Vibration    10          0.661              1.767              1.749
 Vibration    11          0.664              1.758              1.712
 Vibration    12          0.693              1.674              1.417
 Vibration    13          0.706              1.634              1.307
 Vibration    14          0.725              1.581              1.179
 Vibration    15          0.735              1.554              1.121
 Vibration    16          0.778              1.438              0.910
 Vibration    17          0.799              1.385              0.830
 Vibration    18          0.865              1.228              0.633
 Vibration    19          0.881              1.191              0.595
 Vibration    20          0.931              1.085              0.495

 Optimization completed.
    -- Stationary point found.
 Normal termination of Gaussian 16 at Wed Dec  9 23:22:26 2020.

 ----------------------------------------------------------------------
 # B3LYP/6-311++G(d,p) empiricaldispersion=gd3bj scf=xqc pop=npa geom=c
 heck
 ----------------------------------------------------------------------

 ---------------------------------------
 CID_105298505_JID_3356_Energie_neutraal
 ---------------------------------------
 Structure from the checkpoint file:  "JID_3356.chk"
 Charge =  0 Multiplicity = 1

 SCF Done:  E(RB3LYP) =  -931.862822998     A.U. after   16 cycles
 Normal termination of Gaussian 16 at Wed Dec  9 23:26:57 2020.

 ----------------------------------------------------------------------
 # B3LYP/6-311++G(d,p) empiricaldispersion=gd3bj scf=xqc pop=npa geom=c
 heck
 ----------------------------------------------------------------------

 -------------------------------------
 CID_105298505_JID_3356_Energie_kation
 -------------------------------------
 Structure from the checkpoint file:  "JID_3356.chk"
 Charge =  1 Multiplicity = 2

 SCF Done:  E(UB3LYP) =  -931.537249030     A.U. after   28 cycles
 Normal termination of Gaussian 16 at Wed Dec  9 23:38:03 2020.
 Gaussian 16:  ES64L-G16RevA.03 25-Dec-2016

 ----------------------------------------------------------------------
 # B3LYP/6-311++G(d,p) empiricaldispersion=gd3bj scf=xqc pop=npa geom=c
 heck
 ----------------------------------------------------------------------

 ------------------------------------
 CID_105298505_JID_3356_Energie_anion
 ------------------------------------
 Structure from the checkpoint file:  "JID_3356.chk"
 Charge = -1 Multiplicity = 2

                         Standard orientation:
 ---------------------------------------------------------------------
 Center     Atomic      Atomic             Coordinates (Angstroms)
 Number     Number       Type             X           Y           Z
 ---------------------------------------------------------------------
      1          6           0        3.314220   -1.590167   -1.288975
      2          6           0        2.468210   -0.335631   -1.052803
      3          6           0        2.125462   -0.070323    0.424442
      4          6           0        3.379581    0.060635    1.298826
      5          6           0        1.256765    1.190149    0.592701
      6          6           0       -0.048183    1.219820   -0.211838
      7          6           0       -0.933535    0.019484    0.034710
      8          7           0       -1.711972   -0.447377   -0.930250
      9         16           0       -2.649993   -1.666396   -0.275463
     10          7           0       -2.055255   -1.592426    1.280504
     11          6           0       -1.146247   -0.641360    1.296123
     12          7           0       -0.761136    2.480035    0.085201
     13          7           0       -1.930807    2.722637   -0.695337
     14          1           0        4.315456   -1.498322   -0.855923
     15          1           0        3.435243   -1.781459   -2.360685
     16          1           0        2.838057   -2.473472   -0.845529
     17          1           0        2.987329    0.543904   -1.461559
     18          1           0        1.536791   -0.436657   -1.623004
     19          1           0        1.552963   -0.936938    0.787886
     20          1           0        4.023720    0.871886    0.936012
     21          1           0        3.111652    0.288285    2.337188
     22          1           0        3.970208   -0.860093    1.304359
     23          1           0        1.020124    1.318959    1.659216
     24          1           0        1.831565    2.078318    0.304421
     25          1           0        0.175048    1.247374   -1.282106
     26          1           0       -0.620882   -0.421745    2.219367
     27          1           0       -1.053104    2.484712    1.061064
     28          1           0       -1.615937    3.140868   -1.568875
     29          1           0       -2.391792    1.840989   -0.944357
 ---------------------------------------------------------------------

 SCF Done:  E(UB3LYP) =  -931.869593274     A.U. after   33 cycles
 SCF Done:  E(UB3LYP) =  -931.869593274     a.u. after    1 cycles

 The electronic state is 2-A.
 Alpha  occ. eigenvalues --  -88.74109 -14.20415 -14.19984 -14.15860 -14.15679
 Alpha  occ. eigenvalues --  -10.08088 -10.06637 -10.06261 -10.06132 -10.05928
 Alpha  occ. eigenvalues --  -10.05601 -10.05361 -10.04908  -7.82464  -5.78929
 Alpha  occ. eigenvalues --   -5.78378  -5.77984  -0.84861  -0.83388  -0.72254
 Alpha  occ. eigenvalues --   -0.71211  -0.67661  -0.63190  -0.60364  -0.58312
 Alpha  occ. eigenvalues --   -0.53416  -0.50721  -0.45590  -0.44810  -0.41531
 Alpha  occ. eigenvalues --   -0.38355  -0.36834  -0.36468  -0.34777  -0.34129
 Alpha  occ. eigenvalues --   -0.32781  -0.32107  -0.29922  -0.28721  -0.28209
 Alpha  occ. eigenvalues --   -0.27714  -0.26340  -0.25079  -0.24790  -0.22183
 Alpha  occ. eigenvalues --   -0.22055  -0.21290  -0.20960  -0.17028  -0.15857
 Alpha  occ. eigenvalues --   -0.14212  -0.13014  -0.12520  -0.10459   0.04923
 Alpha virt. eigenvalues --    0.06521   0.08156   0.08700   0.09518   0.10206
 Alpha virt. eigenvalues --    0.10808   0.11836   0.11995   0.12254   0.13273
 Alpha virt. eigenvalues --    0.13608   0.13815   0.14120   0.14503   0.15107

  Beta  occ. eigenvalues --  -88.74030 -14.20380 -14.19980 -14.15262 -14.15010
  Beta  occ. eigenvalues --  -10.08093 -10.06626 -10.06252 -10.06127 -10.05914
  Beta  occ. eigenvalues --  -10.05594 -10.05309 -10.04881  -7.82394  -5.78900
  Beta  occ. eigenvalues --   -5.78351  -5.77711  -0.84675  -0.82780  -0.71965
  Beta  occ. eigenvalues --   -0.70445  -0.67529  -0.63167  -0.60104  -0.58170
  Beta  occ. eigenvalues --   -0.53373  -0.50616  -0.45425  -0.44148  -0.41300
  Beta  occ. eigenvalues --   -0.38243  -0.36767  -0.36416  -0.34707  -0.34022
  Beta  occ. eigenvalues --   -0.32744  -0.32035  -0.29784  -0.28699  -0.28144
  Beta  occ. eigenvalues --   -0.27064  -0.25484  -0.24978  -0.24443  -0.22133
  Beta  occ. eigenvalues --   -0.21832  -0.21177  -0.20609  -0.16494  -0.14100
  Beta  occ. eigenvalues --   -0.12766  -0.12483  -0.11879  -0.09417
  Beta virt. eigenvalues --    0.06745   0.08207   0.08671   0.09564   0.10188
  Beta virt. eigenvalues --    0.10772   0.11641   0.11809   0.12026   0.12307
  Beta virt. eigenvalues --    0.13383   0.13636   0.13852   0.14136   0.14470

 Mulliken charges and spin densities:
               1          2
     1  C   -0.323219  -0.409022
     2  C   -0.474520   0.142866
     3  C    0.045552   0.632708
     4  C    0.226393  -0.938892
     5  C   -0.082624  -0.456732
     6  C   -1.032825   0.546653
     7  C   -0.197342  -0.161266
     8  N   -0.090319   0.236311
     9  S    0.208074   0.188032
    10  N   -0.142496   0.249907
    11  C   -0.480926  -0.002111
    12  N    0.227738  -0.042060
    13  N   -0.614182   0.029241
    14  H   -0.053196   0.187946
    15  H    0.039758   0.087423
    16  H    0.108177   0.032864
    17  H    0.020106   0.111815
    18  H    0.219739  -0.061130
    19  H    0.215434  -0.014172
    20  H   -0.033187   0.177072
    21  H    0.050500   0.077223
    22  H    0.044990   0.085821
    23  H    0.059561   0.074298
    24  H    0.163881   0.004601
    25  H    0.135912   0.122357
    26  H    0.091162   0.036470
    27  H    0.181249   0.042796
    28  H    0.210062   0.002492
    29  H    0.276548   0.016491
 Sum of Mulliken charges =  -1.00000   1.00000

 Dipole moment (field-independent basis, Debye):
    X=              3.4792    Y=              1.0731    Z=             -0.9766  Tot=              3.7696
 Quadrupole moment (field-independent basis, Debye-Ang):
   XX=           -138.5452   YY=           -119.6225   ZZ=           -103.9415
   XY=             -3.6983   XZ=              2.8436   YZ=              0.3433

 Summary of Natural Population Analysis:

                                       Natural Population
                Natural  -----------------------------------------------
    Atom  No    Charge         Core      Valence    Rydberg      Total
 -----------------------------------------------------------------------
      C    1   -0.28641      0.99967     2.28167    0.00508     3.28641
      C    2   -0.19239      0.99962     2.18394    0.00883     3.19239
      C    3   -0.11551      0.99960     2.10759    0.00832     3.11551
      C    4   -0.28478      0.99965     2.27940    0.00573     3.28478
      C    5   -0.18662      0.99960     2.17524    0.01177     3.18662
      C    6   -0.02941      0.99954     2.01484    0.01504     3.02941
      C    7    0.05382      0.99955     1.92942    0.01721     2.94618
      N    8   -0.25175      0.99969     2.74006    0.01200     3.75175
      S    9    0.36395      4.99953     2.60148    0.03504     7.63605
      N   10   -0.22066      0.99973     2.70774    0.01318     3.72066
      C   11   -0.03217      0.99957     2.01365    0.01895     3.03217
      N   12   -0.24834      0.99974     2.73337    0.01523     3.74834
      N   13   -0.33104      0.99978     2.82040    0.01087     3.83104
      H   14    0.09411      0.00000     0.40505    0.00085     0.40589
      H   15    0.09648      0.00000     0.40282    0.00071     0.40352
      H   16    0.09733      0.00000     0.40185    0.00082     0.40267
      H   17    0.08990      0.00000     0.40909    0.00101     0.41010
      H   18    0.10451      0.00000     0.39406    0.00143     0.39549
      H   19    0.10194      0.00000     0.39593    0.00213     0.39806
      H   20    0.09457      0.00000     0.40451    0.00092     0.40543
      H   21    0.09772      0.00000     0.40157    0.00072     0.40228
      H   22    0.09753      0.00000     0.40176    0.00071     0.40247
      H   23    0.09617      0.00000     0.40271    0.00112     0.40383
      H   24    0.09876      0.00000     0.39948    0.00176     0.40124
      H   25    0.09604      0.00000     0.40092    0.00304     0.40396
      H   26    0.08998      0.00000     0.40803    0.00199     0.41002
      H   27    0.16733      0.00000     0.32982    0.00285     0.33267
      H   28    0.16315      0.00000     0.33463    0.00222     0.33685
      H   29    0.17581      0.00000     0.32145    0.00274     0.32419
 =======================================================================
   * Total *    0.00000     16.99527    36.80245    0.20228    54.00000

 Normal termination of Gaussian 16 at Wed Dec  9 23:50:55 2020.
