 Gaussian 16, Revision A.03,

 -----------------------------------------------------------
 # opt freq B3LYP/6-31G(d) empiricaldispersion=gd3bj scf=xqc
 -----------------------------------------------------------

 ------------------------------
 CID_143319121_JID_352_neutraal
 ------------------------------
 Symbolic Z-matrix:
 Charge =  0 Multiplicity = 1

 SCF Done:  E(RB3LYP) =  -422.641850862     A.U. after   15 cycles
 SCF Done:  E(RB3LYP) =  -422.697364475     A.U. after   14 cycles
 SCF Done:  E(RB3LYP) =  -422.725233153     A.U. after   13 cycles
 SCF Done:  E(RB3LYP) =  -422.742047268     A.U. after   14 cycles
 SCF Done:  E(RB3LYP) =  -422.744745764     A.U. after   12 cycles
 SCF Done:  E(RB3LYP) =  -422.744434004     A.U. after   12 cycles
 SCF Done:  E(RB3LYP) =  -422.745467097     A.U. after   12 cycles
 SCF Done:  E(RB3LYP) =  -422.745867550     A.U. after   12 cycles
 SCF Done:  E(RB3LYP) =  -422.745921687     A.U. after   10 cycles
 SCF Done:  E(RB3LYP) =  -422.745932850     A.U. after    8 cycles
 SCF Done:  E(RB3LYP) =  -422.745934766     A.U. after    8 cycles
 SCF Done:  E(RB3LYP) =  -422.745935338     A.U. after    8 cycles
 SCF Done:  E(RB3LYP) =  -422.745934693     A.U. after    8 cycles
 SCF Done:  E(RB3LYP) =  -422.745934635     A.U. after    7 cycles
 SCF Done:  E(RB3LYP) =  -422.745935325     A.U. after    8 cycles
 SCF Done:  E(RB3LYP) =  -422.745934467     A.U. after    8 cycles
 Optimization completed.
    -- Stationary point found.

 1\1\GINC-NODE306\FOpt\RB3LYP\6-31G(d)\C8H14N2\VSC10255\08-Dec-2020\0\\
 # opt freq B3LYP/6-31G(d) empiricaldispersion=gd3bj scf=xqc\\CID_14331
 9121_JID_352_neutraal\\0,1\C,0.6953298664,0.1515572299,0.3205055307\C,
 0.3596574702,1.0778743116,-0.8291762284\C,0.0644717274,2.5469407979,-0
 .6151662034\C,1.1931181026,2.1242342619,-1.5438062834\N,2.5729730172,2
 .5388097105,-1.4171115021\C,2.7121685101,3.9650874298,-1.6675709027\C,
 3.5035291427,2.0399618543,-0.4172785878\C,3.3236836246,2.5215984634,1.
 0421517111\C,3.6354920704,0.573242855,-0.501489219\N,3.793022495,-0.57

 Normal termination of Gaussian 16 at Tue Dec  8 10:29:32 2020.

 --------------------------------------------------------------------
 #N Geom=AllCheck Guess=TCheck SCRF=Check GenChk RB3LYP/6-31G(d) Freq
 --------------------------------------------------------------------

 Structure from the checkpoint file:  "JID_352.chk"
 ------------------------------
 CID_143319121_JID_352_neutraal
 ------------------------------
 Charge =  0 Multiplicity = 1

 SCF Done:  E(RB3LYP) =  -422.745934467     A.U. after    1 cycles

  Exact polarizability:  92.951  -3.565  99.419   0.120   3.501  77.102
 Approx polarizability: 125.778 -10.140 141.697  -4.247  10.429 115.279

                      1                      2                      3
                      A                      A                      A
 Frequencies --     37.7057               121.0099               135.2025
 Red. masses --      2.8596                 4.2813                 6.5848
 Frc consts  --      0.0024                 0.0369                 0.0709
 IR Inten    --      0.5535                 2.7047                 3.5575

                      4                      5                      6
                      A                      A                      A
 Frequencies --    170.1334               194.6350               220.7879
 Red. masses --      2.4595                 1.6954                 1.6404
 Frc consts  --      0.0419                 0.0378                 0.0471
 IR Inten    --      2.7818                 0.6331                 0.9821

                      7                      8                      9
                      A                      A                      A
 Frequencies --    238.1621               241.6595               254.5257
 Red. masses --      1.4116                 1.8514                 1.3063
 Frc consts  --      0.0472                 0.0637                 0.0499
 IR Inten    --      1.3076                 1.0661                 0.4240

                     10                     11                     12
                      A                      A                      A
 Frequencies --    284.7682               341.5761               355.5902
 Red. masses --      1.8675                 3.0109                 2.8212
 Frc consts  --      0.0892                 0.2070                 0.2102
 IR Inten    --      0.9470                 2.7933                 3.8337

                     13                     14                     15
                      A                      A                      A
 Frequencies --    402.3106               480.9705               532.7657
 Red. masses --      2.9142                 2.9414                 4.1357
 Frc consts  --      0.2779                 0.4009                 0.6916
 IR Inten    --      2.1315                 7.7606                 0.9534

                     16                     17                     18
                      A                      A                      A
 Frequencies --    567.0763               580.7309               709.8675
 Red. masses --      4.2639                 4.1605                 2.3544
 Frc consts  --      0.8079                 0.8267                 0.6990
 IR Inten    --      0.5040                 9.1430                 4.4928

                     19                     20                     21
                      A                      A                      A
 Frequencies --    763.3240               828.6443               880.7697
 Red. masses --      3.1664                 2.4410                 1.1552
 Frc consts  --      1.0870                 0.9875                 0.5280
 IR Inten    --      1.7573                 1.6717                 4.0367

                     22                     23                     24
                      A                      A                      A
 Frequencies --    913.0737               941.3503               993.1566
 Red. masses --      2.3743                 1.4146                 2.0389
 Frc consts  --      1.1663                 0.7385                 1.1849
 IR Inten    --      2.6600                 1.8732                 1.7251

                     25                     26                     27
                      A                      A                      A
 Frequencies --   1016.4306              1050.2518              1077.1008
 Red. masses --      2.3948                 1.6121                 1.6376
 Frc consts  --      1.4577                 1.0477                 1.1193
 IR Inten    --      8.8605                11.1693                 8.2713

                     28                     29                     30
                      A                      A                      A
 Frequencies --   1086.9668              1125.2132              1147.2061
 Red. masses --      2.0310                 1.5997                 1.4679
 Frc consts  --      1.4138                 1.1933                 1.1382
 IR Inten    --     16.0135                 7.2859                19.6008

                     31                     32                     33
                      A                      A                      A
 Frequencies --   1149.5274              1162.3731              1177.1032
 Red. masses --      1.5921                 1.8004                 1.4266
 Frc consts  --      1.2396                 1.4332                 1.1646
 IR Inten    --     23.3824                 8.5262                 1.3547

                     34                     35                     36
                      A                      A                      A
 Frequencies --   1186.4952              1221.0864              1276.8905
 Red. masses --      2.1057                 1.5586                 1.9497
 Frc consts  --      1.7466                 1.3692                 1.8730
 IR Inten    --     22.7667                 1.4338                16.0167

                     37                     38                     39
                      A                      A                      A
 Frequencies --   1349.4924              1359.3604              1416.4842
 Red. masses --      2.3689                 1.3255                 1.4657
 Frc consts  --      2.5418                 1.4432                 1.7327
 IR Inten    --     60.8262                 6.6433                13.2788

                     40                     41                     42
                      A                      A                      A
 Frequencies --   1423.5353              1430.9365              1452.5029
 Red. masses --      1.2457                 1.2912                 1.2360
 Frc consts  --      1.4873                 1.5577                 1.5364
 IR Inten    --      8.9591                 6.2406                10.6384

                     43                     44                     45
                      A                      A                      A
 Frequencies --   1455.5467              1490.8087              1510.9327
 Red. masses --      1.3482                 1.1539                 1.0630
 Frc consts  --      1.6829                 1.5110                 1.4297
 IR Inten    --      2.7233                 3.1430                13.1908

                     46                     47                     48
                      A                      A                      A
 Frequencies --   1514.5949              1523.6248              1524.6648
 Red. masses --      1.1063                 1.0478                 1.2090
 Frc consts  --      1.4952                 1.4331                 1.6559
 IR Inten    --      4.7539                 5.3630                 6.7539

                     49                     50                     51
                      A                      A                      A
 Frequencies --   1529.8640              1538.8632              1547.5874
 Red. masses --      1.1051                 1.0835                 1.0593
 Frc consts  --      1.5239                 1.5118                 1.4947
 IR Inten    --      4.7258                 4.1869                 4.5944

                     52                     53                     54
                      A                      A                      A
 Frequencies --   2371.9502              2980.1968              3014.3207
 Red. masses --     12.6712                 1.0556                 1.0822
 Frc consts  --     42.0030                 5.5236                 5.7933
 IR Inten    --      2.9064                64.4812                14.7792

                     55                     56                     57
                      A                      A                      A
 Frequencies --   3059.5307              3072.8528              3074.3482
 Red. masses --      1.0473                 1.0628                 1.0518
 Frc consts  --      5.7761                 5.9129                 5.8575
 IR Inten    --     34.5252                20.8477                34.0478

                     58                     59                     60
                      A                      A                      A
 Frequencies --   3109.3266              3116.0392              3129.8583
 Red. masses --      1.0871                 1.1036                 1.0863
 Frc consts  --      6.1925                 6.3136                 6.2697
 IR Inten    --     19.0664                30.1921                13.2429

                     61                     62                     63
                      A                      A                      A
 Frequencies --   3135.0615              3137.5347              3138.6931
 Red. masses --      1.0905                 1.0597                 1.0988
 Frc consts  --      6.3149                 6.1464                 6.3775
 IR Inten    --     29.5329                 5.2384                24.0144

                     64                     65                     66
                      A                      A                      A
 Frequencies --   3165.7865              3182.9577              3217.4842
 Red. masses --      1.1014                 1.0964                 1.1166
 Frc consts  --      6.5036                 6.5448                 6.8106
 IR Inten    --     39.6026                 9.1353                22.8754

 - Thermochemistry -
 -------------------
 Temperature   298.150 Kelvin.  Pressure   1.00000 Atm.
 Atom     1 has atomic number  6 and mass  12.00000

 Molecular mass:   138.11570 amu.
 Principal axes and moments of inertia in atomic units:
                           1         2         3
     Eigenvalues --  1244.318831343.801211963.65818
           X            0.96715   0.25170   0.03569
           Y           -0.25143   0.96780  -0.01193
           Z           -0.03754   0.00257   0.99929
 This molecule is an asymmetric top.
 Rotational symmetry number  1.
 Warning -- assumption of classical behavior for rotation
           may cause significant error
 Rotational temperatures (Kelvin)      0.06961     0.06445     0.04411
 Rotational constants (GHZ):           1.45038     1.34301     0.91907
 Zero-point vibrational energy     555313.6 (Joules/Mol)
                                  132.72313 (Kcal/Mol)
 Warning -- explicit consideration of  17 degrees of freedom as
           vibrations may cause significant error
 Vibrational temperatures:     54.25   174.11   194.53   244.78   280.04
          (Kelvin)            317.66   342.66   347.69   366.21   409.72
                              491.45   511.62   578.84   692.01   766.53
                              815.90   835.54  1021.34  1098.25  1192.23
                             1267.23  1313.71  1354.39  1428.93  1462.42
                             1511.08  1549.71  1563.90  1618.93  1650.57
                             1653.91  1672.40  1693.59  1707.10  1756.87
                             1837.16  1941.62  1955.82  2038.00  2048.15
                             2058.80  2089.83  2094.21  2144.94  2173.90
                             2179.16  2192.16  2193.65  2201.13  2214.08
                             2226.63  3412.71  4287.84  4336.94  4401.98
                             4421.15  4423.30  4473.63  4483.29  4503.17
                             4510.65  4514.21  4515.88  4554.86  4579.57
                             4629.24

 Zero-point correction=                           0.211508 (Hartree/Particle)
 Thermal correction to Energy=                    0.222830
 Thermal correction to Enthalpy=                  0.223775
 Thermal correction to Gibbs Free Energy=         0.175009
 Sum of electronic and zero-point Energies=           -422.534427
 Sum of electronic and thermal Energies=              -422.523104
 Sum of electronic and thermal Enthalpies=            -422.522160
 Sum of electronic and thermal Free Energies=         -422.570925

                     E (Thermal)             CV                S
                      KCal/Mol        Cal/Mol-Kelvin    Cal/Mol-Kelvin
 Total                  139.828             41.888            102.636
 Electronic               0.000              0.000              0.000
 Translational            0.889              2.981             40.681
 Rotational               0.889              2.981             29.575
 Vibrational            138.051             35.927             32.381
 Vibration     1          0.594              1.982              5.376
 Vibration     2          0.609              1.932              3.084
 Vibration     3          0.613              1.918              2.871
 Vibration     4          0.625              1.879              2.434
 Vibration     5          0.635              1.847              2.183
 Vibration     6          0.648              1.809              1.953
 Vibration     7          0.656              1.782              1.817
 Vibration     8          0.658              1.777              1.791
 Vibration     9          0.665              1.755              1.699
 Vibration    10          0.683              1.702              1.505
 Vibration    11          0.721              1.592              1.205
 Vibration    12          0.731              1.564              1.141
 Vibration    13          0.768              1.465              0.954
 Vibration    14          0.837              1.292              0.707
 Vibration    15          0.888              1.178              0.581
 Vibration    16          0.923              1.102              0.510
 Vibration    17          0.937              1.073              0.484

 Optimization completed.
    -- Stationary point found.

 1\1\GINC-NODE306\Freq\RB3LYP\6-31G(d)\C8H14N2\VSC10255\08-Dec-2020\0\\
 #N Geom=AllCheck Guess=TCheck SCRF=Check GenChk RB3LYP/6-31G(d) Freq\\
 CID_143319121_JID_352_neutraal\\0,1\C,0.6953298664,0.1515572299,0.3205
 055307\C,0.3596574702,1.0778743116,-0.8291762284\C,0.0644717274,2.5469
 407979,-0.6151662034\C,1.1931181026,2.1242342619,-1.5438062834\N,2.572
 9730172,2.5388097105,-1.4171115021\C,2.7121685101,3.9650874298,-1.6675
 709027\C,3.5035291427,2.0399618543,-0.4172785878\C,3.3236836246,2.5215
 984634,1.0421517111\C,3.6354920704,0.573242855,-0.501489219\N,3.793022

 Normal termination of Gaussian 16 at Tue Dec  8 10:34:36 2020.

 ----------------------------------------------------------------------
 # B3LYP/6-311++G(d,p) empiricaldispersion=gd3bj scf=xqc pop=npa geom=c
 heck
 ----------------------------------------------------------------------

 --------------------------------------
 CID_143319121_JID_352_Energie_neutraal
 --------------------------------------
 Structure from the checkpoint file:  "JID_352.chk"
 Charge =  0 Multiplicity = 1

 SCF Done:  E(RB3LYP) =  -422.863376003     A.U. after   13 cycles
 Normal termination of Gaussian 16 at Tue Dec  8 10:37:48 2020.

 ----------------------------------------------------------------------
 # B3LYP/6-311++G(d,p) empiricaldispersion=gd3bj scf=xqc pop=npa geom=c
 heck
 ----------------------------------------------------------------------

 ------------------------------------
 CID_143319121_JID_352_Energie_kation
 ------------------------------------
 Structure from the checkpoint file:  "JID_352.chk"
 Charge =  1 Multiplicity = 2

 SCF Done:  E(UB3LYP) =  -422.568103616     A.U. after   20 cycles
 Normal termination of Gaussian 16 at Tue Dec  8 10:44:02 2020.
 Gaussian 16:  ES64L-G16RevA.03 25-Dec-2016

 -----------------------------------
 CID_143319121_JID_352_Energie_anion
 -----------------------------------
 Structure from the checkpoint file:  "JID_352.chk"
 Charge = -1 Multiplicity = 2

                         Standard orientation:
 ---------------------------------------------------------------------
 Center     Atomic      Atomic             Coordinates (Angstroms)
 Number     Number       Type             X           Y           Z
 ---------------------------------------------------------------------
      1          6           0       -0.557781   -2.237805    0.483487
      2          6           0       -1.443432   -1.256368   -0.254694
      3          6           0       -2.158326   -0.128554    0.458086
      4          6           0       -1.201845    0.177811   -0.684798
      5          7           0       -0.053299    1.052338   -0.595536
      6          6           0       -0.465370    2.431429   -0.384163
      7          6           0        1.196149    0.720090    0.070003
      8          6           0        1.208736    0.701630    1.617179
      9          6           0        1.791492   -0.502826   -0.500797
     10          7           0        2.309637   -1.441636   -0.942946
     11          1           0        0.129045   -2.749911   -0.194559
     12          1           0       -1.196176   -2.989819    0.963155
     13          1           0        0.041435   -1.776322    1.269705
     14          1           0       -2.052722   -1.769987   -0.997848
     15          1           0       -3.226930    0.020970    0.324911
     16          1           0       -1.799506    0.095855    1.459979
     17          1           0       -1.716173    0.394384   -1.621703
     18          1           0       -0.908273    2.617433    0.609368
     19          1           0        0.392556    3.100708   -0.514228
     20          1           0       -1.217868    2.697728   -1.134162
     21          1           0        1.892132    1.519594   -0.224242
     22          1           0        0.540998   -0.055887    2.027942
     23          1           0        2.220933    0.508449    1.986554
     24          1           0        0.888450    1.679451    1.988675
 ---------------------------------------------------------------------

 SCF Done:  E(UB3LYP) =  -422.850192888     A.U. after   29 cycles

 The electronic state is 2-A.
 Alpha  occ. eigenvalues --  -14.21333 -14.21044 -10.14382 -10.10903 -10.10341
 Alpha  occ. eigenvalues --  -10.08332 -10.08034 -10.06922 -10.06312 -10.06110
 Alpha  occ. eigenvalues --   -0.84152  -0.80440  -0.74855  -0.67832  -0.61579
 Alpha  occ. eigenvalues --   -0.58470  -0.55154  -0.49129  -0.47344  -0.41371
 Alpha  occ. eigenvalues --   -0.40136  -0.37075  -0.35383  -0.34088  -0.31782
 Alpha  occ. eigenvalues --   -0.31517  -0.30422  -0.29159  -0.28865  -0.28543
 Alpha  occ. eigenvalues --   -0.26341  -0.26137  -0.25207  -0.23390  -0.22438
 Alpha  occ. eigenvalues --   -0.20306  -0.18458  -0.10911   0.04638
 Alpha virt. eigenvalues --    0.06832   0.07697   0.08424   0.09566   0.09820
 Alpha virt. eigenvalues --    0.10314   0.11583   0.11729   0.12411   0.12603
 Alpha virt. eigenvalues --    0.12919   0.13341   0.14260   0.14832   0.15316

  Beta  occ. eigenvalues --  -14.21331 -14.21028 -10.14360 -10.10900 -10.10327
  Beta  occ. eigenvalues --  -10.08324 -10.07974 -10.06872 -10.06299 -10.06084
  Beta  occ. eigenvalues --   -0.84130  -0.80416  -0.74828  -0.67780  -0.61549
  Beta  occ. eigenvalues --   -0.58374  -0.55065  -0.49060  -0.47302  -0.41310
  Beta  occ. eigenvalues --   -0.40085  -0.37036  -0.35325  -0.34013  -0.31737
  Beta  occ. eigenvalues --   -0.31483  -0.30371  -0.29105  -0.28826  -0.28496
  Beta  occ. eigenvalues --   -0.26302  -0.26100  -0.25177  -0.23363  -0.22380
  Beta  occ. eigenvalues --   -0.20275  -0.18432  -0.10874
  Beta virt. eigenvalues --    0.07105   0.07976   0.08380   0.09092   0.10164
  Beta virt. eigenvalues --    0.10350   0.11004   0.11758   0.12123   0.12638
  Beta virt. eigenvalues --    0.13043   0.13554   0.13729   0.14582   0.15090

 Mulliken charges and spin densities:
               1          2
     1  C   -0.022259  -0.597177
     2  C    0.829164  -0.720479
     3  C    0.169809  -0.552349
     4  C   -1.127944   0.699139
     5  N    0.150106   0.033631
     6  C    1.479301  -1.732162
     7  C   -1.284516   1.550539
     8  C    1.725498  -2.308340
     9  C    0.357873  -0.551375
    10  N   -0.333354   0.021923
    11  H    0.127859   0.020218
    12  H   -0.060970   0.189787
    13  H    0.049290   0.064948
    14  H   -0.000478   0.187691
    15  H   -0.383628   0.544227
    16  H    0.045325   0.100366
    17  H   -0.253029   0.455421
    18  H   -0.249723   0.397124
    19  H   -0.577902   0.725448
    20  H   -0.420022   0.565798
    21  H   -0.347955   0.561838
    22  H   -0.065797   0.206899
    23  H   -0.130118   0.281583
    24  H   -0.676532   0.855303
 Sum of Mulliken charges =  -1.00000   1.00000

 Dipole moment (field-independent basis, Debye):
    X=             -0.3544    Y=             -4.9341    Z=             -0.2398  Tot=              4.9526
 Quadrupole moment (field-independent basis, Debye-Ang):
   XX=           -111.9889   YY=           -115.9860   ZZ=            -97.0495
   XY=              1.9326   XZ=             -1.3526   YZ=             -5.1170

 Summary of Natural Population Analysis:

                                       Natural Population
                Natural  -----------------------------------------------
    Atom  No    Charge         Core      Valence    Rydberg      Total
 -----------------------------------------------------------------------
      C    1   -0.28595      0.99963     2.28130    0.00501     3.28595
      C    2   -0.11225      0.99959     2.10199    0.01067     3.11225
      C    3   -0.20714      0.99960     2.19821    0.00933     3.20714
      C    4   -0.00515      0.99953     1.99112    0.01450     3.00515
      N    5   -0.27377      0.99970     2.75929    0.01479     3.77377
      C    6   -0.17415      0.99963     2.16547    0.00905     3.17415
      C    7   -0.05890      0.99949     2.04367    0.01574     3.05890
      C    8   -0.28678      0.99964     2.28080    0.00634     3.28678
      C    9    0.17248      0.99963     1.80970    0.01819     2.82752
      N   10   -0.18841      0.99979     2.67808    0.01054     3.68841
      H   11    0.10716      0.00000     0.39168    0.00116     0.39284
      H   12    0.09796      0.00000     0.40105    0.00099     0.40204
      H   13    0.09725      0.00000     0.40153    0.00122     0.40275
      H   14    0.10049      0.00000     0.39841    0.00110     0.39951
      H   15    0.10182      0.00000     0.39654    0.00164     0.39818
      H   16    0.10071      0.00000     0.39792    0.00136     0.39929
      H   17    0.09858      0.00000     0.39988    0.00154     0.40142
      H   18    0.08796      0.00000     0.40922    0.00282     0.41204
      H   19    0.09760      0.00000     0.40012    0.00228     0.40240
      H   20    0.09887      0.00000     0.39949    0.00163     0.40113
      H   21    0.12009      0.00000     0.37718    0.00273     0.37991
      H   22    0.09718      0.00000     0.40107    0.00175     0.40282
      H   23    0.10375      0.00000     0.39469    0.00155     0.39625
      H   24    0.11058      0.00000     0.38686    0.00256     0.38942
 =======================================================================
   * Total *   -0.00000      9.99623    27.86528    0.13849    38.00000

 Normal termination of Gaussian 16 at Tue Dec  8 10:50:41 2020.
