 Gaussian 16, Revision A.03,

 -----------------------------------------------------------
 # opt freq B3LYP/6-31G(d) empiricaldispersion=gd3bj scf=xqc
 -----------------------------------------------------------

 ------------------------------
 CID_43131932_JID_3876_neutraal
 ------------------------------
 Symbolic Z-matrix:
 Charge =  0 Multiplicity = 1

 SCF Done:  E(RB3LYP) =  -934.346331997     A.U. after   15 cycles
 SCF Done:  E(RB3LYP) =  -934.348008703     A.U. after   15 cycles
 SCF Done:  E(RB3LYP) =  -934.345822209     A.U. after   15 cycles
 SCF Done:  E(RB3LYP) =  -934.348055510     A.U. after   14 cycles
 SCF Done:  E(RB3LYP) =  -934.350472923     A.U. after   15 cycles
 SCF Done:  E(RB3LYP) =  -934.351036492     A.U. after   12 cycles
 SCF Done:  E(RB3LYP) =  -934.351052654     A.U. after   12 cycles
 SCF Done:  E(RB3LYP) =  -934.351279055     A.U. after   12 cycles
 SCF Done:  E(RB3LYP) =  -934.351345144     A.U. after   12 cycles
 SCF Done:  E(RB3LYP) =  -934.351378784     A.U. after   10 cycles
 SCF Done:  E(RB3LYP) =  -934.351475289     A.U. after   10 cycles
 SCF Done:  E(RB3LYP) =  -934.351488602     A.U. after   11 cycles
 SCF Done:  E(RB3LYP) =  -934.351488345     A.U. after    8 cycles
 SCF Done:  E(RB3LYP) =  -934.351490576     A.U. after   11 cycles
 SCF Done:  E(RB3LYP) =  -934.351491601     A.U. after   10 cycles
 Optimization completed.
    -- Stationary point found.
 Normal termination of Gaussian 16 at Sun Dec 13 20:07:09 2020.

 --------------------------------------------------------------------
 #N Geom=AllCheck Guess=TCheck SCRF=Check GenChk RB3LYP/6-31G(d) Freq
 --------------------------------------------------------------------

 Structure from the checkpoint file:  "JID_3876.chk"
 ------------------------------
 CID_43131932_JID_3876_neutraal
 ------------------------------
 Charge =  0 Multiplicity = 1

 SCF Done:  E(RB3LYP) =  -934.351491602     A.U. after    1 cycles

  Exact polarizability: 118.267  14.516 125.905  -5.684   4.180 110.781
 Approx polarizability: 158.676  21.877 196.553 -14.840   9.444 204.810

                      1                      2                      3
                      A                      A                      A
 Frequencies --     28.3044                39.9009                74.9937
 Red. masses --      7.9080                 4.0960                 6.0806
 Frc consts  --      0.0037                 0.0038                 0.0201
 IR Inten    --      2.1220                 1.8339                 0.1411

                      4                      5                      6
                      A                      A                      A
 Frequencies --     82.1352                97.0450               143.2272
 Red. masses --      5.7670                 5.2620                 3.9304
 Frc consts  --      0.0229                 0.0292                 0.0475
 IR Inten    --      1.2034                 1.2215                 3.7183

                      7                      8                      9
                      A                      A                      A
 Frequencies --    186.7094               208.5122               247.9705
 Red. masses --      4.7686                 2.5206                 3.8171
 Frc consts  --      0.0979                 0.0646                 0.1383
 IR Inten    --      4.1419                 2.8940                 0.5739

                     10                     11                     12
                      A                      A                      A
 Frequencies --    317.9370               322.2112               387.6675
 Red. masses --      2.7829                 1.9754                 2.6905
 Frc consts  --      0.1657                 0.1208                 0.2382
 IR Inten    --      0.6855                 2.6988                 6.3023

                     13                     14                     15
                      A                      A                      A
 Frequencies --    420.0698               441.4402               483.2082
 Red. masses --      1.2697                 1.8186                 3.2503
 Frc consts  --      0.1320                 0.2088                 0.4471
 IR Inten    --    160.1988                43.3348                 4.0017

                     16                     17                     18
                      A                      A                      A
 Frequencies --    525.6756               544.4480               565.1816
 Red. masses --      3.4798                 3.0941                 3.6235
 Frc consts  --      0.5666                 0.5404                 0.6819
 IR Inten    --      3.2428                17.6434                 0.5862

                     19                     20                     21
                      A                      A                      A
 Frequencies --    594.2466               615.2804               680.2610
 Red. masses --      1.2890                 3.2972                 3.5615
 Frc consts  --      0.2682                 0.7354                 0.9710
 IR Inten    --     10.3504                 3.0072                 7.5994

                     22                     23                     24
                      A                      A                      A
 Frequencies --    713.0906               747.7432               750.9285
 Red. masses --      1.2399                 4.6446                 2.7911
 Frc consts  --      0.3715                 1.5300                 0.9273
 IR Inten    --     68.1073                 6.9091                 2.8526

                     25                     26                     27
                      A                      A                      A
 Frequencies --    755.0736               804.6508               836.4919
 Red. masses --      1.7642                 2.4271                 1.3220
 Frc consts  --      0.5926                 0.9259                 0.5450
 IR Inten    --     43.5333                10.6026                19.1305

                     28                     29                     30
                      A                      A                      A
 Frequencies --    849.1294               868.0410               906.7833
 Red. masses --      1.9854                 3.0034                 2.0488
 Frc consts  --      0.8434                 1.3333                 0.9926
 IR Inten    --      0.7439                19.1248                 0.3644

                     31                     32                     33
                      A                      A                      A
 Frequencies --    910.2584               944.4780               987.7285
 Red. masses --      1.3604                 2.2513                 2.5087
 Frc consts  --      0.6641                 1.1832                 1.4420
 IR Inten    --      0.7879                 1.9983                19.6884

                     34                     35                     36
                      A                      A                      A
 Frequencies --   1020.7544              1047.1449              1080.0760
 Red. masses --      1.8459                 1.7858                 1.5386
 Frc consts  --      1.1332                 1.1537                 1.0575
 IR Inten    --      3.8893                 3.9076                 1.6095

                     37                     38                     39
                      A                      A                      A
 Frequencies --   1107.4655              1116.6676              1125.3240
 Red. masses --      1.7111                 1.4986                 1.9226
 Frc consts  --      1.2365                 1.1010                 1.4345
 IR Inten    --     12.2447                 1.3327                 1.4444

                     40                     41                     42
                      A                      A                      A
 Frequencies --   1159.8091              1164.9291              1219.2212
 Red. masses --      2.2707                 2.7768                 1.4705
 Frc consts  --      1.7996                 2.2202                 1.2879
 IR Inten    --     12.7321                14.2654                39.0329

                     43                     44                     45
                      A                      A                      A
 Frequencies --   1227.1501              1242.9184              1289.4754
 Red. masses --      1.2721                 1.2802                 1.3263
 Frc consts  --      1.1287                 1.1652                 1.2993
 IR Inten    --      1.1753                18.1886                19.8684

                     46                     47                     48
                      A                      A                      A
 Frequencies --   1321.7002              1341.4263              1370.2128
 Red. masses --      1.5305                 1.4706                 1.3967
 Frc consts  --      1.5752                 1.5591                 1.5450
 IR Inten    --     14.2187                27.2788                 0.5731

                     49                     50                     51
                      A                      A                      A
 Frequencies --   1391.7877              1398.3353              1404.6025
 Red. masses --      1.4513                 1.6441                 2.0200
 Frc consts  --      1.6564                 1.8941                 2.3481
 IR Inten    --     28.5951                44.5041                27.7198

                     52                     53                     54
                      A                      A                      A
 Frequencies --   1422.5586              1495.7111              1507.2684
 Red. masses --      1.4400                 6.0098                 1.1098
 Frc consts  --      1.7169                 7.9215                 1.4855
 IR Inten    --      3.0776                 6.0068                 7.7053

                     55                     56                     57
                      A                      A                      A
 Frequencies --   1510.2054              1515.0005              1542.1961
 Red. masses --      1.1098                 1.0980                 1.2073
 Frc consts  --      1.4912                 1.4848                 1.6917
 IR Inten    --      6.2127                 4.1263                31.3292

                     58                     59                     60
                      A                      A                      A
 Frequencies --   1553.1873              1593.5264              1649.5572
 Red. masses --      1.0939                 5.0042                 1.2268
 Frc consts  --      1.5548                 7.4870                 1.9668
 IR Inten    --     20.2910                 1.8647                97.5058

                     61                     62                     63
                      A                      A                      A
 Frequencies --   1803.1057              2939.9141              3048.5193
 Red. masses --      8.7992                 1.0727                 1.0827
 Frc consts  --     16.8552                 5.4626                 5.9285
 IR Inten    --    327.4538                52.7867                23.8479

                     64                     65                     66
                      A                      A                      A
 Frequencies --   3057.7883              3065.8798              3068.0224
 Red. masses --      1.0608                 1.0644                 1.0637
 Frc consts  --      5.8439                 5.8945                 5.8993
 IR Inten    --     49.1336                51.3637                12.9069

                     67                     68                     69
                      A                      A                      A
 Frequencies --   3105.1246              3109.0377              3124.3476
 Red. masses --      1.1038                 1.1040                 1.1028
 Frc consts  --      6.2703                 6.2873                 6.3423
 IR Inten    --     19.4445                12.1199                27.5110

                     70                     71                     72
                      A                      A                      A
 Frequencies --   3208.6153              3228.3510              3272.5611
 Red. masses --      1.0901                 1.0938                 1.0970
 Frc consts  --      6.6121                 6.7165                 6.9220
 IR Inten    --      5.4919                 5.2141                 0.7389

                     73                     74                     75
                      A                      A                      A
 Frequencies --   3502.3183              3576.7261              3695.2129
 Red. masses --      1.0731                 1.0463                 1.1039
 Frc consts  --      7.7554                 7.8860                 8.8806
 IR Inten    --      6.4294                65.1108                37.6232

 - Thermochemistry -
 -------------------
 Temperature   298.150 Kelvin.  Pressure   1.00000 Atm.
 Atom     1 has atomic number  6 and mass  12.00000

 Molecular mass:   198.08268 amu.
 Principal axes and moments of inertia in atomic units:
                           1         2         3
     Eigenvalues --  1836.549993414.981534316.69711
           X            0.99940   0.03450  -0.00440
           Y           -0.03448   0.99940   0.00420
           Z            0.00455  -0.00405   0.99998
 This molecule is an asymmetric top.
 Rotational symmetry number  1.
 Warning -- assumption of classical behavior for rotation
           may cause significant error
 Rotational temperatures (Kelvin)      0.04716     0.02536     0.02006
 Rotational constants (GHZ):           0.98268     0.52848     0.41808
 Zero-point vibrational energy     596365.7 (Joules/Mol)
                                  142.53482 (Kcal/Mol)
 Warning -- explicit consideration of  20 degrees of freedom as
           vibrations may cause significant error
 Vibrational temperatures:     40.72    57.41   107.90   118.17   139.63
          (Kelvin)            206.07   268.63   300.00   356.77   457.44
                              463.59   557.77   604.39   635.13   695.23
                              756.33   783.34   813.17   854.99   885.25
                              978.74  1025.98  1075.84  1080.42  1086.38
                             1157.71  1203.53  1221.71  1248.92  1304.66
                             1309.66  1358.89  1421.12  1468.64  1506.61
                             1553.99  1593.40  1606.64  1619.09  1668.71
                             1676.07  1754.19  1765.60  1788.28  1855.27
                             1901.63  1930.01  1971.43  2002.47  2011.89
                             2020.91  2046.74  2151.99  2168.62  2172.85
                             2179.75  2218.88  2234.69  2292.73  2373.34
                             2594.27  4229.88  4386.14  4399.48  4411.12
                             4414.20  4467.58  4473.21  4495.24  4616.48
                             4644.88  4708.49  5039.05  5146.11  5316.59

 Zero-point correction=                           0.227144 (Hartree/Particle)
 Thermal correction to Energy=                    0.240405
 Thermal correction to Enthalpy=                  0.241349
 Thermal correction to Gibbs Free Energy=         0.185828
 Sum of electronic and zero-point Energies=           -934.124348
 Sum of electronic and thermal Energies=              -934.111087
 Sum of electronic and thermal Enthalpies=            -934.110142
 Sum of electronic and thermal Free Energies=         -934.165664

                     E (Thermal)             CV                S
                      KCal/Mol        Cal/Mol-Kelvin    Cal/Mol-Kelvin
 Total                  150.856             49.860            116.855
 Electronic               0.000              0.000              0.000
 Translational            0.889              2.981             41.755
 Rotational               0.889              2.981             31.671
 Vibrational            149.079             43.898             43.428
 Vibration     1          0.593              1.984              5.945
 Vibration     2          0.594              1.981              5.264
 Vibration     3          0.599              1.966              4.018
 Vibration     4          0.600              1.961              3.839
 Vibration     5          0.603              1.951              3.513
 Vibration     6          0.616              1.910              2.760
 Vibration     7          0.632              1.858              2.260
 Vibration     8          0.642              1.828              2.057
 Vibration     9          0.662              1.766              1.745
 Vibration    10          0.704              1.639              1.321
 Vibration    11          0.707              1.631              1.299
 Vibration    12          0.756              1.497              1.009
 Vibration    13          0.783              1.427              0.892
 Vibration    14          0.801              1.380              0.822
 Vibration    15          0.839              1.287              0.701
 Vibration    16          0.881              1.193              0.597
 Vibration    17          0.900              1.152              0.556
 Vibration    18          0.921              1.107              0.514
 Vibration    19          0.952              1.044              0.460
 Vibration    20          0.975              1.000              0.424

 Optimization completed.
    -- Stationary point found.
 Normal termination of Gaussian 16 at Sun Dec 13 20:14:20 2020.

 ----------------------------------------------------------------------
 # B3LYP/6-311++G(d,p) empiricaldispersion=gd3bj scf=xqc pop=npa geom=c
 heck
 ----------------------------------------------------------------------

 --------------------------------------
 CID_43131932_JID_3876_Energie_neutraal
 --------------------------------------
 Structure from the checkpoint file:  "JID_3876.chk"
 Charge =  0 Multiplicity = 1

 SCF Done:  E(RB3LYP) =  -934.541831592     A.U. after   15 cycles
 Normal termination of Gaussian 16 at Sun Dec 13 20:17:45 2020.

 ----------------------------------------------------------------------
 # B3LYP/6-311++G(d,p) empiricaldispersion=gd3bj scf=xqc pop=npa geom=c
 heck
 ----------------------------------------------------------------------

 ------------------------------------
 CID_43131932_JID_3876_Energie_kation
 ------------------------------------
 Structure from the checkpoint file:  "JID_3876.chk"
 Charge =  1 Multiplicity = 2

 SCF Done:  E(UB3LYP) =  -934.236514810     A.U. after   30 cycles
 Normal termination of Gaussian 16 at Sun Dec 13 20:27:17 2020.
 Gaussian 16:  ES64L-G16RevA.03 25-Dec-2016

 ----------------------------------------------------------------------
 # B3LYP/6-311++G(d,p) empiricaldispersion=gd3bj scf=xqc pop=npa geom=c
 heck
 ----------------------------------------------------------------------

 -----------------------------------
 CID_43131932_JID_3876_Energie_anion
 -----------------------------------
 Structure from the checkpoint file:  "JID_3876.chk"
 Charge = -1 Multiplicity = 2

                         Standard orientation:
 ---------------------------------------------------------------------
 Center     Atomic      Atomic             Coordinates (Angstroms)
 Number     Number       Type             X           Y           Z
 ---------------------------------------------------------------------
      1          6           0       -2.480240   -1.247222    1.028883
      2          6           0       -2.517921   -1.517673   -0.311889
      3         16           0       -1.974698   -0.159739   -1.245729
      4          6           0       -1.677667    0.790680    0.188683
      5          6           0       -1.997130    0.068266    1.312968
      6          6           0       -1.065432    2.162423    0.112674
      7          6           0        0.446415    2.137888    0.393676
      8          7           0        1.165612    1.466394   -0.679425
      9          6           0        2.550378    1.125637   -0.368648
     10          6           0        2.743905    0.008795    0.688526
     11          6           0        2.208676   -1.313118    0.154706
     12          8           0        2.854409   -2.014764   -0.611963
     13          7           0        0.940963   -1.639648    0.557147
     14          1           0       -2.790736   -1.954651    1.789851
     15          1           0       -2.854470   -2.418620   -0.806362
     16          1           0       -1.899858    0.472801    2.315527
     17          1           0       -1.235889    2.609121   -0.872610
     18          1           0       -1.551727    2.808573    0.852440
     19          1           0        0.817918    3.168729    0.466085
     20          1           0        0.593591    1.679537    1.389845
     21          1           0        0.667909    0.622051   -0.954718
     22          1           0        3.041064    0.804728   -1.293905
     23          1           0        3.058131    2.036328   -0.029207
     24          1           0        3.813138   -0.124737    0.877008
     25          1           0        2.264518    0.283846    1.634795
     26          1           0        0.334840   -0.979642    1.024854
     27          1           0        0.489530   -2.415411    0.092239
 ---------------------------------------------------------------------

 SCF Done:  E(UB3LYP) =  -934.533684217     A.U. after   33 cycles
 SCF Done:  E(UB3LYP) =  -934.533684217     a.u. after    1 cycles

 The electronic state is 2-A.
 Alpha  occ. eigenvalues --  -88.76437 -18.99200 -14.23195 -14.19674 -10.17683
 Alpha  occ. eigenvalues --  -10.10238 -10.09000 -10.08962 -10.08378 -10.08011
 Alpha  occ. eigenvalues --  -10.07481 -10.06906 -10.06180  -7.85083  -5.81359
 Alpha  occ. eigenvalues --   -5.81000  -5.80706  -0.94114  -0.81456  -0.80238
 Alpha  occ. eigenvalues --   -0.77266  -0.68408  -0.65178  -0.62608  -0.59725
 Alpha  occ. eigenvalues --   -0.54541  -0.51494  -0.48116  -0.45495  -0.43327
 Alpha  occ. eigenvalues --   -0.42673  -0.40102  -0.39303  -0.37933  -0.36787
 Alpha  occ. eigenvalues --   -0.34288  -0.33310  -0.31226  -0.30862  -0.29351
 Alpha  occ. eigenvalues --   -0.29051  -0.27967  -0.27114  -0.26975  -0.25147
 Alpha  occ. eigenvalues --   -0.24896  -0.24799  -0.23361  -0.17937  -0.16176
 Alpha  occ. eigenvalues --   -0.15072  -0.13146  -0.12709   0.04463
 Alpha virt. eigenvalues --    0.06902   0.07117   0.07980   0.08574   0.09223
 Alpha virt. eigenvalues --    0.09789   0.10325   0.10832   0.11093   0.11185
 Alpha virt. eigenvalues --    0.12434   0.12519   0.13117   0.13437   0.13918

  Beta  occ. eigenvalues --  -88.76415 -18.99197 -14.23189 -14.19675 -10.17680
  Beta  occ. eigenvalues --  -10.10228 -10.08955 -10.08797 -10.08229 -10.08000
  Beta  occ. eigenvalues --  -10.07477 -10.06896 -10.06145  -7.85062  -5.81351
  Beta  occ. eigenvalues --   -5.80992  -5.80631  -0.94107  -0.81439  -0.80226
  Beta  occ. eigenvalues --   -0.77091  -0.68316  -0.65075  -0.62472  -0.59555
  Beta  occ. eigenvalues --   -0.54493  -0.51413  -0.48095  -0.45301  -0.43294
  Beta  occ. eigenvalues --   -0.42494  -0.40038  -0.39212  -0.37894  -0.36739
  Beta  occ. eigenvalues --   -0.34256  -0.33251  -0.31183  -0.30773  -0.29263
  Beta  occ. eigenvalues --   -0.28903  -0.27900  -0.27058  -0.26766  -0.25071
  Beta  occ. eigenvalues --   -0.24759  -0.24697  -0.23229  -0.17920  -0.16151
  Beta  occ. eigenvalues --   -0.14733  -0.12883  -0.12164
  Beta virt. eigenvalues --    0.06970   0.07502   0.08044   0.08716   0.09377
  Beta virt. eigenvalues --    0.09645   0.09982   0.10692   0.10916   0.11272
  Beta virt. eigenvalues --    0.11596   0.12677   0.12866   0.13512   0.13587

 Mulliken charges and spin densities:
               1          2
     1  C    1.034884  -1.213368
     2  C   -0.248452  -0.100794
     3  S   -0.284037   0.515723
     4  C   -0.652378   1.318542
     5  C   -0.863678   0.167823
     6  C    1.725210  -2.434593
     7  C    0.537499  -0.797552
     8  N   -0.097716   0.057698
     9  C   -0.465131   0.091676
    10  C    0.264588  -0.412172
    11  C   -0.088297  -0.026011
    12  O   -0.354561   0.006205
    13  N   -0.364619   0.023388
    14  H   -0.395118   0.549675
    15  H   -0.060682   0.288095
    16  H   -0.896651   1.066301
    17  H    0.031647   0.136456
    18  H   -0.415493   0.616499
    19  H   -0.459589   0.629186
    20  H    0.119268  -0.026423
    21  H    0.221998  -0.028329
    22  H    0.160968   0.027456
    23  H   -0.136982   0.288438
    24  H    0.079710   0.095754
    25  H   -0.155229   0.303491
    26  H    0.530000  -0.200860
    27  H    0.232841   0.057695
 Sum of Mulliken charges =  -1.00000   1.00000

 Dipole moment (field-independent basis, Debye):
    X=              1.2666    Y=             -2.7054    Z=             -3.0347  Tot=              4.2582
 Quadrupole moment (field-independent basis, Debye-Ang):
   XX=           -138.5863   YY=           -137.2317   ZZ=           -121.4037
   XY=              6.1264   XZ=             11.6870   YZ=             -7.8989

 Summary of Natural Population Analysis:

                                       Natural Population
                Natural  -----------------------------------------------
    Atom  No    Charge         Core      Valence    Rydberg      Total
 -----------------------------------------------------------------------
      C    1   -0.13149      0.99953     2.12063    0.01133     3.13149
      C    2   -0.18374      0.99953     2.17194    0.01227     3.18374
      S    3    0.20440      4.99939     2.77660    0.01961     7.79560
      C    4   -0.07757      0.99950     2.06290    0.01517     3.07757
      C    5   -0.14409      0.99944     2.13119    0.01346     3.14409
      C    6   -0.21244      0.99957     2.20021    0.01266     3.21244
      C    7   -0.08020      0.99962     2.06803    0.01255     3.08020
      N    8   -0.34554      0.99974     2.83492    0.01087     3.84554
      C    9   -0.08321      0.99963     2.07159    0.01199     3.08321
      C   10   -0.24290      0.99958     2.23532    0.00799     3.24290
      C   11    0.33496      0.99970     1.64170    0.02364     2.66504
      O   12   -0.32807      0.99987     3.32241    0.00578     4.32807
      N   13   -0.40316      0.99970     2.89596    0.00750     3.90316
      H   14    0.10609      0.00000     0.39270    0.00120     0.39391
      H   15    0.10582      0.00000     0.39332    0.00086     0.39418
      H   16    0.11099      0.00000     0.38669    0.00232     0.38901
      H   17    0.10495      0.00000     0.39378    0.00127     0.39505
      H   18    0.11501      0.00000     0.38210    0.00290     0.38499
      H   19    0.09501      0.00000     0.40242    0.00257     0.40499
      H   20    0.07758      0.00000     0.41999    0.00243     0.42242
      H   21    0.17597      0.00000     0.32010    0.00393     0.32403
      H   22    0.09642      0.00000     0.40253    0.00105     0.40358
      H   23    0.09460      0.00000     0.40438    0.00102     0.40540
      H   24    0.10997      0.00000     0.38903    0.00099     0.39003
      H   25    0.10228      0.00000     0.39638    0.00135     0.39772
      H   26    0.20197      0.00000     0.29506    0.00297     0.29803
      H   27    0.19639      0.00000     0.30123    0.00238     0.30361
 =======================================================================
   * Total *   -0.00000     16.99481    35.81314    0.19206    53.00000

 Normal termination of Gaussian 16 at Sun Dec 13 20:37:52 2020.
