 Gaussian 16, Revision A.03,

 -----------------------------------------------------------
 # opt freq B3LYP/6-31G(d) empiricaldispersion=gd3bj scf=xqc
 -----------------------------------------------------------

 ------------------------------
 CID_61649785_JID_4646_neutraal
 ------------------------------
 Symbolic Z-matrix:
 Charge =  0 Multiplicity = 1

 SCF Done:  E(RB3LYP) =  -651.919048503     A.U. after   14 cycles
 SCF Done:  E(RB3LYP) =  -651.922697298     A.U. after   12 cycles
 SCF Done:  E(RB3LYP) =  -651.922955156     A.U. after   11 cycles
 SCF Done:  E(RB3LYP) =  -651.923143952     A.U. after   10 cycles
 SCF Done:  E(RB3LYP) =  -651.923192356     A.U. after   10 cycles
 SCF Done:  E(RB3LYP) =  -651.923202162     A.U. after    9 cycles
 SCF Done:  E(RB3LYP) =  -651.923208495     A.U. after    8 cycles
 SCF Done:  E(RB3LYP) =  -651.923211306     A.U. after    9 cycles
 SCF Done:  E(RB3LYP) =  -651.923212125     A.U. after    8 cycles
 SCF Done:  E(RB3LYP) =  -651.923212287     A.U. after    7 cycles
 SCF Done:  E(RB3LYP) =  -651.923212346     A.U. after    7 cycles
 SCF Done:  E(RB3LYP) =  -651.923212391     A.U. after    7 cycles
 SCF Done:  E(RB3LYP) =  -651.923212418     A.U. after    7 cycles
 Optimization completed.
    -- Stationary point found.
 Normal termination of Gaussian 16 at Thu Dec 10 10:19:34 2020.

 --------------------------------------------------------------------
 #N Geom=AllCheck Guess=TCheck SCRF=Check GenChk RB3LYP/6-31G(d) Freq
 --------------------------------------------------------------------

 Structure from the checkpoint file:  "JID_4646.chk"
 ------------------------------
 CID_61649785_JID_4646_neutraal
 ------------------------------
 Charge =  0 Multiplicity = 1

 SCF Done:  E(RB3LYP) =  -651.923212418     A.U. after    1 cycles

  Exact polarizability: 131.286  -5.934 114.421   1.012  -2.662 104.249
 Approx polarizability: 166.892  -5.902 165.933  -0.184 -13.466 163.786

                      1                      2                      3
                      A                      A                      A
 Frequencies --     20.3854                47.5201                81.0214
 Red. masses --      3.8304                 4.1447                 4.0896
 Frc consts  --      0.0009                 0.0055                 0.0158
 IR Inten    --      1.4029                 3.9590                 0.4009

                      4                      5                      6
                      A                      A                      A
 Frequencies --    122.2939               158.4947               190.0427
 Red. masses --      3.3639                 2.5505                 4.0674
 Frc consts  --      0.0296                 0.0377                 0.0865
 IR Inten    --      0.3099                 0.8607                 9.4456

                      7                      8                      9
                      A                      A                      A
 Frequencies --    197.4513               204.3003               233.4730
 Red. masses --      3.0002                 2.7933                 1.1980
 Frc consts  --      0.0689                 0.0687                 0.0385
 IR Inten    --      0.8404                 0.7273                 0.3755

                     10                     11                     12
                      A                      A                      A
 Frequencies --    265.0262               319.9453               374.5800
 Red. masses --      2.9551                 2.2467                 2.1984
 Frc consts  --      0.1223                 0.1355                 0.1817
 IR Inten    --      0.5214                 1.6812                 0.7692

                     13                     14                     15
                      A                      A                      A
 Frequencies --    383.6460               436.7379               454.1628
 Red. masses --      2.4565                 2.5083                 2.9084
 Frc consts  --      0.2130                 0.2819                 0.3535
 IR Inten    --      0.9621                 3.1809                 3.9864

                     16                     17                     18
                      A                      A                      A
 Frequencies --    476.8118               521.8714               531.8105
 Red. masses --      3.7111                 2.5129                 3.9822
 Frc consts  --      0.4971                 0.4032                 0.6636
 IR Inten    --     15.1019                10.0089                 3.1447

                     19                     20                     21
                      A                      A                      A
 Frequencies --    619.5240               691.1463               703.8049
 Red. masses --      2.1736                 2.7338                 5.5783
 Frc consts  --      0.4915                 0.7694                 1.6280
 IR Inten    --     18.0507                 8.8237                16.3207

                     22                     23                     24
                      A                      A                      A
 Frequencies --    762.2593               783.4617               800.1265
 Red. masses --     10.0651                 2.2459                 2.4600
 Frc consts  --      3.4457                 0.8122                 0.9279
 IR Inten    --     23.6523                35.6554                37.9770

                     25                     26                     27
                      A                      A                      A
 Frequencies --    822.7763               829.1912               889.4550
 Red. masses --      2.9734                 1.5424                 1.9655
 Frc consts  --      1.1860                 0.6248                 0.9162
 IR Inten    --      3.8475                 0.6633                 4.0260

                     28                     29                     30
                      A                      A                      A
 Frequencies --    893.0382               906.0034               930.7256
 Red. masses --      2.1878                 1.7167                 2.2711
 Frc consts  --      1.0280                 0.8302                 1.1591
 IR Inten    --      3.9102                 2.7087                 6.8691

                     31                     32                     33
                      A                      A                      A
 Frequencies --    982.3901               989.5732              1036.3487
 Red. masses --      2.2332                 2.0225                 1.4947
 Frc consts  --      1.2698                 1.1669                 0.9458
 IR Inten    --      9.1309                19.6665                 3.7419

                     34                     35                     36
                      A                      A                      A
 Frequencies --   1044.9354              1066.1059              1075.3425
 Red. masses --      1.5797                 1.8628                 2.3902
 Frc consts  --      1.0163                 1.2474                 1.6285
 IR Inten    --     22.4715                23.6579                36.7966

                     37                     38                     39
                      A                      A                      A
 Frequencies --   1076.3851              1086.9950              1123.7891
 Red. masses --      2.7983                 4.3544                 1.9067
 Frc consts  --      1.9102                 3.0313                 1.4188
 IR Inten    --     35.4060                55.2892                30.1837

                     40                     41                     42
                      A                      A                      A
 Frequencies --   1146.4453              1157.3557              1163.9167
 Red. masses --      1.8892                 2.3917                 2.3749
 Frc consts  --      1.4630                 1.8875                 1.8956
 IR Inten    --     10.4614                11.8919                 0.6240

                     43                     44                     45
                      A                      A                      A
 Frequencies --   1178.2071              1202.8117              1217.8653
 Red. masses --      2.3654                 1.2239                 1.1782
 Frc consts  --      1.9346                 1.0432                 1.0296
 IR Inten    --      8.2724                 1.2050                39.7538

                     46                     47                     48
                      A                      A                      A
 Frequencies --   1228.3884              1231.3510              1255.3590
 Red. masses --      2.3841                 1.2991                 1.3433
 Frc consts  --      2.1195                 1.1605                 1.2472
 IR Inten    --     31.5944                36.7523                73.7226

                     49                     50                     51
                      A                      A                      A
 Frequencies --   1281.3926              1298.2025              1329.6605
 Red. masses --      1.8220                 1.3953                 1.2076
 Frc consts  --      1.7626                 1.3855                 1.2580
 IR Inten    --     99.0658                17.8729                 3.0411

                     52                     53                     54
                      A                      A                      A
 Frequencies --   1334.6354              1356.7849              1367.0311
 Red. masses --      1.4145                 1.5447                 1.3187
 Frc consts  --      1.4845                 1.6754                 1.4519
 IR Inten    --      3.0549                 2.3791                24.1612

                     55                     56                     57
                      A                      A                      A
 Frequencies --   1392.2394              1394.7096              1402.6771
 Red. masses --      1.4568                 1.3678                 1.5257
 Frc consts  --      1.6637                 1.5677                 1.7687
 IR Inten    --     34.3828                 2.6871                 3.4286

                     58                     59                     60
                      A                      A                      A
 Frequencies --   1413.0923              1422.7336              1436.5144
 Red. masses --      1.3888                 1.4180                 1.3089
 Frc consts  --      1.6340                 1.6911                 1.5914
 IR Inten    --     11.4413                32.0120                36.8635

                     61                     62                     63
                      A                      A                      A
 Frequencies --   1453.7585              1472.1025              1498.2060
 Red. masses --      1.4952                 1.6505                 1.1531
 Frc consts  --      1.8618                 2.1074                 1.5249
 IR Inten    --      8.0478                56.7838                 9.9887

                     64                     65                     66
                      A                      A                      A
 Frequencies --   1508.9879              1514.3195              1532.7652
 Red. masses --      1.2065                 1.0762                 1.0629
 Frc consts  --      1.6187                 1.4540                 1.4712
 IR Inten    --      0.4347                13.9961                 3.3123

                     67                     68                     69
                      A                      A                      A
 Frequencies --   1533.7425              1535.2269              1543.9939
 Red. masses --      1.1153                 1.0598                 1.0987
 Frc consts  --      1.5458                 1.4718                 1.5432
 IR Inten    --      1.1848                 1.0454                 4.9761

                     70                     71                     72
                      A                      A                      A
 Frequencies --   1547.3042              1559.0286              1862.6973
 Red. masses --      1.1068                 1.0976                11.7636
 Frc consts  --      1.5613                 1.5718                24.0478
 IR Inten    --      8.8845                 7.6371               385.8049

                     73                     74                     75
                      A                      A                      A
 Frequencies --   2902.7167              2913.1290              3003.3589
 Red. masses --      1.0743                 1.0731                 1.0714
 Frc consts  --      5.3333                 5.3657                 5.6938
 IR Inten    --     51.7537               140.7449                46.7379

                     76                     77                     78
                      A                      A                      A
 Frequencies --   3058.4938              3061.2042              3062.5026
 Red. masses --      1.0515                 1.0556                 1.0640
 Frc consts  --      5.7952                 5.8280                 5.8798
 IR Inten    --     12.9264                16.3343                27.5863

                     79                     80                     81
                      A                      A                      A
 Frequencies --   3064.0042              3073.3577              3078.0410
 Red. masses --      1.0680                 1.0818                 1.0844
 Frc consts  --      5.9072                 6.0205                 6.0531
 IR Inten    --     31.0321                 5.2644                76.9216

                     82                     83                     84
                      A                      A                      A
 Frequencies --   3079.9409              3093.5439              3100.2884
 Red. masses --      1.0845                 1.0916                 1.0849
 Frc consts  --      6.0615                 6.1552                 6.1439
 IR Inten    --     46.9959                31.3818                18.6863

                     85                     86                     87
                      A                      A                      A
 Frequencies --   3103.9563              3111.4250              3126.3265
 Red. masses --      1.1019                 1.1016                 1.0973
 Frc consts  --      6.2550                 6.2837                 6.3190
 IR Inten    --     40.4441                33.4452                31.2277

                     88                     89                     90
                      A                      A                      A
 Frequencies --   3144.0444              3153.8127              3499.3225
 Red. masses --      1.1025                 1.1031                 1.0746
 Frc consts  --      6.4209                 6.4646                 7.7527
 IR Inten    --     30.1826                14.8033                 2.6812

 - Thermochemistry -
 -------------------
 Temperature   298.150 Kelvin.  Pressure   1.00000 Atm.
 Atom     1 has atomic number  6 and mass  12.00000

 Molecular mass:   198.13683 amu.
 Principal axes and moments of inertia in atomic units:
                           1         2         3
     Eigenvalues --  1380.112084120.477754481.51702
           X            0.99987  -0.01284   0.01006
           Y            0.01237   0.99887   0.04580
           Z           -0.01064  -0.04567   0.99890
 This molecule is an asymmetric top.
 Rotational symmetry number  1.
 Warning -- assumption of classical behavior for rotation
           may cause significant error
 Rotational temperatures (Kelvin)      0.06276     0.02102     0.01933
 Rotational constants (GHZ):           1.30768     0.43799     0.40271
 Zero-point vibrational energy     750871.6 (Joules/Mol)
                                  179.46262 (Kcal/Mol)
 Warning -- explicit consideration of  19 degrees of freedom as
           vibrations may cause significant error
 Vibrational temperatures:     29.33    68.37   116.57   175.95   228.04
          (Kelvin)            273.43   284.09   293.94   335.92   381.31
                              460.33   538.94   551.98   628.37   653.44
                              686.03   750.86   765.16   891.36   994.41
                             1012.62  1096.72  1127.23  1151.20  1183.79
                             1193.02  1279.73  1284.88  1303.54  1339.11
                             1413.44  1423.78  1491.07  1503.43  1533.89
                             1547.18  1548.68  1563.94  1616.88  1649.48
                             1665.18  1674.62  1695.18  1730.58  1752.24
                             1767.38  1771.64  1806.18  1843.64  1867.82
                             1913.08  1920.24  1952.11  1966.85  2003.12
                             2006.68  2018.14  2033.12  2047.00  2066.82
                             2091.63  2118.03  2155.58  2171.10  2178.77
                             2205.31  2206.71  2208.85  2221.46  2226.23
                             2243.09  2680.01  4176.36  4191.34  4321.16
                             4400.49  4404.39  4406.26  4408.42  4421.88
                             4428.61  4431.35  4450.92  4460.62  4465.90
                             4476.65  4498.09  4523.58  4537.63  5034.74

 Zero-point correction=                           0.285992 (Hartree/Particle)
 Thermal correction to Energy=                    0.299136
 Thermal correction to Enthalpy=                  0.300080
 Thermal correction to Gibbs Free Energy=         0.245283
 Sum of electronic and zero-point Energies=           -651.637221
 Sum of electronic and thermal Energies=              -651.624076
 Sum of electronic and thermal Enthalpies=            -651.623132
 Sum of electronic and thermal Free Energies=         -651.677930

                     E (Thermal)             CV                S
                      KCal/Mol        Cal/Mol-Kelvin    Cal/Mol-Kelvin
 Total                  187.711             50.768            115.331
 Electronic               0.000              0.000              0.000
 Translational            0.889              2.981             41.756
 Rotational               0.889              2.981             31.611
 Vibrational            185.933             44.806             41.963
 Vibration     1          0.593              1.986              6.596
 Vibration     2          0.595              1.979              4.918
 Vibration     3          0.600              1.962              3.866
 Vibration     4          0.610              1.931              3.064
 Vibration     5          0.621              1.893              2.568
 Vibration     6          0.633              1.854              2.227
 Vibration     7          0.637              1.843              2.157
 Vibration     8          0.640              1.834              2.094
 Vibration     9          0.654              1.790              1.852
 Vibration    10          0.671              1.737              1.628
 Vibration    11          0.706              1.635              1.310
 Vibration    12          0.746              1.524              1.061
 Vibration    13          0.753              1.505              1.025
 Vibration    14          0.797              1.390              0.837
 Vibration    15          0.813              1.352              0.783
 Vibration    16          0.833              1.301              0.719
 Vibration    17          0.877              1.202              0.606
 Vibration    18          0.887              1.180              0.583
 Vibration    19          0.979              0.991              0.417

                           ! Non-Optimized Parameters !
 Normal termination of Gaussian 16 at Thu Dec 10 10:29:40 2020.

 ----------------------------------------------------------------------
 # B3LYP/6-311++G(d,p) empiricaldispersion=gd3bj scf=xqc pop=npa geom=c
 heck
 ----------------------------------------------------------------------

 --------------------------------------
 CID_61649785_JID_4646_Energie_neutraal
 --------------------------------------
 Structure from the checkpoint file:  "JID_4646.chk"
 Charge =  0 Multiplicity = 1

 SCF Done:  E(RB3LYP) =  -652.109890529     A.U. after   15 cycles
 Normal termination of Gaussian 16 at Thu Dec 10 10:34:10 2020.

 ----------------------------------------------------------------------
 # B3LYP/6-311++G(d,p) empiricaldispersion=gd3bj scf=xqc pop=npa geom=c
 heck
 ----------------------------------------------------------------------

 ------------------------------------
 CID_61649785_JID_4646_Energie_kation
 ------------------------------------
 Structure from the checkpoint file:  "JID_4646.chk"
 Charge =  1 Multiplicity = 2

 SCF Done:  E(UB3LYP) =  -651.804122097     A.U. after   30 cycles
 Normal termination of Gaussian 16 at Thu Dec 10 10:46:53 2020.
 Gaussian 16:  ES64L-G16RevA.03 25-Dec-2016

 ----------------------------------------------------------------------
 # B3LYP/6-311++G(d,p) empiricaldispersion=gd3bj scf=xqc pop=npa geom=c
 heck
 ----------------------------------------------------------------------

 -----------------------------------
 CID_61649785_JID_4646_Energie_anion
 -----------------------------------
 Structure from the checkpoint file:  "JID_4646.chk"
 Charge = -1 Multiplicity = 2

                         Standard orientation:
 ---------------------------------------------------------------------
 Center     Atomic      Atomic             Coordinates (Angstroms)
 Number     Number       Type             X           Y           Z
 ---------------------------------------------------------------------
      1          6           0        0.239978    1.985192    1.160304
      2          6           0       -0.038557    0.581659    0.606320
      3          6           0       -0.997037    0.569068   -0.609866
      4          6           0       -2.371365    1.192794   -0.291251
      5          6           0       -3.220354    0.294866    0.613338
      6          7           0       -3.391192   -1.012408   -0.020686
      7          6           0       -2.114291   -1.694322   -0.230877
      8          6           0       -1.226389   -0.855413   -1.154410
      9          7           0        1.222418   -0.103165    0.278761
     10          6           0        1.905912   -0.939766    1.248119
     11          6           0        3.154737   -1.327834    0.445120
     12          8           0        3.311918   -0.265399   -0.507423
     13          6           0        2.116609    0.400582   -0.638340
     14          8           0        1.942208    1.276925   -1.454376
     15          1           0        0.627027    2.635200    0.371034
     16          1           0        0.984937    1.935543    1.962651
     17          1           0       -0.664564    2.435617    1.577826
     18          1           0       -0.477308   -0.023950    1.405957
     19          1           0       -0.513241    1.164728   -1.389635
     20          1           0       -2.267940    2.186638    0.156011
     21          1           0       -2.911595    1.322942   -1.236290
     22          1           0       -2.753259    0.224663    1.616911
     23          1           0       -4.210441    0.742256    0.756694
     24          1           0       -4.003438   -1.593439    0.547401
     25          1           0       -2.313796   -2.668535   -0.691585
     26          1           0       -1.578573   -1.895370    0.719856
     27          1           0       -1.724952   -0.778281   -2.127550
     28          1           0       -0.269169   -1.361396   -1.313348
     29          1           0        2.157861   -0.380577    2.162895
     30          1           0        1.301075   -1.807851    1.529272
     31          1           0        4.063253   -1.393420    1.046345
     32          1           0        3.007071   -2.268921   -0.097327
 ---------------------------------------------------------------------

 SCF Done:  E(UB3LYP) =  -652.101398858     A.U. after   28 cycles

 The electronic state is 2-A.
 Alpha  occ. eigenvalues --  -19.06402 -18.99883 -14.24541 -14.19624 -10.21726
 Alpha  occ. eigenvalues --  -10.13798 -10.11758 -10.11631 -10.09238 -10.08778
 Alpha  occ. eigenvalues --  -10.07447 -10.06933 -10.06553 -10.06235  -1.01494
 Alpha  occ. eigenvalues --   -0.92651  -0.84872  -0.81131  -0.71423  -0.66564
 Alpha  occ. eigenvalues --   -0.65392  -0.64453  -0.56832  -0.55315  -0.53321
 Alpha  occ. eigenvalues --   -0.52030  -0.47233  -0.43470  -0.42609  -0.41725
 Alpha  occ. eigenvalues --   -0.40533  -0.37861  -0.36863  -0.35589  -0.34801
 Alpha  occ. eigenvalues --   -0.33623  -0.33200  -0.32494  -0.32081  -0.31307
 Alpha  occ. eigenvalues --   -0.29884  -0.29005  -0.28501  -0.28170  -0.27392
 Alpha  occ. eigenvalues --   -0.26012  -0.24938  -0.22629  -0.21832  -0.21321
 Alpha  occ. eigenvalues --   -0.20080  -0.18236  -0.15276  -0.12842   0.04101
 Alpha virt. eigenvalues --    0.06393   0.07161   0.07925   0.08572   0.08946
 Alpha virt. eigenvalues --    0.09616   0.10448   0.10845   0.10970   0.11836
 Alpha virt. eigenvalues --    0.12507   0.12689   0.13196   0.13431   0.14147

  Beta  occ. eigenvalues --  -19.06402 -18.99883 -14.24542 -14.19603 -10.21722
  Beta  occ. eigenvalues --  -10.13765 -10.11749 -10.11580 -10.09216 -10.08750
  Beta  occ. eigenvalues --  -10.07448 -10.06929 -10.06534 -10.06232  -1.01488
  Beta  occ. eigenvalues --   -0.92648  -0.84860  -0.81097  -0.71404  -0.66514
  Beta  occ. eigenvalues --   -0.65359  -0.64419  -0.56786  -0.55248  -0.53283
  Beta  occ. eigenvalues --   -0.51993  -0.47200  -0.43428  -0.42569  -0.41662
  Beta  occ. eigenvalues --   -0.40483  -0.37795  -0.36832  -0.35551  -0.34776
  Beta  occ. eigenvalues --   -0.33601  -0.33176  -0.32456  -0.32047  -0.31274
  Beta  occ. eigenvalues --   -0.29857  -0.28980  -0.28478  -0.28142  -0.27356
  Beta  occ. eigenvalues --   -0.25979  -0.24908  -0.22614  -0.21808  -0.21301
  Beta  occ. eigenvalues --   -0.20066  -0.18229  -0.15261  -0.12789
  Beta virt. eigenvalues --    0.06632   0.07466   0.07833   0.08369   0.09064
  Beta virt. eigenvalues --    0.09540   0.10249   0.10740   0.11171   0.11498
  Beta virt. eigenvalues --    0.12019   0.12645   0.12856   0.13558   0.13792

 Mulliken charges and spin densities:
               1          2
     1  C    0.485220  -1.135011
     2  C   -1.903461   0.992162
     3  C    0.748656  -0.193525
     4  C   -0.997442   0.453934
     5  C    0.611820  -1.040875
     6  N   -0.369647   0.218554
     7  C    0.788562  -1.069709
     8  C   -0.584410   0.209374
     9  N    0.134664   0.141625
    10  C    1.355234  -1.358996
    11  C    0.543570  -0.968354
    12  O   -0.148426   0.043609
    13  C    0.319641  -0.029238
    14  O   -0.340391   0.004321
    15  H    0.163593   0.023794
    16  H   -0.105462   0.245193
    17  H   -0.034719   0.158284
    18  H    0.052791   0.161691
    19  H    0.202164   0.048717
    20  H    0.115613   0.021128
    21  H    0.144197   0.002442
    22  H   -0.382461   0.506738
    23  H   -0.119153   0.293860
    24  H   -0.079527   0.328078
    25  H   -0.189489   0.376558
    26  H   -0.336119   0.489406
    27  H    0.124758   0.031031
    28  H    0.165977  -0.030362
    29  H   -0.369685   0.538376
    30  H   -0.499680   0.668738
    31  H   -0.300354   0.495887
    32  H   -0.196033   0.372571
 Sum of Mulliken charges =  -1.00000   1.00000

 Dipole moment (field-independent basis, Debye):
    X=             -0.9759    Y=              3.4361    Z=             -3.6584  Tot=              5.1130
 Quadrupole moment (field-independent basis, Debye-Ang):
   XX=           -153.5489   YY=           -127.5917   ZZ=           -129.6424
   XY=             -5.0917   XZ=              1.7695   YZ=              8.7167

 Summary of Natural Population Analysis:

                                       Natural Population
                Natural  -----------------------------------------------
    Atom  No    Charge         Core      Valence    Rydberg      Total
 -----------------------------------------------------------------------
      C    1   -0.29350      0.99964     2.28821    0.00564     3.29350
      C    2   -0.00682      0.99957     1.99203    0.01521     3.00682
      C    3   -0.11638      0.99957     2.10629    0.01052     3.11638
      C    4   -0.19221      0.99961     2.18407    0.00853     3.19221
      C    5   -0.08876      0.99962     2.07772    0.01141     3.08876
      N    6   -0.34303      0.99974     2.83102    0.01227     3.84303
      C    7   -0.08887      0.99962     2.07755    0.01170     3.08887
      C    8   -0.19245      0.99961     2.18405    0.00879     3.19245
      N    9   -0.27177      0.99963     2.75983    0.01231     3.77177
      C   10   -0.08915      0.99963     2.07871    0.01081     3.08915
      C   11   -0.01184      0.99960     1.99993    0.01231     3.01184
      O   12   -0.28063      0.99987     3.27371    0.00705     4.28063
      C   13    0.46612      0.99966     1.50730    0.02692     2.53388
      O   14   -0.32172      0.99986     3.31681    0.00505     4.32172
      H   15    0.10725      0.00000     0.39188    0.00087     0.39275
      H   16    0.10221      0.00000     0.39693    0.00086     0.39779
      H   17    0.10105      0.00000     0.39815    0.00080     0.39895
      H   18    0.10177      0.00000     0.39505    0.00318     0.39823
      H   19    0.11216      0.00000     0.38639    0.00145     0.38784
      H   20    0.09945      0.00000     0.39970    0.00085     0.40055
      H   21    0.09920      0.00000     0.39963    0.00116     0.40080
      H   22    0.07888      0.00000     0.41908    0.00204     0.42112
      H   23    0.09392      0.00000     0.40502    0.00106     0.40608
      H   24    0.17647      0.00000     0.32039    0.00314     0.32353
      H   25    0.09533      0.00000     0.40353    0.00114     0.40467
      H   26    0.07962      0.00000     0.41778    0.00260     0.42038
      H   27    0.09785      0.00000     0.40102    0.00113     0.40215
      H   28    0.10469      0.00000     0.39414    0.00117     0.39531
      H   29    0.09270      0.00000     0.40452    0.00278     0.40730
      H   30    0.10617      0.00000     0.38993    0.00391     0.39383
      H   31    0.09518      0.00000     0.40310    0.00172     0.40482
      H   32    0.08709      0.00000     0.41133    0.00158     0.41291
 =======================================================================
   * Total *   -0.00000     13.99523    39.81480    0.18997    54.00000

 Normal termination of Gaussian 16 at Thu Dec 10 10:58:25 2020.
