 Gaussian 16, Revision A.03,

 -----------------------------------------------------------
 # opt freq B3LYP/6-31G(d) empiricaldispersion=gd3bj scf=xqc
 -----------------------------------------------------------

 -------------------------------
 CID_146667366_JID_2189_neutraal
 -------------------------------
 Symbolic Z-matrix:
 Charge =  0 Multiplicity = 1

 SCF Done:  E(RB3LYP) =  -521.174094698     A.U. after   14 cycles
 SCF Done:  E(RB3LYP) =  -521.192437650     A.U. after   12 cycles
 SCF Done:  E(RB3LYP) =  -521.194373516     A.U. after   13 cycles
 SCF Done:  E(RB3LYP) =  -521.191809319     A.U. after   13 cycles
 SCF Done:  E(RB3LYP) =  -521.194602667     A.U. after   12 cycles
 SCF Done:  E(RB3LYP) =  -521.194656545     A.U. after   11 cycles
 SCF Done:  E(RB3LYP) =  -521.194712727     A.U. after   11 cycles
 SCF Done:  E(RB3LYP) =  -521.194712521     A.U. after   10 cycles
 SCF Done:  E(RB3LYP) =  -521.194727518     A.U. after    9 cycles
 SCF Done:  E(RB3LYP) =  -521.194728966     A.U. after    8 cycles
 SCF Done:  E(RB3LYP) =  -521.194728996     A.U. after    7 cycles
 SCF Done:  E(RB3LYP) =  -521.194728979     A.U. after    6 cycles
 Optimization completed.
    -- Stationary point found.
 Normal termination of Gaussian 16 at Wed Dec  9 16:54:09 2020.

 --------------------------------------------------------------------
 #N Geom=AllCheck Guess=TCheck SCRF=Check GenChk RB3LYP/6-31G(d) Freq
 --------------------------------------------------------------------

 Structure from the checkpoint file:  "JID_2189.chk"
 -------------------------------
 CID_146667366_JID_2189_neutraal
 -------------------------------
 Charge =  0 Multiplicity = 1

 SCF Done:  E(RB3LYP) =  -521.194728979     A.U. after    1 cycles

  Exact polarizability: 130.673   4.486 101.345  -8.627  -3.694  96.426
 Approx polarizability: 168.536  11.805 147.308 -17.268  -5.357 142.816

                      1                      2                      3
                      A                      A                      A
 Frequencies --     47.8714                73.0570                84.2221
 Red. masses --      4.2829                 2.7422                 3.1488
 Frc consts  --      0.0058                 0.0086                 0.0132
 IR Inten    --      0.0149                 0.9869                 1.0031

                      4                      5                      6
                      A                      A                      A
 Frequencies --     94.9415               121.4052               182.6869
 Red. masses --      2.7187                 3.8205                 1.4750
 Frc consts  --      0.0144                 0.0332                 0.0290
 IR Inten    --      1.7876                 0.3331                 0.4165

                      7                      8                      9
                      A                      A                      A
 Frequencies --    222.4006               232.4171               283.3997
 Red. masses --      2.1704                 2.6240                 2.4163
 Frc consts  --      0.0633                 0.0835                 0.1143
 IR Inten    --      0.3805                 4.4269                 1.8516

                     10                     11                     12
                      A                      A                      A
 Frequencies --    291.6370               343.6697               357.6444
 Red. masses --      3.3551                 3.4623                 3.0117
 Frc consts  --      0.1681                 0.2409                 0.2270
 IR Inten    --      0.3317                 4.0758                 1.0394

                     13                     14                     15
                      A                      A                      A
 Frequencies --    382.9363               429.6832               449.2279
 Red. masses --      2.9343                 1.8321                 2.7239
 Frc consts  --      0.2535                 0.1993                 0.3239
 IR Inten    --      1.9909                 0.8374                 6.3361

                     16                     17                     18
                      A                      A                      A
 Frequencies --    474.1194               491.1066               572.5858
 Red. masses --      2.9952                 2.6302                 3.1424
 Frc consts  --      0.3967                 0.3738                 0.6070
 IR Inten    --      5.4057                 6.1594                 0.2327

                     19                     20                     21
                      A                      A                      A
 Frequencies --    593.0317               610.3971               739.1465
 Red. masses --      1.1970                 1.2109                 3.1205
 Frc consts  --      0.2480                 0.2658                 1.0045
 IR Inten    --     47.3814                48.3594                 1.5502

                     22                     23                     24
                      A                      A                      A
 Frequencies --    772.6684               788.0904               818.8873
 Red. masses --      3.9538                 1.5521                 2.2755
 Frc consts  --      1.3908                 0.5680                 0.8990
 IR Inten    --      6.1574                 0.4114                 2.0251

                     25                     26                     27
                      A                      A                      A
 Frequencies --    863.8176               896.1766               936.3719
 Red. masses --      3.1984                 2.3423                 1.8595
 Frc consts  --      1.4061                 1.1084                 0.9606
 IR Inten    --     14.0557                 1.1393                 1.5759

                     28                     29                     30
                      A                      A                      A
 Frequencies --    955.7000               958.5329               987.4561
 Red. masses --      1.3955                 2.6314                 2.8402
 Frc consts  --      0.7510                 1.4245                 1.6317
 IR Inten    --      7.9815                 3.6981                 5.4494

                     31                     32                     33
                      A                      A                      A
 Frequencies --   1004.7347              1028.1010              1078.2400
 Red. masses --      2.4195                 2.0858                 1.8587
 Frc consts  --      1.4391                 1.2990                 1.2732
 IR Inten    --     97.4003                21.9833                 0.4737

                     34                     35                     36
                      A                      A                      A
 Frequencies --   1095.7927              1097.4022              1111.8396
 Red. masses --      2.9910                 2.5716                 2.3686
 Frc consts  --      2.1161                 1.8247                 1.7252
 IR Inten    --     36.7532                 0.4524                 1.7489

                     37                     38                     39
                      A                      A                      A
 Frequencies --   1126.4483              1154.1736              1189.8297
 Red. masses --      1.2177                 2.1056                 1.2822
 Frc consts  --      0.9104                 1.6526                 1.0694
 IR Inten    --     10.9146                 2.7078                 1.9898

                     40                     41                     42
                      A                      A                      A
 Frequencies --   1203.7078              1211.5064              1227.4486
 Red. masses --      1.3156                 1.5149                 1.5753
 Frc consts  --      1.1231                 1.3101                 1.3983
 IR Inten    --      8.0946                 6.7554                 0.2458

                     43                     44                     45
                      A                      A                      A
 Frequencies --   1235.6390              1299.6755              1313.7222
 Red. masses --      1.3239                 1.2095                 1.2967
 Frc consts  --      1.1909                 1.2037                 1.3186
 IR Inten    --      2.3881                 1.0637                 1.6887

                     46                     47                     48
                      A                      A                      A
 Frequencies --   1326.9266              1354.5759              1365.4359
 Red. masses --      1.2352                 1.3560                 1.3885
 Frc consts  --      1.2813                 1.4659                 1.5253
 IR Inten    --      4.9292                 4.0363                 0.5245

                     49                     50                     51
                      A                      A                      A
 Frequencies --   1376.2144              1394.2720              1396.0298
 Red. masses --      1.3372                 1.3855                 1.5103
 Frc consts  --      1.4922                 1.5869                 1.7342
 IR Inten    --      2.6081                 0.3690                 7.9011

                     52                     53                     54
                      A                      A                      A
 Frequencies --   1411.9173              1413.4521              1429.2701
 Red. masses --      1.4492                 1.3896                 1.4995
 Frc consts  --      1.7021                 1.6357                 1.8048
 IR Inten    --      4.4217                 6.3555                 6.9057

                     55                     56                     57
                      A                      A                      A
 Frequencies --   1480.1892              1497.5147              1501.7905
 Red. masses --      1.1423                 1.1135                 1.0877
 Frc consts  --      1.4745                 1.4712                 1.4454
 IR Inten    --      1.8418                 2.8239                 1.8005

                     58                     59                     60
                      A                      A                      A
 Frequencies --   1506.0027              1506.8609              1513.7265
 Red. masses --      1.0774                 1.1106                 1.0901
 Frc consts  --      1.4398                 1.4858                 1.4716
 IR Inten    --      2.8405                 2.0994                 6.0482

                     61                     62                     63
                      A                      A                      A
 Frequencies --   1517.8758              1530.8724              1538.9902
 Red. masses --      1.1082                 1.0942                 1.0642
 Frc consts  --      1.5043                 1.5109                 1.4851
 IR Inten    --      6.9631                 2.4079                 9.2458

                     64                     65                     66
                      A                      A                      A
 Frequencies --   2240.1305              3007.6684              3015.0384
 Red. masses --      5.9896                 1.0814                 1.0724
 Frc consts  --     17.7091                 5.7639                 5.7435
 IR Inten    --      4.0880                 9.1143                11.0117

                     67                     68                     69
                      A                      A                      A
 Frequencies --   3023.9381              3024.7437              3025.5909
 Red. masses --      1.0602                 1.0369                 1.0630
 Frc consts  --      5.7118                 5.5894                 5.7331
 IR Inten    --     28.6721                63.4213                16.9049

                     70                     71                     72
                      A                      A                      A
 Frequencies --   3036.9254              3044.0872              3056.1283
 Red. masses --      1.0700                 1.0686                 1.0901
 Frc consts  --      5.8145                 5.8344                 5.9985
 IR Inten    --     77.1450                44.3959                31.6002

                     73                     74                     75
                      A                      A                      A
 Frequencies --   3057.7016              3067.4134              3084.0794
 Red. masses --      1.1014                 1.0720                 1.1059
 Frc consts  --      6.0672                 5.9426                 6.1976
 IR Inten    --     18.3253                36.9047                55.2413

                     76                     77                     78
                      A                      A                      A
 Frequencies --   3088.5694              3104.6278              3113.0657
 Red. masses --      1.0971                 1.0971                 1.1019
 Frc consts  --      6.1659                 6.2302                 6.2918
 IR Inten    --     31.6506                27.0176                42.8750

                     79                     80                     81
                      A                      A                      A
 Frequencies --   3129.4755              3418.5714              3496.9962
 Red. masses --      1.1025                 1.0754                 1.1595
 Frc consts  --      6.3618                 7.4049                 8.3546
 IR Inten    --     27.7393                 5.9106                58.1074

 - Thermochemistry -
 -------------------
 Temperature   298.150 Kelvin.  Pressure   1.00000 Atm.
 Atom     1 has atomic number  6 and mass  12.00000

 Molecular mass:   167.13101 amu.
 Principal axes and moments of inertia in atomic units:
                           1         2         3
     Eigenvalues --  1103.443943531.008623704.55893
           X            0.99995   0.00934  -0.00319
           Y           -0.00952   0.99812  -0.06048
           Z            0.00262   0.06050   0.99816
 This molecule is an asymmetric top.
 Rotational symmetry number  1.
 Warning -- assumption of classical behavior for rotation
           may cause significant error
 Rotational temperatures (Kelvin)      0.07849     0.02453     0.02338
 Rotational constants (GHZ):           1.63555     0.51111     0.48717
 Zero-point vibrational energy     679061.5 (Joules/Mol)
                                  162.29959 (Kcal/Mol)
 Warning -- explicit consideration of  20 degrees of freedom as
           vibrations may cause significant error
 Vibrational temperatures:     68.88   105.11   121.18   136.60   174.67
          (Kelvin)            262.85   319.98   334.40   407.75   419.60
                              494.46   514.57   550.96   618.22   646.34
                              682.15   706.59   823.82   853.24   878.23
                             1063.47  1111.70  1133.89  1178.20  1242.84
                             1289.40  1347.23  1375.04  1379.12  1420.73
                             1445.59  1479.21  1551.35  1576.60  1578.92
                             1599.69  1620.71  1660.60  1711.90  1731.87
                             1743.09  1766.02  1777.81  1869.94  1890.15
                             1909.15  1948.93  1964.56  1980.07  2006.05
                             2008.58  2031.43  2033.64  2056.40  2129.66
                             2154.59  2160.74  2166.80  2168.04  2177.91
                             2183.88  2202.58  2214.26  3223.05  4327.36
                             4337.97  4350.77  4351.93  4353.15  4369.46
                             4379.76  4397.09  4399.35  4413.32  4437.30
                             4443.76  4466.87  4479.01  4502.62  4918.56
                             5031.40

 Zero-point correction=                           0.258641 (Hartree/Particle)
 Thermal correction to Energy=                    0.271423
 Thermal correction to Enthalpy=                  0.272367
 Thermal correction to Gibbs Free Energy=         0.219490
 Sum of electronic and zero-point Energies=           -520.936088
 Sum of electronic and thermal Energies=              -520.923306
 Sum of electronic and thermal Enthalpies=            -520.922362
 Sum of electronic and thermal Free Energies=         -520.975239

                     E (Thermal)             CV                S
                      KCal/Mol        Cal/Mol-Kelvin    Cal/Mol-Kelvin
 Total                  170.320             48.535            111.289
 Electronic               0.000              0.000              0.000
 Translational            0.889              2.981             41.249
 Rotational               0.889              2.981             31.046
 Vibrational            168.543             42.573             38.994
 Vibration     1          0.595              1.978              4.903
 Vibration     2          0.599              1.967              4.069
 Vibration     3          0.601              1.960              3.790
 Vibration     4          0.603              1.953              3.556
 Vibration     5          0.609              1.931              3.078
 Vibration     6          0.630              1.863              2.301
 Vibration     7          0.648              1.807              1.939
 Vibration     8          0.653              1.791              1.860
 Vibration     9          0.682              1.704              1.513
 Vibration    10          0.687              1.689              1.464
 Vibration    11          0.722              1.588              1.195
 Vibration    12          0.733              1.560              1.132
 Vibration    13          0.752              1.507              1.028
 Vibration    14          0.791              1.406              0.860
 Vibration    15          0.808              1.363              0.798
 Vibration    16          0.831              1.307              0.726
 Vibration    17          0.847              1.270              0.681
 Vibration    18          0.929              1.091              0.499
 Vibration    19          0.951              1.047              0.462
 Vibration    20          0.969              1.010              0.432

 Optimization completed.
    -- Stationary point found.
 Normal termination of Gaussian 16 at Wed Dec  9 17:01:22 2020.

 ----------------------------------------------------------------------
 # B3LYP/6-311++G(d,p) empiricaldispersion=gd3bj scf=xqc pop=npa geom=c
 heck
 ----------------------------------------------------------------------

 ---------------------------------------
 CID_146667366_JID_2189_Energie_neutraal
 ---------------------------------------
 Structure from the checkpoint file:  "JID_2189.chk"
 Charge =  0 Multiplicity = 1

 SCF Done:  E(RB3LYP) =  -521.347336783     A.U. after   14 cycles
 Normal termination of Gaussian 16 at Wed Dec  9 17:04:46 2020.

 ----------------------------------------------------------------------
 # B3LYP/6-311++G(d,p) empiricaldispersion=gd3bj scf=xqc pop=npa geom=c
 heck
 ----------------------------------------------------------------------

 -------------------------------------
 CID_146667366_JID_2189_Energie_kation
 -------------------------------------
 Structure from the checkpoint file:  "JID_2189.chk"
 Charge =  1 Multiplicity = 2

 SCF Done:  E(UB3LYP) =  -521.031230479     A.U. after   33 cycles
 SCF Done:  E(UB3LYP) =  -521.031230479     a.u. after    1 cycles
 Normal termination of Gaussian 16 at Wed Dec  9 17:15:41 2020.
 Gaussian 16:  ES64L-G16RevA.03 25-Dec-2016

 ----------------------------------------------------------------------
 # B3LYP/6-311++G(d,p) empiricaldispersion=gd3bj scf=xqc pop=npa geom=c
 heck
 ----------------------------------------------------------------------

 ------------------------------------
 CID_146667366_JID_2189_Energie_anion
 ------------------------------------
 Structure from the checkpoint file:  "JID_2189.chk"
 Charge = -1 Multiplicity = 2

                         Standard orientation:
 ---------------------------------------------------------------------
 Center     Atomic      Atomic             Coordinates (Angstroms)
 Number     Number       Type             X           Y           Z
 ---------------------------------------------------------------------
      1          6           0       -2.781112   -1.911632   -0.361724
      2          8           0       -1.988890   -0.848350   -0.862907
      3          7           0       -2.590942    0.399455   -0.444605
      4          6           0       -1.569636    1.287661    0.137571
      5          6           0       -1.092913    0.782743    1.509548
      6          6           0        0.006955   -0.285994    1.438528
      7          6           0        1.191833    0.173428    0.577322
      8          6           0        0.715923    0.564118   -0.828566
      9          6           0       -0.373789    1.642602   -0.771880
     10          6           0        2.278344   -0.922716    0.529373
     11          6           0        3.489609   -0.512838   -0.179441
     12          6           0        4.481321   -0.149718   -0.765218
     13          1           0       -2.297356   -2.829675   -0.709945
     14          1           0       -3.806961   -1.867959   -0.750805
     15          1           0       -2.818572   -1.905887    0.735146
     16          1           0       -2.876937    0.814587   -1.335217
     17          1           0       -2.147577    2.208483    0.304248
     18          1           0       -0.699461    1.647476    2.061506
     19          1           0       -1.958409    0.413771    2.071100
     20          1           0       -0.398645   -1.211806    1.017234
     21          1           0        0.352881   -0.517879    2.454850
     22          1           0        1.637919    1.062558    1.048987
     23          1           0        0.324868   -0.325635   -1.332815
     24          1           0        1.567088    0.927748   -1.415499
     25          1           0       -0.738708    1.870812   -1.782421
     26          1           0        0.069795    2.572646   -0.387364
     27          1           0        2.540256   -1.218524    1.554756
     28          1           0        1.857719   -1.818037    0.049391
     29          1           0        5.360607    0.162005   -1.280732
 ---------------------------------------------------------------------

 SCF Done:  E(UB3LYP) =  -521.331229033     A.U. after   33 cycles
 SCF Done:  E(UB3LYP) =  -521.331229033     a.u. after    1 cycles

 The electronic state is 2-A.
 Alpha  occ. eigenvalues --  -19.04482 -14.24316 -10.10855 -10.09603 -10.09449
 Alpha  occ. eigenvalues --  -10.08248 -10.07593 -10.06779 -10.06014 -10.05981
 Alpha  occ. eigenvalues --  -10.05959 -10.05463  -0.96149  -0.76308  -0.72920
 Alpha  occ. eigenvalues --   -0.68075  -0.63938  -0.63558  -0.58961  -0.55702
 Alpha  occ. eigenvalues --   -0.51287  -0.48897  -0.45090  -0.43783  -0.41202
 Alpha  occ. eigenvalues --   -0.38398  -0.37261  -0.36355  -0.35275  -0.34908
 Alpha  occ. eigenvalues --   -0.32925  -0.32412  -0.31822  -0.28582  -0.28334
 Alpha  occ. eigenvalues --   -0.27361  -0.26144  -0.25277  -0.24084  -0.22218
 Alpha  occ. eigenvalues --   -0.21372  -0.20229  -0.17916  -0.17750  -0.16745
 Alpha  occ. eigenvalues --   -0.13868   0.04556
 Alpha virt. eigenvalues --    0.06307   0.06891   0.07366   0.08705   0.09383
 Alpha virt. eigenvalues --    0.09690   0.09821   0.10580   0.11125   0.11764
 Alpha virt. eigenvalues --    0.12023   0.12357   0.12790   0.13280   0.13909

  Beta  occ. eigenvalues --  -19.04476 -14.24291 -10.10825 -10.09589 -10.09435
  Beta  occ. eigenvalues --  -10.08250 -10.07585 -10.06760 -10.05990 -10.05962
  Beta  occ. eigenvalues --  -10.05940 -10.05458  -0.96135  -0.76269  -0.72896
  Beta  occ. eigenvalues --   -0.68047  -0.63904  -0.63526  -0.58919  -0.55634
  Beta  occ. eigenvalues --   -0.51234  -0.48854  -0.45043  -0.43740  -0.41145
  Beta  occ. eigenvalues --   -0.38367  -0.37227  -0.36323  -0.35237  -0.34864
  Beta  occ. eigenvalues --   -0.32892  -0.32382  -0.31799  -0.28544  -0.28298
  Beta  occ. eigenvalues --   -0.27325  -0.26112  -0.25236  -0.24051  -0.22188
  Beta  occ. eigenvalues --   -0.21331  -0.20196  -0.17900  -0.17724  -0.16718
  Beta  occ. eigenvalues --   -0.13834
  Beta virt. eigenvalues --    0.06619   0.07139   0.07777   0.08121   0.09119
  Beta virt. eigenvalues --    0.09936   0.10113   0.10338   0.10977   0.11349
  Beta virt. eigenvalues --    0.11855   0.12230   0.12740   0.13035   0.13547

 Mulliken charges and spin densities:
               1          2
     1  C    0.824137  -1.087200
     2  O   -0.049239   0.049653
     3  N   -0.194055  -0.191206
     4  C   -0.644021   1.274990
     5  C    1.089179  -2.132399
     6  C   -0.557230   0.419401
     7  C    0.565225  -0.078763
     8  C   -0.745758   0.247106
     9  C    1.193853  -2.123048
    10  C   -1.228087   0.519349
    11  C    2.237777  -1.521485
    12  C   -1.076908   0.353732
    13  H   -0.199607   0.327503
    14  H   -0.226561   0.360930
    15  H   -0.261644   0.391366
    16  H   -0.010561   0.282179
    17  H   -0.867864   1.116999
    18  H   -0.134318   0.274837
    19  H    0.021652   0.167231
    20  H    0.094297   0.068180
    21  H   -0.289371   0.455112
    22  H    0.053571   0.112904
    23  H    0.106354   0.074061
    24  H    0.293631  -0.124236
    25  H   -0.322922   0.492424
    26  H   -0.087814   0.226092
    27  H   -0.102429   0.270385
    28  H    0.123529   0.013260
    29  H   -0.604815   0.760640
 Sum of Mulliken charges =  -1.00000   1.00000

 Dipole moment (field-independent basis, Debye):
    X=              1.4448    Y=             -2.1636    Z=             -0.4547  Tot=              2.6411
 Quadrupole moment (field-independent basis, Debye-Ang):
   XX=           -149.2263   YY=           -116.6776   ZZ=           -112.3976
   XY=              3.3097   XZ=              1.3098   YZ=             -0.4298

 Summary of Natural Population Analysis:

                                       Natural Population
                Natural  -----------------------------------------------
    Atom  No    Charge         Core      Valence    Rydberg      Total
 -----------------------------------------------------------------------
      C    1   -0.09221      0.99962     2.08349    0.00909     3.09221
      O    2   -0.24275      0.99991     3.23175    0.01109     4.24275
      N    3   -0.17756      0.99972     2.66397    0.01388     3.67756
      C    4   -0.01642      0.99958     2.00152    0.01533     3.01642
      C    5   -0.19240      0.99960     2.18274    0.01006     3.19240
      C    6   -0.19077      0.99960     2.18123    0.00994     3.19077
      C    7   -0.09961      0.99958     2.09016    0.00987     3.09961
      C    8   -0.19564      0.99960     2.18670    0.00934     3.19564
      C    9   -0.19452      0.99961     2.18539    0.00952     3.19452
      C   10   -0.22892      0.99955     2.22050    0.00888     3.22892
      C   11    0.01014      0.99938     1.98282    0.00766     2.98986
      C   12   -0.13307      0.99926     2.13018    0.00363     3.13307
      H   13    0.08591      0.00000     0.41255    0.00154     0.41409
      H   14    0.08134      0.00000     0.41676    0.00190     0.41866
      H   15    0.08170      0.00000     0.41637    0.00193     0.41830
      H   16    0.16932      0.00000     0.32727    0.00342     0.33068
      H   17    0.10392      0.00000     0.39339    0.00269     0.39608
      H   18    0.09931      0.00000     0.39907    0.00162     0.40069
      H   19    0.10433      0.00000     0.39415    0.00153     0.39567
      H   20    0.09892      0.00000     0.39885    0.00223     0.40108
      H   21    0.09700      0.00000     0.40163    0.00136     0.40300
      H   22    0.09365      0.00000     0.40445    0.00191     0.40635
      H   23    0.10318      0.00000     0.39457    0.00224     0.39682
      H   24    0.10173      0.00000     0.39724    0.00103     0.39827
      H   25    0.09979      0.00000     0.39901    0.00120     0.40021
      H   26    0.09885      0.00000     0.39971    0.00144     0.40115
      H   27    0.11319      0.00000     0.38539    0.00141     0.38681
      H   28    0.11128      0.00000     0.38723    0.00149     0.38872
      H   29    0.11031      0.00000     0.38827    0.00141     0.38969
 =======================================================================
   * Total *   -0.00000     11.99500    33.85637    0.14863    46.00000

 Normal termination of Gaussian 16 at Wed Dec  9 17:26:56 2020.
