 Gaussian 16, Revision A.03,

 -----------------------------------------------------------
 # opt freq B3LYP/6-31G(d) empiricaldispersion=gd3bj scf=xqc
 -----------------------------------------------------------

 -------------------------------
 CID_140113598_JID_2328_neutraal
 -------------------------------
 Symbolic Z-matrix:
 Charge =  0 Multiplicity = 1

 SCF Done:  E(RB3LYP) =  -827.055934701     A.U. after   14 cycles
 SCF Done:  E(RB3LYP) =  -827.056897337     A.U. after   11 cycles
 SCF Done:  E(RB3LYP) =  -827.057046109     A.U. after   11 cycles
 SCF Done:  E(RB3LYP) =  -827.057170304     A.U. after   12 cycles
 SCF Done:  E(RB3LYP) =  -827.057202161     A.U. after   11 cycles
 SCF Done:  E(RB3LYP) =  -827.057267395     A.U. after   11 cycles
 SCF Done:  E(RB3LYP) =  -827.057292729     A.U. after   10 cycles
 SCF Done:  E(RB3LYP) =  -827.057293300     A.U. after    8 cycles
 SCF Done:  E(RB3LYP) =  -827.057293755     A.U. after    9 cycles
 SCF Done:  E(RB3LYP) =  -827.057293897     A.U. after    7 cycles
 SCF Done:  E(RB3LYP) =  -827.057293983     A.U. after    7 cycles
 Optimization completed.
    -- Stationary point found.
 Normal termination of Gaussian 16 at Wed Dec  9 17:07:25 2020.

 --------------------------------------------------------------------
 #N Geom=AllCheck Guess=TCheck SCRF=Check GenChk RB3LYP/6-31G(d) Freq
 --------------------------------------------------------------------

 Structure from the checkpoint file:  "JID_2328.chk"
 -------------------------------
 CID_140113598_JID_2328_neutraal
 -------------------------------
 Charge =  0 Multiplicity = 1

 SCF Done:  E(RB3LYP) =  -827.057293983     A.U. after    1 cycles

  Exact polarizability: 171.460   8.152 135.745   6.111  -9.140  83.564
 Approx polarizability: 231.830  15.727 221.012  12.669 -21.255 123.828

                      1                      2                      3
                      A                      A                      A
 Frequencies --     26.6188                48.9528                77.6461
 Red. masses --      3.4525                 2.9551                 1.1650
 Frc consts  --      0.0014                 0.0042                 0.0041
 IR Inten    --      0.0074                 0.0815                18.2358

                      4                      5                      6
                      A                      A                      A
 Frequencies --     94.2350               121.2965               176.7284
 Red. masses --      3.1619                 2.1095                 2.9317
 Frc consts  --      0.0165                 0.0183                 0.0539
 IR Inten    --      1.5476                 0.1812                 0.2052

                      7                      8                      9
                      A                      A                      A
 Frequencies --    186.4657               218.2620               241.7987
 Red. masses --      4.0629                 1.7613                 1.0869
 Frc consts  --      0.0832                 0.0494                 0.0374
 IR Inten    --      1.4631                 0.0938                 0.0870

                     10                     11                     12
                      A                      A                      A
 Frequencies --    245.8305               294.2868               312.7580
 Red. masses --      3.0927                 1.7867                 2.8130
 Frc consts  --      0.1101                 0.0912                 0.1621
 IR Inten    --      0.1433                 0.2724                 0.2072

                     13                     14                     15
                      A                      A                      A
 Frequencies --    342.4499               404.6049               429.5973
 Red. masses --      2.9937                 3.5096                 3.4026
 Frc consts  --      0.2068                 0.3385                 0.3700
 IR Inten    --      1.9902                 0.2620                 0.1632

                     16                     17                     18
                      A                      A                      A
 Frequencies --    452.6030               498.1692               595.5072
 Red. masses --      3.1497                 2.7449                 4.6043
 Frc consts  --      0.3802                 0.4014                 0.9620
 IR Inten    --      3.2106                 1.5949                 0.2436

                     19                     20                     21
                      A                      A                      A
 Frequencies --    617.1596               701.7266               714.7532
 Red. masses --      3.5459                 4.7007                 2.2113
 Frc consts  --      0.7957                 1.3638                 0.6656
 IR Inten    --      1.2193                 6.3497                12.1476

                     22                     23                     24
                      A                      A                      A
 Frequencies --    753.6216               798.5737               836.0371
 Red. masses --      1.5661                 1.5128                 2.1297
 Frc consts  --      0.5241                 0.5684                 0.8770
 IR Inten    --     12.1210                21.2816                 6.4157

                     25                     26                     27
                      A                      A                      A
 Frequencies --    865.7023               881.4162               884.9270
 Red. masses --      1.8255                 1.4377                 1.6807
 Frc consts  --      0.8060                 0.6581                 0.7754
 IR Inten    --      1.2547                 3.3520                 6.3835

                     28                     29                     30
                      A                      A                      A
 Frequencies --    904.0712               928.1951               944.7347
 Red. masses --      1.4770                 1.7064                 1.2274
 Frc consts  --      0.7113                 0.8662                 0.6454
 IR Inten    --      1.2575                10.8255                10.2158

                     31                     32                     33
                      A                      A                      A
 Frequencies --    973.5300              1014.4679              1019.2087
 Red. masses --      1.2789                 1.4778                 5.6581
 Frc consts  --      0.7142                 0.8961                 3.4630
 IR Inten    --      0.3461                 5.3894                 1.5229

                     34                     35                     36
                      A                      A                      A
 Frequencies --   1025.7562              1074.2926              1098.3389
 Red. masses --      1.5807                 1.8087                 2.1430
 Frc consts  --      0.9799                 1.2299                 1.5231
 IR Inten    --      1.1322                 4.1773                 3.2649

                     37                     38                     39
                      A                      A                      A
 Frequencies --   1126.6154              1146.6530              1148.5464
 Red. masses --      1.9215                 1.7488                 2.0522
 Frc consts  --      1.4370                 1.3547                 1.5951
 IR Inten    --     15.0579                 8.2931                 0.4250

                     40                     41                     42
                      A                      A                      A
 Frequencies --   1185.3430              1211.4508              1243.8728
 Red. masses --      2.0362                 1.1349                 2.0036
 Frc consts  --      1.6857                 0.9813                 1.8265
 IR Inten    --      1.5916                 3.1599                 8.7614

                     43                     44                     45
                      A                      A                      A
 Frequencies --   1278.2798              1298.0559              1327.1904
 Red. masses --      1.5593                 1.3364                 1.7530
 Frc consts  --      1.5012                 1.3267                 1.8192
 IR Inten    --      0.2723                 0.1362                 1.4811

                     46                     47                     48
                      A                      A                      A
 Frequencies --   1362.4323              1363.5248              1379.5557
 Red. masses --      2.0696                 1.2813                 1.4642
 Frc consts  --      2.2634                 1.4035                 1.6418
 IR Inten    --      3.8450                 1.8637                 3.0613

                     49                     50                     51
                      A                      A                      A
 Frequencies --   1400.7561              1407.8500              1438.2364
 Red. masses --      1.3402                 1.4934                 1.2391
 Frc consts  --      1.5493                 1.7439                 1.5102
 IR Inten    --      9.7226                 0.8877                 3.0389

                     52                     53                     54
                      A                      A                      A
 Frequencies --   1443.4989              1483.2299              1510.0313
 Red. masses --      1.2661                 2.4308                 1.0768
 Frc consts  --      1.5543                 3.1507                 1.4466
 IR Inten    --      7.5050                10.8455                 0.7697

                     55                     56                     57
                      A                      A                      A
 Frequencies --   1521.3153              1526.9324              1528.8820
 Red. masses --      1.0820                 1.0621                 1.6232
 Frc consts  --      1.4755                 1.4590                 2.2355
 IR Inten    --      5.0382                 3.8990                17.3640

                     58                     59                     60
                      A                      A                      A
 Frequencies --   1534.4322              1535.2415              1543.3016
 Red. masses --      1.0515                 1.2256                 1.0828
 Frc consts  --      1.4587                 1.7019                 1.5194
 IR Inten    --      0.9756                10.3774                 8.6265

                     61                     62                     63
                      A                      A                      A
 Frequencies --   1637.2923              1653.5815              2695.8133
 Red. masses --      5.3515                 5.7781                 1.0384
 Frc consts  --      8.4523                 9.3086                 4.4465
 IR Inten    --     29.9980                37.8825                11.9534

                     64                     65                     66
                      A                      A                      A
 Frequencies --   3030.4757              3039.1664              3042.4197
 Red. masses --      1.0614                 1.0731                 1.0604
 Frc consts  --      5.7433                 5.8396                 5.7831
 IR Inten    --     19.0575                12.0948                22.4544

                     67                     68                     69
                      A                      A                      A
 Frequencies --   3046.3994              3052.9025              3065.7375
 Red. masses --      1.0469                 1.0376                 1.1004
 Frc consts  --      5.7244                 5.6980                 6.0936
 IR Inten    --     24.1250                19.5926                19.5389

                     70                     71                     72
                      A                      A                      A
 Frequencies --   3078.2612              3110.1677              3115.5379
 Red. masses --      1.1010                 1.1018                 1.1018
 Frc consts  --      6.1469                 6.2795                 6.3010
 IR Inten    --     47.7270                46.3004                58.1537

                     73                     74                     75
                      A                      A                      A
 Frequencies --   3118.7628              3126.6152              3175.7350
 Red. masses --      1.1011                 1.1027                 1.0897
 Frc consts  --      6.3101                 6.3511                 6.4750
 IR Inten    --     36.8871                34.1649                11.8250

                     76                     77                     78
                      A                      A                      A
 Frequencies --   3184.6557              3197.5773              3208.5446
 Red. masses --      1.0856                 1.0905                 1.0964
 Frc consts  --      6.4869                 6.5695                 6.6501
 IR Inten    --      3.8783                15.3079                19.3311

 - Thermochemistry -
 -------------------
 Temperature   298.150 Kelvin.  Pressure   1.00000 Atm.
 Atom     1 has atomic number  6 and mass  12.00000

 Molecular mass:   180.09727 amu.
 Principal axes and moments of inertia in atomic units:
                           1         2         3
     Eigenvalues --  1230.654474733.205215424.83997
           X            0.99985  -0.01739   0.00123
           Y            0.01739   0.99985   0.00046
           Z           -0.00124  -0.00043   1.00000
 This molecule is an asymmetric top.
 Rotational symmetry number  1.
 Warning -- assumption of classical behavior for rotation
           may cause significant error
 Rotational temperatures (Kelvin)      0.07038     0.01830     0.01597
 Rotational constants (GHZ):           1.46649     0.38129     0.33268
 Zero-point vibrational energy     635989.8 (Joules/Mol)
                                  152.00522 (Kcal/Mol)
 Warning -- explicit consideration of  19 degrees of freedom as
           vibrations may cause significant error
 Vibrational temperatures:     38.30    70.43   111.72   135.58   174.52
          (Kelvin)            254.27   268.28   314.03   347.89   353.70
                              423.41   449.99   492.71   582.14   618.09
                              651.19   716.75   856.80   887.95  1009.63
                             1028.37  1084.29  1148.97  1202.87  1245.55
                             1268.16  1273.21  1300.76  1335.47  1359.26
                             1400.69  1459.59  1466.41  1475.83  1545.67
                             1580.26  1620.95  1649.78  1652.50  1705.44
                             1743.01  1789.66  1839.16  1867.61  1909.53
                             1960.24  1961.81  1984.87  2015.38  2025.58
                             2069.30  2076.87  2134.04  2172.60  2188.83
                             2196.92  2199.72  2207.71  2208.87  2220.47
                             2355.70  2379.13  3878.67  4360.18  4372.68
                             4377.36  4383.09  4392.45  4410.91  4428.93
                             4474.84  4482.56  4487.20  4498.50  4569.17
                             4582.01  4600.60  4616.38

 Zero-point correction=                           0.242236 (Hartree/Particle)
 Thermal correction to Energy=                    0.255518
 Thermal correction to Enthalpy=                  0.256463
 Thermal correction to Gibbs Free Energy=         0.201229
 Sum of electronic and zero-point Energies=           -826.815058
 Sum of electronic and thermal Energies=              -826.801776
 Sum of electronic and thermal Enthalpies=            -826.800831
 Sum of electronic and thermal Free Energies=         -826.856065

                     E (Thermal)             CV                S
                      KCal/Mol        Cal/Mol-Kelvin    Cal/Mol-Kelvin
 Total                  160.340             49.122            116.249
 Electronic               0.000              0.000              0.000
 Translational            0.889              2.981             41.472
 Rotational               0.889              2.981             31.825
 Vibrational            158.563             43.160             42.953
 Vibration     1          0.593              1.984              6.067
 Vibration     2          0.595              1.978              4.859
 Vibration     3          0.599              1.964              3.950
 Vibration     4          0.603              1.953              3.570
 Vibration     5          0.609              1.931              3.080
 Vibration     6          0.628              1.871              2.363
 Vibration     7          0.632              1.858              2.263
 Vibration     8          0.646              1.813              1.973
 Vibration     9          0.658              1.776              1.790
 Vibration    10          0.660              1.770              1.760
 Vibration    11          0.689              1.684              1.449
 Vibration    12          0.701              1.649              1.348
 Vibration    13          0.722              1.591              1.201
 Vibration    14          0.770              1.460              0.946
 Vibration    15          0.791              1.406              0.860
 Vibration    16          0.811              1.355              0.788
 Vibration    17          0.854              1.254              0.663
 Vibration    18          0.953              1.041              0.457
 Vibration    19          0.977              0.996              0.421

                           ! Non-Optimized Parameters !
 Normal termination of Gaussian 16 at Wed Dec  9 17:14:00 2020.

 ----------------------------------------------------------------------
 # B3LYP/6-311++G(d,p) empiricaldispersion=gd3bj scf=xqc pop=npa geom=c
 heck
 ----------------------------------------------------------------------

 ---------------------------------------
 CID_140113598_JID_2328_Energie_neutraal
 ---------------------------------------
 Structure from the checkpoint file:  "JID_2328.chk"
 Charge =  0 Multiplicity = 1

 SCF Done:  E(RB3LYP) =  -827.200201702     A.U. after   15 cycles
 Normal termination of Gaussian 16 at Wed Dec  9 17:16:56 2020.

 ----------------------------------------------------------------------
 # B3LYP/6-311++G(d,p) empiricaldispersion=gd3bj scf=xqc pop=npa geom=c
 heck
 ----------------------------------------------------------------------

 -------------------------------------
 CID_140113598_JID_2328_Energie_kation
 -------------------------------------
 Structure from the checkpoint file:  "JID_2328.chk"
 Charge =  1 Multiplicity = 2

 SCF Done:  E(UB3LYP) =  -826.908377137     A.U. after   23 cycles
 Normal termination of Gaussian 16 at Wed Dec  9 17:22:29 2020.
 Gaussian 16:  ES64L-G16RevA.03 25-Dec-2016

 ----------------------------------------------------------------------
 # B3LYP/6-311++G(d,p) empiricaldispersion=gd3bj scf=xqc pop=npa geom=c
 heck
 ----------------------------------------------------------------------

 ------------------------------------
 CID_140113598_JID_2328_Energie_anion
 ------------------------------------
 Structure from the checkpoint file:  "JID_2328.chk"
 Charge = -1 Multiplicity = 2

                         Standard orientation:
 ---------------------------------------------------------------------
 Center     Atomic      Atomic             Coordinates (Angstroms)
 Number     Number       Type             X           Y           Z
 ---------------------------------------------------------------------
      1          6           0        3.967987   -1.694327   -0.204309
      2          6           0        3.776282   -0.255910   -0.694235
      3          6           0        2.306551    0.167288   -0.832120
      4          6           0        1.468056    0.088234    0.463487
      5          6           0        2.052107    0.952768    1.592653
      6          6           0        0.020848    0.448270    0.173906
      7          6           0       -0.972412   -0.532002    0.248059
      8          6           0       -2.309842   -0.228798   -0.030032
      9          6           0       -2.664633    1.075838   -0.388470
     10          6           0       -1.677633    2.056684   -0.464252
     11          6           0       -0.346743    1.750929   -0.187395
     12         16           0       -3.608633   -1.452948    0.055095
     13          1           0        3.600816   -1.827964    0.819503
     14          1           0        5.026623   -1.976106   -0.212250
     15          1           0        3.428272   -2.403106   -0.844612
     16          1           0        4.303143    0.433925   -0.022704
     17          1           0        4.255592   -0.143696   -1.675453
     18          1           0        2.264045    1.195696   -1.215222
     19          1           0        1.821875   -0.461196   -1.591491
     20          1           0        1.476537   -0.954266    0.806082
     21          1           0        2.146320    2.000414    1.284176
     22          1           0        1.408551    0.921239    2.477769
     23          1           0        3.047294    0.602232    1.884850
     24          1           0       -0.692914   -1.545009    0.527500
     25          1           0       -3.700100    1.321821   -0.605135
     26          1           0       -1.953361    3.070167   -0.742581
     27          1           0        0.408166    2.528855   -0.252154
     28          1           0       -2.826130   -2.489688    0.416446
 ---------------------------------------------------------------------

 SCF Done:  E(UB3LYP) =  -827.186571168     A.U. after   33 cycles
 SCF Done:  E(UB3LYP) =  -827.186571168     a.u. after    1 cycles

 The electronic state is 2-A.
 Alpha  occ. eigenvalues --  -88.75538 -10.11516 -10.08475 -10.08178 -10.07940
 Alpha  occ. eigenvalues --  -10.07921 -10.07677 -10.07268 -10.06664 -10.06604
 Alpha  occ. eigenvalues --  -10.06147 -10.05794  -7.84251  -5.80624  -5.80249
 Alpha  occ. eigenvalues --   -5.79662  -0.77288  -0.72143  -0.68727  -0.66733
 Alpha  occ. eigenvalues --   -0.63279  -0.60646  -0.58391  -0.53583  -0.51123
 Alpha  occ. eigenvalues --   -0.48697  -0.44785  -0.41610  -0.38532  -0.37111
 Alpha  occ. eigenvalues --   -0.35992  -0.34388  -0.32236  -0.31885  -0.31721
 Alpha  occ. eigenvalues --   -0.31467  -0.28987  -0.28102  -0.27497  -0.26731
 Alpha  occ. eigenvalues --   -0.25815  -0.25083  -0.24356  -0.22840  -0.22291
 Alpha  occ. eigenvalues --   -0.21545  -0.19745  -0.15488  -0.12252   0.04375
 Alpha virt. eigenvalues --    0.06380   0.06494   0.07780   0.08009   0.08132
 Alpha virt. eigenvalues --    0.08239   0.08844   0.09638   0.10050   0.10737
 Alpha virt. eigenvalues --    0.10998   0.11239   0.11972   0.12591   0.13384

  Beta  occ. eigenvalues --  -88.75515 -10.11518 -10.08472 -10.08169 -10.07930
  Beta  occ. eigenvalues --  -10.07896 -10.07654 -10.07252 -10.06646 -10.06594
  Beta  occ. eigenvalues --  -10.06120 -10.05759  -7.84226  -5.80566  -5.80234
  Beta  occ. eigenvalues --   -5.79645  -0.77259  -0.72110  -0.68677  -0.66693
  Beta  occ. eigenvalues --   -0.63234  -0.60564  -0.58340  -0.53527  -0.51070
  Beta  occ. eigenvalues --   -0.48638  -0.44729  -0.41545  -0.38490  -0.37063
  Beta  occ. eigenvalues --   -0.35939  -0.34335  -0.32163  -0.31854  -0.31677
  Beta  occ. eigenvalues --   -0.31432  -0.28954  -0.28052  -0.27412  -0.26683
  Beta  occ. eigenvalues --   -0.25783  -0.25037  -0.24295  -0.22807  -0.22254
  Beta  occ. eigenvalues --   -0.21508  -0.19713  -0.15448  -0.12204
  Beta virt. eigenvalues --    0.06516   0.07152   0.07599   0.07913   0.08225
  Beta virt. eigenvalues --    0.08430   0.08718   0.09305   0.09938   0.10236
  Beta virt. eigenvalues --    0.11165   0.11374   0.11665   0.12217   0.12866

 Mulliken charges and spin densities:
               1          2
     1  C    0.947955  -1.543626
     2  C   -0.161050  -0.034731
     3  C   -0.503418   0.065350
     4  C    1.412868  -1.140729
     5  C    0.517558  -1.269985
     6  C    0.741996   0.416342
     7  C   -1.378286   0.002410
     8  C    0.136317   0.646310
     9  C   -0.330346   0.634369
    10  C    0.847041  -1.121322
    11  C   -0.693221   0.155379
    12  S    0.259961  -0.989449
    13  H   -0.223510   0.373015
    14  H   -0.376947   0.518872
    15  H   -0.106327   0.243569
    16  H   -0.076409   0.208647
    17  H   -0.180977   0.332227
    18  H   -0.166756   0.298779
    19  H    0.074874   0.085276
    20  H    0.083173   0.085112
    21  H   -0.257440   0.415745
    22  H    0.075936   0.060424
    23  H   -0.007026   0.161819
    24  H   -0.472905   0.638532
    25  H   -0.173413   0.341814
    26  H   -0.422126   0.584665
    27  H    0.007224   0.134885
    28  H   -0.574748   0.696303
 Sum of Mulliken charges =  -1.00000   1.00000

 Dipole moment (field-independent basis, Debye):
    X=             -2.4125    Y=              2.3803    Z=             -0.3960  Tot=              3.4122
 Quadrupole moment (field-independent basis, Debye-Ang):
   XX=           -162.3704   YY=           -130.0730   ZZ=           -112.3096
   XY=              4.8949   XZ=             -0.0738   YZ=              1.6309

 Summary of Natural Population Analysis:

                                       Natural Population
                Natural  -----------------------------------------------
    Atom  No    Charge         Core      Valence    Rydberg      Total
 -----------------------------------------------------------------------
      C    1   -0.28612      0.99967     2.28176    0.00469     3.28612
      C    2   -0.19186      0.99964     2.18340    0.00883     3.19186
      C    3   -0.18052      0.99961     2.17341    0.00751     3.18052
      C    4   -0.12077      0.99957     2.10926    0.01194     3.12077
      C    5   -0.28211      0.99965     2.27726    0.00520     3.28211
      C    6    0.00276      0.99950     1.98599    0.01175     2.99724
      C    7   -0.11231      0.99944     2.10126    0.01161     3.11231
      C    8   -0.07679      0.99941     2.06608    0.01130     3.07679
      C    9   -0.11777      0.99949     2.10749    0.01079     3.11777
      C   10   -0.09093      0.99956     2.08166    0.00971     3.09093
      C   11   -0.11119      0.99950     2.10165    0.01004     3.11119
      S   12    0.01487      4.99956     2.96880    0.01677     7.98513
      H   13    0.09649      0.00000     0.40193    0.00159     0.40351
      H   14    0.09889      0.00000     0.39976    0.00135     0.40111
      H   15    0.09637      0.00000     0.40206    0.00157     0.40363
      H   16    0.09413      0.00000     0.40455    0.00133     0.40587
      H   17    0.09547      0.00000     0.40343    0.00110     0.40453
      H   18    0.09658      0.00000     0.40197    0.00145     0.40342
      H   19    0.09808      0.00000     0.40065    0.00127     0.40192
      H   20    0.09925      0.00000     0.39790    0.00284     0.40075
      H   21    0.09653      0.00000     0.40219    0.00128     0.40347
      H   22    0.10139      0.00000     0.39761    0.00100     0.39861
      H   23    0.10109      0.00000     0.39784    0.00107     0.39891
      H   24    0.10485      0.00000     0.39308    0.00207     0.39515
      H   25    0.10264      0.00000     0.39629    0.00107     0.39736
      H   26    0.10005      0.00000     0.39890    0.00105     0.39995
      H   27    0.10167      0.00000     0.39667    0.00166     0.39833
      H   28    0.06924      0.00000     0.42601    0.00475     0.43076
 =======================================================================
   * Total *    0.00000     15.99459    32.85886    0.14655    49.00000

 Normal termination of Gaussian 16 at Wed Dec  9 17:30:27 2020.
