 Gaussian 16, Revision A.03,

 -----------------------------------------------------------
 # opt freq B3LYP/6-31G(d) empiricaldispersion=gd3bj scf=xqc
 -----------------------------------------------------------

 -------------------------------
 CID_140638743_JID_7732_neutraal
 -------------------------------
 Symbolic Z-matrix:
 Charge =  0 Multiplicity = 1

 SCF Done:  E(RB3LYP) =  -2533.26202918     A.U. after   14 cycles
 SCF Done:  E(RB3LYP) =  -2533.27362792     A.U. after   12 cycles
 SCF Done:  E(RB3LYP) =  -2533.26250294     A.U. after   14 cycles
 SCF Done:  E(RB3LYP) =  -2533.27517919     A.U. after   11 cycles
 SCF Done:  E(RB3LYP) =  -2533.27589110     A.U. after   12 cycles
 SCF Done:  E(RB3LYP) =  -2533.27705238     A.U. after   12 cycles
 SCF Done:  E(RB3LYP) =  -2533.27753958     A.U. after   12 cycles
 SCF Done:  E(RB3LYP) =  -2533.27847148     A.U. after   12 cycles
 SCF Done:  E(RB3LYP) =  -2533.27815621     A.U. after   14 cycles
 SCF Done:  E(RB3LYP) =  -2533.28007155     A.U. after   13 cycles
 SCF Done:  E(RB3LYP) =  -2533.28751111     A.U. after   10 cycles
 SCF Done:  E(RB3LYP) =  -2533.28752074     A.U. after    9 cycles
 SCF Done:  E(RB3LYP) =  -2533.28752234     A.U. after    8 cycles
 SCF Done:  E(RB3LYP) =  -2533.28752270     A.U. after    7 cycles
 SCF Done:  E(RB3LYP) =  -2533.28752281     A.U. after    6 cycles
 Optimization completed.
    -- Stationary point found.
 Normal termination of Gaussian 16 at Fri Dec 11 13:47:39 2020.

 --------------------------------------------------------------------
 #N Geom=AllCheck Guess=TCheck SCRF=Check GenChk RB3LYP/6-31G(d) Freq
 --------------------------------------------------------------------

 Structure from the checkpoint file:  "JID_7732.chk"
 -------------------------------
 CID_140638743_JID_7732_neutraal
 -------------------------------
 Charge =  0 Multiplicity = 1

 SCF Done:  E(RB3LYP) =  -2533.28752281     A.U. after    1 cycles

  Exact polarizability: 201.041  -7.039 201.481   5.413   5.136 173.763
 Approx polarizability: 301.265 -20.032 321.767  12.284  21.339 280.139

                      1                      2                      3
                      A                      A                      A
 Frequencies --     28.3465                36.4867                48.2264
 Red. masses --      6.2131                 5.9379                 5.6584
 Frc consts  --      0.0029                 0.0047                 0.0078
 IR Inten    --      0.3690                 0.8565                 0.3316

                      4                      5                      6
                      A                      A                      A
 Frequencies --     53.2253                56.6400                68.1383
 Red. masses --      4.8422                 4.8411                 3.8258
 Frc consts  --      0.0081                 0.0092                 0.0105
 IR Inten    --      0.2134                 0.3336                 0.3142

                      7                      8                      9
                      A                      A                      A
 Frequencies --     71.0551                80.0112                91.3857
 Red. masses --      4.0034                 3.6653                 4.7295
 Frc consts  --      0.0119                 0.0138                 0.0233
 IR Inten    --      0.0540                 0.4163                 0.6776

                     10                     11                     12
                      A                      A                      A
 Frequencies --    111.8554               140.6082               144.9032
 Red. masses --      4.6749                 3.5798                 2.7488
 Frc consts  --      0.0345                 0.0417                 0.0340
 IR Inten    --      6.4310                 0.0840                 0.3082

                     13                     14                     15
                      A                      A                      A
 Frequencies --    152.3774               175.0908               186.9263
 Red. masses --      4.4286                 4.1107                 2.8911
 Frc consts  --      0.0606                 0.0742                 0.0595
 IR Inten    --      0.2678                 0.4993                 0.4793

                     16                     17                     18
                      A                      A                      A
 Frequencies --    205.5200               208.6717               217.9219
 Red. masses --      1.5147                 1.4764                 4.1122
 Frc consts  --      0.0377                 0.0379                 0.1151
 IR Inten    --      0.1752                 0.1484                 0.0033

                     19                     20                     21
                      A                      A                      A
 Frequencies --    264.2026               290.8476               303.7470
 Red. masses --      6.2970                 4.4377                 5.8998
 Frc consts  --      0.2590                 0.2212                 0.3207
 IR Inten    --      0.8929                 5.2224                 2.3244

                     22                     23                     24
                      A                      A                      A
 Frequencies --    312.1181               323.3231               338.2648
 Red. masses --      2.1069                 2.4856                11.5723
 Frc consts  --      0.1209                 0.1531                 0.7802
 IR Inten    --      0.1870                 1.7153                 0.4283

                     25                     26                     27
                      A                      A                      A
 Frequencies --    407.5778               410.7401               413.7660
 Red. masses --      4.2706                 2.9669                 2.1179
 Frc consts  --      0.4180                 0.2949                 0.2136
 IR Inten    --      0.3806                 0.6790                 0.4376

                     28                     29                     30
                      A                      A                      A
 Frequencies --    427.0231               462.6591               493.8811
 Red. masses --      9.0844                15.2749                18.8481
 Frc consts  --      0.9760                 1.9264                 2.7087
 IR Inten    --      1.1865                 7.1867                 0.0867

                     31                     32                     33
                      A                      A                      A
 Frequencies --    496.4789               622.2171               622.5803
 Red. masses --     14.4788                 3.9235                 4.0129
 Frc consts  --      2.1027                 0.8950                 0.9164
 IR Inten    --      0.0051                 1.1322                 1.0474

                     34                     35                     36
                      A                      A                      A
 Frequencies --    702.2606               765.9692               769.4859
 Red. masses --      6.8283                 6.7425                 5.4950
 Frc consts  --      1.9841                 2.3307                 1.9170
 IR Inten    --     10.0171                 5.0669                45.5617

                     37                     38                     39
                      A                      A                      A
 Frequencies --    788.4094               794.4014               799.5177
 Red. masses --      7.7005                 1.3686                 4.7939
 Frc consts  --      2.8202                 0.5089                 1.8055
 IR Inten    --     74.9503                18.5034                11.0784

                     40                     41                     42
                      A                      A                      A
 Frequencies --    801.7330               828.0432               847.4029
 Red. masses --      1.2316                 9.7783                 1.7737
 Frc consts  --      0.4664                 3.9502                 0.7504
 IR Inten    --      9.6837                56.4204                 8.8719

                     43                     44                     45
                      A                      A                      A
 Frequencies --    848.4822               901.5251               904.7764
 Red. masses --      1.7798                 1.9776                 2.0035
 Frc consts  --      0.7549                 0.9470                 0.9663
 IR Inten    --      2.5031                 2.6819                 1.3174

                     46                     47                     48
                      A                      A                      A
 Frequencies --    932.4779               943.7349              1065.6698
 Red. masses --      4.2311                 4.2066                 1.9876
 Frc consts  --      2.1676                 2.2074                 1.3299
 IR Inten    --     90.9732                35.0326                 1.4250

                     49                     50                     51
                      A                      A                      A
 Frequencies --   1066.1410              1089.2392              1091.3185
 Red. masses --      2.0085                 1.4407                 1.3197
 Frc consts  --      1.3451                 1.0071                 0.9260
 IR Inten    --      0.1243                 2.0006                 0.8949

                     52                     53                     54
                      A                      A                      A
 Frequencies --   1092.0606              1099.1765              1110.9495
 Red. masses --      1.4277                 1.3222                 1.6441
 Frc consts  --      1.0032                 0.9412                 1.1955
 IR Inten    --      3.7074                 4.4410                 0.0572

                     55                     56                     57
                      A                      A                      A
 Frequencies --   1111.6058              1139.2146              1145.0155
 Red. masses --      1.6319                 1.3065                 1.3007
 Frc consts  --      1.1880                 0.9990                 1.0047
 IR Inten    --      0.5342                 2.6788                 1.8270

                     58                     59                     60
                      A                      A                      A
 Frequencies --   1246.7763              1251.1698              1281.8156
 Red. masses --      1.2486                 1.2642                 1.4077
 Frc consts  --      1.1435                 1.1660                 1.3628
 IR Inten    --      0.4123                 1.0326                 9.5278

                     61                     62                     63
                      A                      A                      A
 Frequencies --   1295.0261              1298.1799              1299.1729
 Red. masses --      1.3670                 1.2578                 1.3840
 Frc consts  --      1.3507                 1.2489                 1.3763
 IR Inten    --      1.4020                 6.3560                11.7347

                     64                     65                     66
                      A                      A                      A
 Frequencies --   1313.7270              1323.8891              1344.5193
 Red. masses --      1.1361                 1.1380                 1.1651
 Frc consts  --      1.1552                 1.1751                 1.2409
 IR Inten    --     40.5300                31.5630                11.4353

                     67                     68                     69
                      A                      A                      A
 Frequencies --   1346.5559              1386.6011              1399.6571
 Red. masses --      1.1713                 2.4721                 1.4431
 Frc consts  --      1.2513                 2.8004                 1.6656
 IR Inten    --     26.0882                32.1020                 7.1013

                     70                     71                     72
                      A                      A                      A
 Frequencies --   1400.2090              1415.6980              1445.2434
 Red. masses --      1.4159                 2.6610                 1.2422
 Frc consts  --      1.6356                 3.1422                 1.5287
 IR Inten    --      2.7092                23.4988                 6.5319

                     73                     74                     75
                      A                      A                      A
 Frequencies --   1447.2046              1480.4455              1481.3148
 Red. masses --      1.2442                 1.0937                 1.0927
 Frc consts  --      1.5354                 1.4124                 1.4126
 IR Inten    --      5.5513                 5.5817                11.6446

                     76                     77                     78
                      A                      A                      A
 Frequencies --   1517.3777              1524.2176              1525.6582
 Red. masses --      1.0681                 1.0623                 1.0406
 Frc consts  --      1.4489                 1.4541                 1.4271
 IR Inten    --      2.2219                 2.7715                 9.1263

                     79                     80                     81
                      A                      A                      A
 Frequencies --   1526.7912              1535.1610              1541.0098
 Red. masses --      1.0408                 1.0627                 1.0633
 Frc consts  --      1.4294                 1.4756                 1.4877
 IR Inten    --      4.6037                 3.1996                 4.0595

                     82                     83                     84
                      A                      A                      A
 Frequencies --   3034.5152              3039.5652              3054.4732
 Red. masses --      1.0668                 1.0711                 1.0438
 Frc consts  --      5.7877                 5.8302                 5.7377
 IR Inten    --     22.0326                15.5766                27.8683

                     85                     86                     87
                      A                      A                      A
 Frequencies --   3058.3316              3058.7525              3060.1945
 Red. masses --      1.0592                 1.0562                 1.0497
 Frc consts  --      5.8373                 5.8223                 5.7916
 IR Inten    --     13.7398                24.2156                13.9116

                     88                     89                     90
                      A                      A                      A
 Frequencies --   3082.1964              3108.7379              3113.6531
 Red. masses --      1.0948                 1.0966                 1.1019
 Frc consts  --      6.1278                 6.2442                 6.2943
 IR Inten    --     12.7227                15.3246                 5.4854

                     91                     92                     93
                      A                      A                      A
 Frequencies --   3116.7422              3121.6704              3128.1352
 Red. masses --      1.1026                 1.1011                 1.0884
 Frc consts  --      6.3104                 6.3222                 6.2747
 IR Inten    --      3.9661                34.0074                 5.0259

                     94                     95                     96
                      A                      A                      A
 Frequencies --   3129.5850              3145.6542              3166.4484
 Red. masses --      1.0950                 1.0994                 1.0954
 Frc consts  --      6.3189                 6.4098                 6.4712
 IR Inten    --     17.4283                25.9058                23.4176

                     97                     98                     99
                      A                      A                      A
 Frequencies --   3175.4582              3177.1083              3179.6427
 Red. masses --      1.0923                 1.0866                 1.0877
 Frc consts  --      6.4897                 6.4621                 6.4789
 IR Inten    --      0.4633                 4.0497                 5.2135

 - Thermochemistry -
 -------------------
 Temperature   298.150 Kelvin.  Pressure   1.00000 Atm.
 Atom     1 has atomic number  6 and mass  12.00000

 Molecular mass:   329.99104 amu.
 Principal axes and moments of inertia in atomic units:
                           1         2         3
     Eigenvalues --  5187.004637846.160049152.95063
           X            0.99802   0.03717  -0.05066
           Y           -0.04004   0.99757  -0.05695
           Z            0.04842   0.05886   0.99709
 This molecule is an asymmetric top.
 Rotational symmetry number  1.
 Warning -- assumption of classical behavior for rotation
           may cause significant error
 Rotational temperatures (Kelvin)      0.01670     0.01104     0.00946
 Rotational constants (GHZ):           0.34794     0.23002     0.19718
 Zero-point vibrational energy     720652.6 (Joules/Mol)
                                  172.24011 (Kcal/Mol)
 Warning -- explicit consideration of  31 degrees of freedom as
           vibrations may cause significant error
 Vibrational temperatures:     40.78    52.50    69.39    76.58    81.49
          (Kelvin)             98.04   102.23   115.12   131.48   160.94
                              202.30   208.48   219.24   251.92   268.95
                              295.70   300.23   313.54   380.13   418.46
                              437.02   449.07   465.19   486.69   586.41
                              590.96   595.32   614.39   665.66   710.58
                              714.32   895.23   895.75  1010.40  1102.06
                             1107.12  1134.35  1142.97  1150.33  1153.51
                             1191.37  1219.22  1220.78  1297.09  1301.77
                             1341.63  1357.82  1533.26  1533.94  1567.17
                             1570.16  1571.23  1581.47  1598.41  1599.35
                             1639.08  1647.42  1793.83  1800.15  1844.25
                             1863.25  1867.79  1869.22  1890.16  1904.78
                             1934.46  1937.39  1995.01  2013.79  2014.59
                             2036.87  2079.38  2082.20  2130.03  2131.28
                             2183.17  2193.01  2195.08  2196.71  2208.75
                             2217.17  4365.99  4373.26  4394.71  4400.26
                             4400.86  4402.94  4434.59  4472.78  4479.85
                             4484.30  4491.39  4500.69  4502.77  4525.89
                             4555.81  4568.78  4571.15  4574.80

 Zero-point correction=                           0.274482 (Hartree/Particle)
 Thermal correction to Energy=                    0.296261
 Thermal correction to Enthalpy=                  0.297205
 Thermal correction to Gibbs Free Energy=         0.221286
 Sum of electronic and zero-point Energies=          -2533.013041
 Sum of electronic and thermal Energies=             -2532.991262
 Sum of electronic and thermal Enthalpies=           -2532.990318
 Sum of electronic and thermal Free Energies=        -2533.066237

                     E (Thermal)             CV                S
                      KCal/Mol        Cal/Mol-Kelvin    Cal/Mol-Kelvin
 Total                  185.906             76.099            159.785
 Electronic               0.000              0.000              0.000
 Translational            0.889              2.981             43.277
 Rotational               0.889              2.981             34.276
 Vibrational            184.129             70.137             82.232
 Vibration     1          0.593              1.984              5.942
 Vibration     2          0.594              1.982              5.441
 Vibration     3          0.595              1.978              4.889
 Vibration     4          0.596              1.976              4.694
 Vibration     5          0.596              1.975              4.571
 Vibration     6          0.598              1.969              4.206
 Vibration     7          0.598              1.968              4.124
 Vibration     8          0.600              1.963              3.891
 Vibration     9          0.602              1.955              3.630
 Vibration    10          0.607              1.940              3.236
 Vibration    11          0.615              1.913              2.796
 Vibration    12          0.616              1.908              2.738
 Vibration    13          0.619              1.900              2.642
 Vibration    14          0.627              1.873              2.380
 Vibration    15          0.632              1.858              2.258
 Vibration    16          0.640              1.832              2.083
 Vibration    17          0.642              1.827              2.055
 Vibration    18          0.646              1.814              1.976
 Vibration    19          0.671              1.739              1.634
 Vibration    20          0.687              1.691              1.469
 Vibration    21          0.695              1.667              1.396
 Vibration    22          0.700              1.651              1.351
 Vibration    23          0.708              1.629              1.293
 Vibration    24          0.719              1.599              1.220
 Vibration    25          0.772              1.454              0.935
 Vibration    26          0.775              1.447              0.924
 Vibration    27          0.777              1.440              0.913
 Vibration    28          0.789              1.411              0.868
 Vibration    29          0.820              1.333              0.758
 Vibration    30          0.850              1.264              0.674
 Vibration    31          0.852              1.258              0.667

 Optimization completed.
    -- Stationary point found.
 Normal termination of Gaussian 16 at Fri Dec 11 14:03:38 2020.

 ----------------------------------------------------------------------
 # B3LYP/6-311++G(d,p) empiricaldispersion=gd3bj scf=xqc pop=npa geom=c
 heck
 ----------------------------------------------------------------------

 ---------------------------------------
 CID_140638743_JID_7732_Energie_neutraal
 ---------------------------------------
 Structure from the checkpoint file:  "JID_7732.chk"
 Charge =  0 Multiplicity = 1

 SCF Done:  E(RB3LYP) =  -2533.57705543     A.U. after   16 cycles
 Normal termination of Gaussian 16 at Fri Dec 11 14:12:15 2020.

 ----------------------------------------------------------------------
 # B3LYP/6-311++G(d,p) empiricaldispersion=gd3bj scf=xqc pop=npa geom=c
 heck
 ----------------------------------------------------------------------

 -------------------------------------
 CID_140638743_JID_7732_Energie_kation
 -------------------------------------
 Structure from the checkpoint file:  "JID_7732.chk"
 Charge =  1 Multiplicity = 2

 SCF Done:  E(UB3LYP) =  -2533.26886733     A.U. after   33 cycles
 SCF Done:  E(UB3LYP) =  -2533.26886733     a.u. after    1 cycles
 Normal termination of Gaussian 16 at Fri Dec 11 14:37:00 2020.
 Gaussian 16:  ES64L-G16RevA.03 25-Dec-2016

 ----------------------------------------------------------------------
 # B3LYP/6-311++G(d,p) empiricaldispersion=gd3bj scf=xqc pop=npa geom=c
 heck
 ----------------------------------------------------------------------

 ------------------------------------
 CID_140638743_JID_7732_Energie_anion
 ------------------------------------
 Structure from the checkpoint file:  "JID_7732.chk"
 Charge = -1 Multiplicity = 2

                         Standard orientation:
 ---------------------------------------------------------------------
 Center     Atomic      Atomic             Coordinates (Angstroms)
 Number     Number       Type             X           Y           Z
 ---------------------------------------------------------------------
      1          6           0       -2.529336   -2.035837    2.096632
      2          6           0       -1.249716   -2.317812    1.303231
      3          6           0       -1.489664   -2.702225   -0.161266
      4         16           0       -1.543431   -1.348990   -1.416168
      5         16           0       -3.199153   -0.156914   -0.978936
      6          6           0       -2.375388    1.062096    0.091720
      7          6           0       -1.650914    2.188679   -0.511439
      8          8           0       -2.921513    2.368348    0.124039
      9         16           0       -0.165503    2.840568    0.295205
     10          6           0        0.591094    1.250549    0.664081
     11          6           0        1.730434    1.137142    1.573218
     12          8           0        0.443580    0.691437    1.984141
     13         16           0        3.087331   -0.058236    1.418729
     14         16           0        2.318808   -1.558410    0.201501
     15          6           0        2.986551   -1.241344   -1.492902
     16          6           0        2.302916   -0.161330   -2.335653
     17          6           0        2.776912    1.265486   -2.049600
     18          1           0       -3.113343   -1.217928    1.666717
     19          1           0       -2.287605   -1.772918    3.131779
     20          1           0       -3.179082   -2.919085    2.116412
     21          1           0       -0.562184   -1.469069    1.360091
     22          1           0       -0.725462   -3.159024    1.776626
     23          1           0       -0.644624   -3.287152   -0.545992
     24          1           0       -2.389848   -3.313964   -0.275617
     25          1           0       -2.050902    0.672714    1.054400
     26          1           0       -1.677944    2.318088   -1.590762
     27          1           0        0.475556    0.515204   -0.128466
     28          1           0        2.102500    2.022586    2.092752
     29          1           0        4.063678   -1.067277   -1.408776
     30          1           0        2.852604   -2.226773   -1.956299
     31          1           0        2.511208   -0.395631   -3.388908
     32          1           0        1.215746   -0.243425   -2.217649
     33          1           0        3.856352    1.357153   -2.217833
     34          1           0        2.271098    1.979741   -2.707637
     35          1           0        2.579548    1.567774   -1.019701
 ---------------------------------------------------------------------

 SCF Done:  E(UB3LYP) =  -2533.58136085     A.U. after   29 cycles

 The electronic state is 2-A.
 Alpha  occ. eigenvalues --  -88.75996 -88.73941 -88.73691 -88.73161 -88.72867
 Alpha  occ. eigenvalues --  -19.05647 -19.04819 -10.15998 -10.15651 -10.15584
 Alpha  occ. eigenvalues --  -10.15385 -10.09094 -10.08388 -10.06968 -10.06186
 Alpha  occ. eigenvalues --  -10.06061 -10.05768  -7.84662  -7.82509  -7.82252
 Alpha  occ. eigenvalues --   -7.81733  -7.81448  -5.81030  -5.80690  -5.80049
 Alpha  occ. eigenvalues --   -5.78933  -5.78657  -5.78545  -5.78330  -5.78190
 Alpha  occ. eigenvalues --   -5.77915  -5.77882  -5.77738  -5.77605  -5.77450
 Alpha  occ. eigenvalues --   -5.77075  -5.76787  -1.00251  -0.99359  -0.71013
 Alpha  occ. eigenvalues --   -0.70584  -0.69520  -0.67070  -0.66613  -0.61727
 Alpha  occ. eigenvalues --   -0.61118  -0.57361  -0.55219  -0.54616  -0.51151
 Alpha  occ. eigenvalues --   -0.50378  -0.49543  -0.46399  -0.45978  -0.40891
 Alpha  occ. eigenvalues --   -0.39642  -0.38557  -0.37307  -0.35452  -0.34905
 Alpha  occ. eigenvalues --   -0.34759  -0.34597  -0.31676  -0.31472  -0.30988
 Alpha  occ. eigenvalues --   -0.30587  -0.28727  -0.28485  -0.26825  -0.26523
 Alpha  occ. eigenvalues --   -0.26247  -0.25776  -0.25381  -0.24415  -0.23978
 Alpha  occ. eigenvalues --   -0.23764  -0.23139  -0.21188  -0.20309  -0.20181
 Alpha  occ. eigenvalues --   -0.19273  -0.18744  -0.15380  -0.13578  -0.12579
 Alpha  occ. eigenvalues --   -0.12090  -0.11860   0.04188
 Alpha virt. eigenvalues --    0.06885   0.07239   0.08028   0.08452   0.08778
 Alpha virt. eigenvalues --    0.09549   0.09843   0.10077   0.10693   0.10951
 Alpha virt. eigenvalues --    0.11464   0.11967   0.12299   0.12775   0.12859

  Beta  occ. eigenvalues --  -88.75994 -88.73828 -88.73589 -88.73044 -88.72743
  Beta  occ. eigenvalues --  -19.05606 -19.04815 -10.15975 -10.15644 -10.15576
  Beta  occ. eigenvalues --  -10.15392 -10.09078 -10.08358 -10.06957 -10.06186
  Beta  occ. eigenvalues --  -10.06059 -10.05767  -7.84659  -7.82395  -7.82150
  Beta  occ. eigenvalues --   -7.81609  -7.81318  -5.81021  -5.80688  -5.80047
  Beta  occ. eigenvalues --   -5.78696  -5.78435  -5.78411  -5.78213  -5.77938
  Beta  occ. eigenvalues --   -5.77804  -5.77649  -5.77626  -5.77536  -5.77334
  Beta  occ. eigenvalues --   -5.76991  -5.76698  -1.00170  -0.99339  -0.70751
  Beta  occ. eigenvalues --   -0.70288  -0.69484  -0.66748  -0.66332  -0.61558
  Beta  occ. eigenvalues --   -0.60938  -0.57262  -0.55018  -0.54433  -0.51011
  Beta  occ. eigenvalues --   -0.50215  -0.49467  -0.46149  -0.45703  -0.40830
  Beta  occ. eigenvalues --   -0.39518  -0.38402  -0.37216  -0.35369  -0.34816
  Beta  occ. eigenvalues --   -0.34700  -0.34473  -0.31595  -0.31375  -0.30935
  Beta  occ. eigenvalues --   -0.30463  -0.28579  -0.28246  -0.26591  -0.26427
  Beta  occ. eigenvalues --   -0.26120  -0.25629  -0.25287  -0.24374  -0.23894
  Beta  occ. eigenvalues --   -0.23653  -0.22903  -0.21026  -0.19926  -0.19669
  Beta  occ. eigenvalues --   -0.19197  -0.18573  -0.15347  -0.13269  -0.12292
  Beta  occ. eigenvalues --   -0.11830  -0.11571
  Beta virt. eigenvalues --    0.07165   0.07736   0.07944   0.08612   0.08956
  Beta virt. eigenvalues --    0.09043   0.09673   0.09873   0.10013   0.10681
  Beta virt. eigenvalues --    0.10901   0.11560   0.11943   0.12296   0.12694

 Mulliken charges and spin densities:
               1          2
     1  C   -0.600944  -0.066219
     2  C   -0.106400  -0.014880
     3  C   -0.200045  -0.074278
     4  S    0.079304  -0.118096
     5  S   -0.124779   0.246998
     6  C   -0.322047   0.017774
     7  C   -0.729274   0.044467
     8  O    0.055927  -0.010926
     9  S   -0.013875  -0.023049
    10  C   -0.592736  -0.078016
    11  C    0.234800  -0.086341
    12  O    0.077568   0.005446
    13  S   -0.194138   0.248839
    14  S    0.328959  -0.015164
    15  C   -0.364041  -0.277340
    16  C   -0.085788   0.124191
    17  C   -0.498431  -0.132348
    18  H    0.062741   0.004205
    19  H    0.128867   0.002755
    20  H    0.111303   0.003532
    21  H    0.200715  -0.017418
    22  H    0.107382   0.023712
    23  H   -0.086138   0.258969
    24  H    0.084184   0.108468
    25  H    0.381415  -0.008176
    26  H    0.238767   0.001519
    27  H    0.298121   0.174408
    28  H    0.104978   0.148013
    29  H    0.095374   0.075301
    30  H   -0.016586   0.206900
    31  H    0.050202   0.101387
    32  H   -0.038026   0.111008
    33  H    0.121456  -0.005625
    34  H    0.110945   0.010062
    35  H    0.100241   0.009920
 Sum of Mulliken charges =  -1.00000   1.00000

 Dipole moment (field-independent basis, Debye):
    X=              0.9827    Y=              1.2796    Z=             -0.4944  Tot=              1.6874
 Quadrupole moment (field-independent basis, Debye-Ang):
   XX=           -193.9809   YY=           -170.5460   ZZ=           -166.2285
   XY=              7.6581   XZ=            -10.5576   YZ=             -7.3039

 Summary of Natural Population Analysis:

                                       Natural Population
                Natural  -----------------------------------------------
    Atom  No    Charge         Core      Valence    Rydberg      Total
 -----------------------------------------------------------------------
      C    1   -0.28661      0.99967     2.28268    0.00426     3.28661
      C    2   -0.21006      0.99962     2.20036    0.01007     3.21006
      C    3   -0.25064      0.99958     2.23863    0.01242     3.25064
      S    4    0.06632      4.99967     2.91063    0.02337     7.93368
      S    5    0.06384      4.99966     2.91611    0.02040     7.93616
      C    6   -0.03324      0.99947     2.01192    0.02185     3.03324
      C    7   -0.03248      0.99945     2.01497    0.01805     3.03248
      O    8   -0.26451      0.99991     3.25598    0.00862     4.26451
      S    9    0.10556      4.99956     2.87852    0.01636     7.89444
      C   10   -0.06078      0.99946     2.04154    0.01979     3.06078
      C   11   -0.03634      0.99946     2.01463    0.02225     3.03634
      O   12   -0.27907      0.99991     3.27029    0.00888     4.27907
      S   13    0.07530      4.99966     2.90408    0.02096     7.92470
      S   14    0.07048      4.99967     2.90698    0.02287     7.92952
      C   15   -0.25180      0.99958     2.24013    0.01208     3.25180
      C   16   -0.20643      0.99963     2.19699    0.00981     3.20643
      C   17   -0.28606      0.99966     2.28105    0.00534     3.28606
      H   18    0.10145      0.00000     0.39745    0.00109     0.39855
      H   19    0.09610      0.00000     0.40317    0.00073     0.40390
      H   20    0.09091      0.00000     0.40822    0.00087     0.40909
      H   21    0.11372      0.00000     0.38429    0.00198     0.38628
      H   22    0.09440      0.00000     0.40449    0.00111     0.40560
      H   23    0.11210      0.00000     0.38620    0.00170     0.38790
      H   24    0.09415      0.00000     0.40448    0.00136     0.40585
      H   25    0.10138      0.00000     0.39682    0.00180     0.39862
      H   26    0.09876      0.00000     0.40013    0.00111     0.40124
      H   27    0.11882      0.00000     0.37853    0.00265     0.38118
      H   28    0.09884      0.00000     0.39954    0.00162     0.40116
      H   29    0.09686      0.00000     0.40193    0.00121     0.40314
      H   30    0.10746      0.00000     0.39099    0.00155     0.39254
      H   31    0.09250      0.00000     0.40633    0.00118     0.40750
      H   32    0.10839      0.00000     0.38975    0.00186     0.39161
      H   33    0.09226      0.00000     0.40693    0.00081     0.40774
      H   34    0.09568      0.00000     0.40361    0.00071     0.40432
      H   35    0.10273      0.00000     0.39615    0.00113     0.39727
 =======================================================================
   * Total *    0.00000     36.99362    49.72450    0.28188    87.00000

 Normal termination of Gaussian 16 at Fri Dec 11 14:58:21 2020.
