 Gaussian 16, Revision A.03,

 -----------------------------------------------------------
 # opt freq B3LYP/6-31G(d) empiricaldispersion=gd3bj scf=xqc
 -----------------------------------------------------------

 ------------------------------
 CID_83254630_JID_6155_neutraal
 ------------------------------
 Symbolic Z-matrix:
 Charge =  0 Multiplicity = 1

 SCF Done:  E(RB3LYP) =  -711.879907995     A.U. after   14 cycles
 SCF Done:  E(RB3LYP) =  -711.882274641     A.U. after   13 cycles
 SCF Done:  E(RB3LYP) =  -711.882646781     A.U. after   12 cycles
 SCF Done:  E(RB3LYP) =  -711.884091075     A.U. after   14 cycles
 SCF Done:  E(RB3LYP) =  -711.886248184     A.U. after   12 cycles
 SCF Done:  E(RB3LYP) =  -711.886396895     A.U. after   11 cycles
 SCF Done:  E(RB3LYP) =  -711.886406361     A.U. after   11 cycles
 SCF Done:  E(RB3LYP) =  -711.886472568     A.U. after   11 cycles
 SCF Done:  E(RB3LYP) =  -711.886477886     A.U. after    9 cycles
 SCF Done:  E(RB3LYP) =  -711.886479350     A.U. after    9 cycles
 SCF Done:  E(RB3LYP) =  -711.886480364     A.U. after    7 cycles
 SCF Done:  E(RB3LYP) =  -711.886480396     A.U. after    7 cycles
 SCF Done:  E(RB3LYP) =  -711.886480419     A.U. after    7 cycles
 SCF Done:  E(RB3LYP) =  -711.886480435     A.U. after    7 cycles
 SCF Done:  E(RB3LYP) =  -711.886480440     A.U. after    7 cycles
 SCF Done:  E(RB3LYP) =  -711.886480441     A.U. after    6 cycles
 Optimization completed.
    -- Stationary point found.
 Normal termination of Gaussian 16 at Thu Dec 10 21:22:21 2020.

 --------------------------------------------------------------------
 #N Geom=AllCheck Guess=TCheck SCRF=Check GenChk RB3LYP/6-31G(d) Freq
 --------------------------------------------------------------------

 Structure from the checkpoint file:  "JID_6155.chk"
 ------------------------------
 CID_83254630_JID_6155_neutraal
 ------------------------------
 Charge =  0 Multiplicity = 1

 SCF Done:  E(RB3LYP) =  -711.886480441     A.U. after    1 cycles

  Exact polarizability: 170.777   8.577 149.502  -2.038   2.475 123.058
 Approx polarizability: 210.206  13.669 209.636  -0.332  14.071 192.812

                      1                      2                      3
                      A                      A                      A
 Frequencies --     17.6045                32.2934                56.0482
 Red. masses --      2.6477                 3.6851                 3.5341
 Frc consts  --      0.0005                 0.0023                 0.0065
 IR Inten    --      0.3824                 0.2366                 0.8882

                      4                      5                      6
                      A                      A                      A
 Frequencies --     61.8130                74.7419               105.4168
 Red. masses --      3.3628                 3.2751                 3.9280
 Frc consts  --      0.0076                 0.0108                 0.0257
 IR Inten    --      0.8396                 0.3011                 2.5227

                      7                      8                      9
                      A                      A                      A
 Frequencies --    133.7777               145.3864               157.2530
 Red. masses --      2.0964                 3.1108                 1.9831
 Frc consts  --      0.0221                 0.0387                 0.0289
 IR Inten    --      0.5698                 0.2142                 0.8935

                     10                     11                     12
                      A                      A                      A
 Frequencies --    178.6460               204.8025               216.4868
 Red. masses --      1.8518                 2.7051                 1.5352
 Frc consts  --      0.0348                 0.0669                 0.0424
 IR Inten    --      2.8149                 2.8774                 1.9693

                     13                     14                     15
                      A                      A                      A
 Frequencies --    249.6586               252.3528               265.2270
 Red. masses --      1.7054                 1.3696                 1.2304
 Frc consts  --      0.0626                 0.0514                 0.0510
 IR Inten    --      0.9147                 0.7421                 0.5602

                     16                     17                     18
                      A                      A                      A
 Frequencies --    266.4674               292.0125               302.3503
 Red. masses --      1.4310                 2.3405                 2.1397
 Frc consts  --      0.0599                 0.1176                 0.1152
 IR Inten    --      2.0520                 5.5388                 3.3845

                     19                     20                     21
                      A                      A                      A
 Frequencies --    337.8585               349.5211               396.7962
 Red. masses --      2.9081                 2.1313                 3.1529
 Frc consts  --      0.1956                 0.1534                 0.2925
 IR Inten    --      5.4322                 5.2273                 1.6122

                     22                     23                     24
                      A                      A                      A
 Frequencies --    433.9936               454.1694               479.9967
 Red. masses --      2.3961                 2.4469                 2.3741
 Frc consts  --      0.2659                 0.2974                 0.3223
 IR Inten    --      0.5410                 1.9227                 4.8415

                     25                     26                     27
                      A                      A                      A
 Frequencies --    488.4208               513.8357               554.3544
 Red. masses --      3.0088                 2.6323                 2.9324
 Frc consts  --      0.4229                 0.4095                 0.5309
 IR Inten    --      2.8571                 8.2375                 5.7711

                     28                     29                     30
                      A                      A                      A
 Frequencies --    597.7632               606.6473               703.0477
 Red. masses --      3.3343                 3.0195                 3.8504
 Frc consts  --      0.7020                 0.6547                 1.1213
 IR Inten    --      9.8735                31.0940                 4.4929

                     31                     32                     33
                      A                      A                      A
 Frequencies --    735.1743               755.4595               772.3324
 Red. masses --      2.5510                 2.7357                 1.3591
 Frc consts  --      0.8123                 0.9199                 0.4776
 IR Inten    --     20.2432                 9.4290                34.6345

                     34                     35                     36
                      A                      A                      A
 Frequencies --    807.4314               836.5672               884.6254
 Red. masses --      1.1174                 2.0437                 1.7431
 Frc consts  --      0.4292                 0.8427                 0.8037
 IR Inten    --      6.7983                28.4916                 1.4969

                     37                     38                     39
                      A                      A                      A
 Frequencies --    892.8465               904.0554               954.7400
 Red. masses --      2.4087                 1.9958                 2.2857
 Frc consts  --      1.1313                 0.9611                 1.2276
 IR Inten    --      4.9008                 1.7277                 7.3730

                     40                     41                     42
                      A                      A                      A
 Frequencies --    960.6147               983.8012              1008.4231
 Red. masses --      2.0757                 1.6285                 2.0697
 Frc consts  --      1.1285                 0.9287                 1.2401
 IR Inten    --     17.9592                 9.4718                 8.2305

                     43                     44                     45
                      A                      A                      A
 Frequencies --   1027.9136              1054.2145              1077.8841
 Red. masses --      2.0555                 2.3372                 1.9632
 Frc consts  --      1.2796                 1.5304                 1.3439
 IR Inten    --      7.3864                 1.9372                 8.0510

                     46                     47                     48
                      A                      A                      A
 Frequencies --   1082.0106              1093.7184              1101.9093
 Red. masses --      2.1510                 1.7803                 2.1954
 Frc consts  --      1.4837                 1.2548                 1.5706
 IR Inten    --      3.2934                 5.3819                 7.4796

                     49                     50                     51
                      A                      A                      A
 Frequencies --   1105.1078              1116.6816              1130.2402
 Red. masses --      2.1860                 1.7398                 1.9462
 Frc consts  --      1.5729                 1.2782                 1.4648
 IR Inten    --     18.3578                 7.8219                 4.6902

                     52                     53                     54
                      A                      A                      A
 Frequencies --   1148.1141              1155.1830              1161.7282
 Red. masses --      1.6998                 2.4019                 1.9647
 Frc consts  --      1.3202                 1.8885                 1.5622
 IR Inten    --      4.2590                 3.9967                22.4207

                     55                     56                     57
                      A                      A                      A
 Frequencies --   1172.5193              1220.9224              1234.5611
 Red. masses --      1.7086                 1.8780                 2.0914
 Frc consts  --      1.3840                 1.6494                 1.8781
 IR Inten    --      8.3992                 7.2587                37.7592

                     58                     59                     60
                      A                      A                      A
 Frequencies --   1258.2518              1279.1077              1284.1401
 Red. masses --      1.4325                 1.7113                 1.3870
 Frc consts  --      1.3363                 1.6496                 1.3476
 IR Inten    --      2.5915                18.9688                 7.8716

                     61                     62                     63
                      A                      A                      A
 Frequencies --   1310.6709              1323.5194              1348.3309
 Red. masses --      1.3425                 2.0415                 1.4536
 Frc consts  --      1.3588                 2.1069                 1.5570
 IR Inten    --      4.8458               100.9030                36.0757

                     64                     65                     66
                      A                      A                      A
 Frequencies --   1367.3243              1382.8861              1385.3717
 Red. masses --      1.1958                 1.3996                 1.4163
 Frc consts  --      1.3172                 1.5770                 1.6015
 IR Inten    --     13.3685                 3.7081                 4.4341

                     67                     68                     69
                      A                      A                      A
 Frequencies --   1402.9620              1404.6865              1414.0396
 Red. masses --      1.2834                 1.3258                 1.3451
 Frc consts  --      1.4884                 1.5413                 1.5846
 IR Inten    --      6.2130                13.6607                29.2446

                     70                     71                     72
                      A                      A                      A
 Frequencies --   1416.3344              1420.1498              1435.3271
 Red. masses --      1.3070                 1.3300                 1.2748
 Frc consts  --      1.5447                 1.5804                 1.5474
 IR Inten    --      4.1236                 3.1222                18.1751

                     73                     74                     75
                      A                      A                      A
 Frequencies --   1436.0315              1440.2594              1441.5400
 Red. masses --      1.3526                 1.4151                 1.2777
 Frc consts  --      1.6435                 1.7295                 1.5643
 IR Inten    --     22.1618                21.1269                 9.0897

                     76                     77                     78
                      A                      A                      A
 Frequencies --   1456.9001              1478.3462              1485.3661
 Red. masses --      1.5785                 2.3193                 1.1794
 Frc consts  --      1.9741                 2.9865                 1.5332
 IR Inten    --     86.5582               122.0615                 0.5108

                     79                     80                     81
                      A                      A                      A
 Frequencies --   1508.4337              1512.6009              1515.6784
 Red. masses --      1.0693                 1.0527                 1.0862
 Frc consts  --      1.4335                 1.4191                 1.4702
 IR Inten    --     16.0777                15.6323                 1.2311

                     82                     83                     84
                      A                      A                      A
 Frequencies --   1519.1841              1520.3882              1521.3515
 Red. masses --      1.0791                 1.0671                 1.0552
 Frc consts  --      1.4674                 1.4534                 1.4389
 IR Inten    --      2.4458                 5.2636                 6.8380

                     85                     86                     87
                      A                      A                      A
 Frequencies --   1526.3961              1528.5432              1531.6638
 Red. masses --      1.0498                 1.0790                 1.0664
 Frc consts  --      1.4411                 1.4854                 1.4740
 IR Inten    --      4.0206                 2.5424                 8.9125

                     88                     89                     90
                      A                      A                      A
 Frequencies --   1537.7550              1540.5679              1547.8896
 Red. masses --      1.0717                 1.0515                 1.0908
 Frc consts  --      1.4931                 1.4704                 1.5399
 IR Inten    --      1.3917                 6.0786                 2.2464

                     91                     92                     93
                      A                      A                      A
 Frequencies --   1549.4581              1791.5257              2911.7613
 Red. masses --      1.0643                11.1145                 1.0764
 Frc consts  --      1.5055                21.0178                 5.3768
 IR Inten    --     11.6277               274.0256                73.5082

                     94                     95                     96
                      A                      A                      A
 Frequencies --   2925.3226              2944.7762              2962.6678
 Red. masses --      1.0786                 1.0620                 1.0802
 Frc consts  --      5.4384                 5.4259                 5.5861
 IR Inten    --     77.0783               104.1353                43.5509

                     97                     98                     99
                      A                      A                      A
 Frequencies --   3025.6039              3039.7961              3046.7730
 Red. masses --      1.0671                 1.0392                 1.0707
 Frc consts  --      5.7553                 5.6574                 5.8559
 IR Inten    --     30.3532                31.0924                46.2022

                    100                    101                    102
                      A                      A                      A
 Frequencies --   3050.2819              3053.0379              3054.3880
 Red. masses --      1.0779                 1.0397                 1.0678
 Frc consts  --      5.9091                 5.7096                 5.8693
 IR Inten    --     13.7413                21.7339                25.4645

                    103                    104                    105
                      A                      A                      A
 Frequencies --   3058.2942              3066.3949              3070.2667
 Red. masses --      1.0399                 1.0710                 1.0709
 Frc consts  --      5.7309                 5.9330                 5.9476
 IR Inten    --      7.8653                44.8660                85.4425

                    106                    107                    108
                      A                      A                      A
 Frequencies --   3084.5690              3098.4498              3111.8764
 Red. masses --      1.0958                 1.0968                 1.1011
 Frc consts  --      6.1429                 6.2041                 6.2826
 IR Inten    --     29.4293                20.4682                24.5121

                    109                    110                    111
                      A                      A                      A
 Frequencies --   3115.2144              3115.6101              3122.1450
 Red. masses --      1.1025                 1.1005                 1.0970
 Frc consts  --      6.3036                 6.2939                 6.3004
 IR Inten    --     31.4695                47.3647                43.7688

                    112                    113                    114
                      A                      A                      A
 Frequencies --   3126.3002              3129.0095              3138.6137
 Red. masses --      1.1018                 1.0965                 1.0977
 Frc consts  --      6.3449                 6.3252                 6.3708
 IR Inten    --     25.6331                31.2497                19.6044

                    115                    116                    117
                      A                      A                      A
 Frequencies --   3143.5407              3146.0700              3536.7986
 Red. masses --      1.0959                 1.1039                 1.0755
 Frc consts  --      6.3808                 6.4373                 7.9263
 IR Inten    --      0.8554                18.2644                 1.0857

 - Thermochemistry -
 -------------------
 Temperature   298.150 Kelvin.  Pressure   1.00000 Atm.
 Atom     1 has atomic number  6 and mass  12.00000

 Molecular mass:   227.19976 amu.
 Principal axes and moments of inertia in atomic units:
                           1         2         3
     Eigenvalues --  2396.274225327.677986593.38125
           X            0.99992   0.01234   0.00184
           Y           -0.01230   0.99972  -0.01997
           Z           -0.00208   0.01995   0.99980
 This molecule is an asymmetric top.
 Rotational symmetry number  1.
 Warning -- assumption of classical behavior for rotation
           may cause significant error
 Rotational temperatures (Kelvin)      0.03615     0.01626     0.01314
 Rotational constants (GHZ):           0.75314     0.33875     0.27372
 Zero-point vibrational energy     982182.3 (Joules/Mol)
                                  234.74722 (Kcal/Mol)
 Warning -- explicit consideration of  29 degrees of freedom as
           vibrations may cause significant error
 Vibrational temperatures:     25.33    46.46    80.64    88.94   107.54
          (Kelvin)            151.67   192.48   209.18   226.25   257.03
                              294.67   311.48   359.20   363.08   381.60
                              383.39   420.14   435.01   486.10   502.88
                              570.90   624.42   653.45   690.61   702.73
                              739.29   797.59   860.05   872.83  1011.53
                             1057.75  1086.94  1111.21  1161.71  1203.63
                             1272.78  1284.61  1300.73  1373.66  1382.11
                             1415.47  1450.90  1478.94  1516.78  1550.83
                             1556.77  1573.62  1585.40  1590.00  1606.66
                             1626.16  1651.88  1662.05  1671.47  1686.99
                             1756.64  1776.26  1810.34  1840.35  1847.59
                             1885.76  1904.25  1939.95  1967.27  1989.66
                             1993.24  2018.55  2021.03  2034.49  2037.79
                             2043.28  2065.12  2066.13  2072.21  2074.05
                             2096.15  2127.01  2137.11  2170.30  2176.30
                             2180.72  2185.77  2187.50  2188.89  2196.14
                             2199.23  2203.72  2212.49  2216.53  2227.07
                             2229.32  2577.61  4189.38  4208.89  4236.88
                             4262.62  4353.17  4373.59  4383.63  4388.68
                             4392.64  4394.58  4400.20  4411.86  4417.43
                             4438.01  4457.98  4477.30  4482.10  4482.67
                             4492.07  4498.05  4501.95  4515.77  4522.85
                             4526.49  5088.66

 Zero-point correction=                           0.374093 (Hartree/Particle)
 Thermal correction to Energy=                    0.392442
 Thermal correction to Enthalpy=                  0.393387
 Thermal correction to Gibbs Free Energy=         0.326768
 Sum of electronic and zero-point Energies=           -711.512387
 Sum of electronic and thermal Energies=              -711.494038
 Sum of electronic and thermal Enthalpies=            -711.493094
 Sum of electronic and thermal Free Energies=         -711.559713

                     E (Thermal)             CV                S
                      KCal/Mol        Cal/Mol-Kelvin    Cal/Mol-Kelvin
 Total                  246.261             68.343            140.211
 Electronic               0.000              0.000              0.000
 Translational            0.889              2.981             42.164
 Rotational               0.889              2.981             32.798
 Vibrational            244.484             62.381             65.249
 Vibration     1          0.593              1.986              6.888
 Vibration     2          0.594              1.983              5.683
 Vibration     3          0.596              1.975              4.592
 Vibration     4          0.597              1.973              4.398
 Vibration     5          0.599              1.966              4.024
 Vibration     6          0.605              1.945              3.352
 Vibration     7          0.613              1.920              2.891
 Vibration     8          0.617              1.908              2.732
 Vibration     9          0.621              1.895              2.583
 Vibration    10          0.629              1.869              2.343
 Vibration    11          0.640              1.833              2.090
 Vibration    12          0.645              1.816              1.988
 Vibration    13          0.662              1.763              1.733
 Vibration    14          0.664              1.759              1.714
 Vibration    15          0.671              1.737              1.627
 Vibration    16          0.672              1.735              1.619
 Vibration    17          0.687              1.689              1.462
 Vibration    18          0.694              1.669              1.404
 Vibration    19          0.718              1.600              1.222
 Vibration    20          0.727              1.576              1.168
 Vibration    21          0.763              1.477              0.974
 Vibration    22          0.795              1.396              0.846
 Vibration    23          0.813              1.352              0.783
 Vibration    24          0.836              1.294              0.710
 Vibration    25          0.844              1.276              0.688
 Vibration    26          0.869              1.219              0.624
 Vibration    27          0.910              1.130              0.535
 Vibration    28          0.956              1.037              0.454
 Vibration    29          0.965              1.018              0.438

 Optimization completed.
    -- Stationary point found.
 Normal termination of Gaussian 16 at Thu Dec 10 21:37:47 2020.

 ----------------------------------------------------------------------
 # B3LYP/6-311++G(d,p) empiricaldispersion=gd3bj scf=xqc pop=npa geom=c
 heck
 ----------------------------------------------------------------------

 --------------------------------------
 CID_83254630_JID_6155_Energie_neutraal
 --------------------------------------
 Structure from the checkpoint file:  "JID_6155.chk"
 Charge =  0 Multiplicity = 1

 SCF Done:  E(RB3LYP) =  -712.089505277     A.U. after   15 cycles
 Normal termination of Gaussian 16 at Thu Dec 10 21:45:14 2020.

 ----------------------------------------------------------------------
 # B3LYP/6-311++G(d,p) empiricaldispersion=gd3bj scf=xqc pop=npa geom=c
 heck
 ----------------------------------------------------------------------

 ------------------------------------
 CID_83254630_JID_6155_Energie_kation
 ------------------------------------
 Structure from the checkpoint file:  "JID_6155.chk"
 Charge =  1 Multiplicity = 2

 SCF Done:  E(UB3LYP) =  -711.807253804     A.U. after   25 cycles
 Normal termination of Gaussian 16 at Thu Dec 10 22:01:08 2020.
 Gaussian 16:  ES64L-G16RevA.03 25-Dec-2016

 ----------------------------------------------------------------------
 # B3LYP/6-311++G(d,p) empiricaldispersion=gd3bj scf=xqc pop=npa geom=c
 heck
 ----------------------------------------------------------------------

 -----------------------------------
 CID_83254630_JID_6155_Energie_anion
 -----------------------------------
 Structure from the checkpoint file:  "JID_6155.chk"
 Charge = -1 Multiplicity = 2

                         Standard orientation:
 ---------------------------------------------------------------------
 Center     Atomic      Atomic             Coordinates (Angstroms)
 Number     Number       Type             X           Y           Z
 ---------------------------------------------------------------------
      1          6           0       -3.775921   -2.146430    0.469293
      2          6           0       -3.827291   -1.034808   -0.583689
      3          6           0       -3.315798    0.326104   -0.088480
      4          6           0       -1.871622    0.339938    0.422509
      5          6           0       -0.815369    0.039172   -0.637447
      6          8           0       -0.850471   -0.845987   -1.483905
      7          7           0        0.213143    0.913759   -0.438076
      8          6           0       -0.033077    1.839863    0.662782
      9          7           0       -1.474090    1.675941    0.885977
     10          6           0        0.308317    3.287265    0.329272
     11          6           0        1.438011    0.901296   -1.220899
     12          6           0        2.706428    0.535359   -0.431592
     13          7           0        3.025891   -0.886293   -0.421397
     14          6           0        4.321705   -1.119506    0.194957
     15          6           0        1.980882   -1.783584    0.079534
     16          6           0        1.560616   -1.610181    1.548043
     17          1           0       -2.743162   -2.416817    0.715215
     18          1           0       -4.269483   -3.053512    0.103396
     19          1           0       -4.277685   -1.846014    1.398552
     20          1           0       -3.244106   -1.338126   -1.457304
     21          1           0       -4.864528   -0.900643   -0.917453
     22          1           0       -3.394201    1.072630   -0.887445
     23          1           0       -3.955618    0.682045    0.732069
     24          1           0       -1.750211   -0.430822    1.204428
     25          1           0        0.565503    1.527084    1.539872
     26          1           0       -1.708965    1.826993    1.862320
     27          1           0       -0.004596    3.931473    1.157703
     28          1           0        1.384596    3.427835    0.182439
     29          1           0       -0.229617    3.596569   -0.571446
     30          1           0        1.282111    0.187678   -2.033051
     31          1           0        1.574136    1.892642   -1.667543
     32          1           0        3.552101    1.041237   -0.914079
     33          1           0        2.640528    0.969598    0.586643
     34          1           0        4.383248   -0.807188    1.255182
     35          1           0        4.563067   -2.186481    0.143430
     36          1           0        5.094511   -0.569549   -0.355151
     37          1           0        1.105699   -1.688140   -0.567439
     38          1           0        2.354489   -2.804981   -0.064809
     39          1           0        1.162555   -0.608342    1.740032
     40          1           0        0.772688   -2.330703    1.796099
     41          1           0        2.394820   -1.777352    2.238352
 ---------------------------------------------------------------------

 SCF Done:  E(UB3LYP) =  -712.079438024     A.U. after   30 cycles

 The electronic state is 2-A.
 Alpha  occ. eigenvalues --  -18.99425 -14.24677 -14.20710 -14.20621 -10.17188
 Alpha  occ. eigenvalues --  -10.14355 -10.11153 -10.11036 -10.09934 -10.09019
 Alpha  occ. eigenvalues --  -10.08785 -10.07297 -10.07017 -10.06703 -10.06688
 Alpha  occ. eigenvalues --  -10.05740  -0.94797  -0.87760  -0.82716  -0.79033
 Alpha  occ. eigenvalues --   -0.70328  -0.66878  -0.66344  -0.64477  -0.61273
 Alpha  occ. eigenvalues --   -0.58243  -0.56158  -0.55241  -0.51723  -0.49090
 Alpha  occ. eigenvalues --   -0.46735  -0.44664  -0.43584  -0.39556  -0.38883
 Alpha  occ. eigenvalues --   -0.38368  -0.37187  -0.35825  -0.35651  -0.34667
 Alpha  occ. eigenvalues --   -0.34005  -0.32798  -0.32565  -0.31792  -0.30357
 Alpha  occ. eigenvalues --   -0.29973  -0.29633  -0.28972  -0.28803  -0.28517
 Alpha  occ. eigenvalues --   -0.27988  -0.27554  -0.26935  -0.26354  -0.24874
 Alpha  occ. eigenvalues --   -0.24264  -0.24246  -0.24059  -0.23492  -0.16194
 Alpha  occ. eigenvalues --   -0.15742  -0.13799  -0.11624   0.04132
 Alpha virt. eigenvalues --    0.06230   0.06785   0.07132   0.08384   0.08498
 Alpha virt. eigenvalues --    0.08657   0.09358   0.09737   0.10246   0.11003
 Alpha virt. eigenvalues --    0.11098   0.11436   0.11584   0.12003   0.12252

  Beta  occ. eigenvalues --  -18.99423 -14.24670 -14.20670 -14.20620 -10.17183
  Beta  occ. eigenvalues --  -10.14332 -10.11146 -10.11026 -10.09909 -10.08994
  Beta  occ. eigenvalues --  -10.08779 -10.07289 -10.07015 -10.06673 -10.06672
  Beta  occ. eigenvalues --  -10.05712  -0.94787  -0.87736  -0.82703  -0.78991
  Beta  occ. eigenvalues --   -0.70306  -0.66848  -0.66309  -0.64447  -0.61232
  Beta  occ. eigenvalues --   -0.58198  -0.56107  -0.55191  -0.51675  -0.49055
  Beta  occ. eigenvalues --   -0.46691  -0.44619  -0.43529  -0.39524  -0.38848
  Beta  occ. eigenvalues --   -0.38334  -0.37150  -0.35808  -0.35610  -0.34627
  Beta  occ. eigenvalues --   -0.33974  -0.32769  -0.32533  -0.31765  -0.30324
  Beta  occ. eigenvalues --   -0.29938  -0.29605  -0.28941  -0.28765  -0.28483
  Beta  occ. eigenvalues --   -0.27955  -0.27529  -0.26904  -0.26325  -0.24849
  Beta  occ. eigenvalues --   -0.24246  -0.24231  -0.24040  -0.23474  -0.16169
  Beta  occ. eigenvalues --   -0.15711  -0.13731  -0.11609
  Beta virt. eigenvalues --    0.06346   0.06789   0.07366   0.07895   0.08538
  Beta virt. eigenvalues --    0.08840   0.09036   0.09622   0.10138   0.10436
  Beta virt. eigenvalues --    0.11113   0.11270   0.11709   0.11941   0.12138

 Mulliken charges and spin densities:
               1          2
     1  C   -0.052356  -0.586815
     2  C   -0.573772   0.393680
     3  C   -0.370626   0.107363
     4  C    0.660166  -0.475016
     5  C   -0.475546   0.023940
     6  O   -0.291997   0.005056
     7  N    0.180158  -0.003843
     8  C   -0.283271  -0.058027
     9  N   -0.254811   0.307899
    10  C    1.119729  -1.614915
    11  C   -0.577754  -0.081515
    12  C    0.274782  -0.520701
    13  N    0.097074   0.069259
    14  C    0.604574  -0.862196
    15  C   -1.122988   0.790069
    16  C    0.727544  -1.245642
    17  H    0.170504  -0.000143
    18  H    0.071793   0.049361
    19  H   -0.139617   0.271748
    20  H    0.148285   0.025531
    21  H    0.091244   0.052248
    22  H    0.137815   0.001561
    23  H   -0.049188   0.203227
    24  H    0.194537   0.063380
    25  H   -0.501915   0.710479
    26  H   -0.267912   0.535256
    27  H   -0.298484   0.454652
    28  H   -0.299815   0.442763
    29  H    0.078592   0.087358
    30  H    0.239609  -0.015538
    31  H    0.074380   0.104726
    32  H   -0.241754   0.396396
    33  H    0.452552  -0.296805
    34  H   -0.291075   0.408813
    35  H   -0.002275   0.132739
    36  H   -0.114705   0.240481
    37  H    0.119738   0.047369
    38  H    0.041424   0.117258
    39  H   -0.174633   0.334409
    40  H   -0.031876   0.155894
    41  H   -0.068131   0.228241
 Sum of Mulliken charges =  -1.00000   1.00000

 Dipole moment (field-independent basis, Debye):
    X=             -2.0999    Y=             -2.2709    Z=             -4.3757  Tot=              5.3585
 Quadrupole moment (field-independent basis, Debye-Ang):
   XX=           -168.8436   YY=           -148.9404   ZZ=           -147.9137
   XY=             -1.5837   XZ=              3.4867   YZ=             -8.7314

 Summary of Natural Population Analysis:

                                       Natural Population
                Natural  -----------------------------------------------
    Atom  No    Charge         Core      Valence    Rydberg      Total
 -----------------------------------------------------------------------
      C    1   -0.28824      0.99967     2.28362    0.00495     3.28824
      C    2   -0.19569      0.99963     2.18819    0.00786     3.19569
      C    3   -0.18629      0.99961     2.17644    0.01023     3.18629
      C    4   -0.04673      0.99955     2.03467    0.01251     3.04673
      C    5    0.35116      0.99960     1.62531    0.02393     2.64884
      O    6   -0.33099      0.99987     3.32637    0.00475     4.33099
      N    7   -0.25427      0.99961     2.74417    0.01050     3.75427
      C    8    0.09618      0.99962     1.88989    0.01431     2.90382
      N    9   -0.34221      0.99972     2.82955    0.01294     3.84221
      C   10   -0.29089      0.99964     2.28494    0.00632     3.29089
      C   11   -0.09534      0.99960     2.08425    0.01148     3.09534
      C   12   -0.09062      0.99960     2.07855    0.01247     3.09062
      N   13   -0.27764      0.99973     2.76610    0.01181     3.77764
      C   14   -0.17721      0.99965     2.16898    0.00858     3.17721
      C   15   -0.09238      0.99961     2.08151    0.01126     3.09238
      C   16   -0.29967      0.99966     2.29481    0.00521     3.29967
      H   17    0.09972      0.00000     0.39936    0.00093     0.40028
      H   18    0.09556      0.00000     0.40376    0.00068     0.40444
      H   19    0.09489      0.00000     0.40419    0.00092     0.40511
      H   20    0.10898      0.00000     0.38993    0.00109     0.39102
      H   21    0.09002      0.00000     0.40909    0.00089     0.40998
      H   22    0.10081      0.00000     0.39801    0.00118     0.39919
      H   23    0.09698      0.00000     0.40194    0.00108     0.40302
      H   24    0.09703      0.00000     0.40067    0.00230     0.40297
      H   25    0.08181      0.00000     0.41483    0.00336     0.41819
      H   26    0.18716      0.00000     0.30728    0.00556     0.31284
      H   27    0.10743      0.00000     0.39139    0.00117     0.39257
      H   28    0.10101      0.00000     0.39772    0.00127     0.39899
      H   29    0.10143      0.00000     0.39735    0.00122     0.39857
      H   30    0.11663      0.00000     0.38190    0.00147     0.38337
      H   31    0.09962      0.00000     0.39938    0.00100     0.40038
      H   32    0.09767      0.00000     0.40085    0.00147     0.40233
      H   33    0.08451      0.00000     0.41356    0.00193     0.41549
      H   34    0.08244      0.00000     0.41615    0.00142     0.41756
      H   35    0.09316      0.00000     0.40591    0.00093     0.40684
      H   36    0.09386      0.00000     0.40504    0.00109     0.40614
      H   37    0.10616      0.00000     0.39199    0.00185     0.39384
      H   38    0.08930      0.00000     0.40968    0.00103     0.41070
      H   39    0.09751      0.00000     0.40077    0.00172     0.40249
      H   40    0.10027      0.00000     0.39873    0.00100     0.39973
      H   41    0.09687      0.00000     0.40216    0.00097     0.40313
 =======================================================================
   * Total *    0.00000     15.99437    46.79899    0.20665    63.00000

 Normal termination of Gaussian 16 at Thu Dec 10 22:20:23 2020.
