 Gaussian 16, Revision A.03,

 -----------------------------------------------------------
 # opt freq B3LYP/6-31G(d) empiricaldispersion=gd3bj scf=xqc
 -----------------------------------------------------------

 ------------------------------
 CID_23541511_JID_6951_neutraal
 ------------------------------
 Symbolic Z-matrix:
 Charge =  0 Multiplicity = 1

 SCF Done:  E(RB3LYP) =  -715.655813304     A.U. after   14 cycles
 SCF Done:  E(RB3LYP) =  -715.660883326     A.U. after   12 cycles
 SCF Done:  E(RB3LYP) =  -715.661677388     A.U. after   11 cycles
 SCF Done:  E(RB3LYP) =  -715.662018206     A.U. after   11 cycles
 SCF Done:  E(RB3LYP) =  -715.662010231     A.U. after   11 cycles
 SCF Done:  E(RB3LYP) =  -715.662070350     A.U. after   10 cycles
 SCF Done:  E(RB3LYP) =  -715.662116204     A.U. after   10 cycles
 SCF Done:  E(RB3LYP) =  -715.662123797     A.U. after    9 cycles
 SCF Done:  E(RB3LYP) =  -715.662149396     A.U. after   11 cycles
 SCF Done:  E(RB3LYP) =  -715.662113226     A.U. after   13 cycles
 SCF Done:  E(RB3LYP) =  -715.662274431     A.U. after    7 cycles
 SCF Done:  E(RB3LYP) =  -715.662274626     A.U. after    7 cycles
 SCF Done:  E(RB3LYP) =  -715.662274669     A.U. after    6 cycles
 SCF Done:  E(RB3LYP) =  -715.662274690     A.U. after    6 cycles
 SCF Done:  E(RB3LYP) =  -715.662274693     A.U. after    6 cycles
 Optimization completed.
    -- Stationary point found.
 Normal termination of Gaussian 16 at Fri Dec 11 01:47:17 2020.

 --------------------------------------------------------------------
 #N Geom=AllCheck Guess=TCheck SCRF=Check GenChk RB3LYP/6-31G(d) Freq
 --------------------------------------------------------------------

 Structure from the checkpoint file:  "JID_6951.chk"
 ------------------------------
 CID_23541511_JID_6951_neutraal
 ------------------------------
 Charge =  0 Multiplicity = 1

 SCF Done:  E(RB3LYP) =  -715.662274693     A.U. after    1 cycles

  Exact polarizability: 159.213  -9.888 147.181  -4.428   2.171 128.164
 Approx polarizability: 202.102 -12.428 202.538  -9.582   7.845 207.496

                      1                      2                      3
                      A                      A                      A
 Frequencies --     16.6893                60.1990                77.2724
 Red. masses --      3.9815                 4.2361                 3.1469
 Frc consts  --      0.0007                 0.0090                 0.0111
 IR Inten    --      0.0204                 0.2511                 0.1374

                      4                      5                      6
                      A                      A                      A
 Frequencies --    111.9249               122.8159               152.2453
 Red. masses --      3.0830                 1.9708                 3.0934
 Frc consts  --      0.0228                 0.0175                 0.0422
 IR Inten    --      0.8579                 0.0993                 0.2699

                      7                      8                      9
                      A                      A                      A
 Frequencies --    159.1540               182.9895               192.7771
 Red. masses --      2.6966                 1.0709                 1.2672
 Frc consts  --      0.0402                 0.0211                 0.0277
 IR Inten    --      0.7331                 0.3982                 0.3943

                     10                     11                     12
                      A                      A                      A
 Frequencies --    219.5577               246.1350               251.5816
 Red. masses --      2.6586                 1.6943                 1.3417
 Frc consts  --      0.0755                 0.0605                 0.0500
 IR Inten    --      5.8974                 1.4877                 0.2526

                     13                     14                     15
                      A                      A                      A
 Frequencies --    274.2644               289.1374               299.5419
 Red. masses --      1.1338                 3.3847                 1.3346
 Frc consts  --      0.0503                 0.1667                 0.0706
 IR Inten    --      0.0128                 1.8259                 0.6769

                     16                     17                     18
                      A                      A                      A
 Frequencies --    317.1807               325.2216               341.9432
 Red. masses --      2.5975                 2.2097                 2.4004
 Frc consts  --      0.1540                 0.1377                 0.1654
 IR Inten    --      0.6461                 0.6210                 2.0025

                     19                     20                     21
                      A                      A                      A
 Frequencies --    349.2379               363.4706               401.8082
 Red. masses --      2.4336                 2.5553                 2.9225
 Frc consts  --      0.1749                 0.1989                 0.2780
 IR Inten    --      2.9817                 6.6005                 0.5077

                     22                     23                     24
                      A                      A                      A
 Frequencies --    419.4602               437.5461               455.6812
 Red. masses --      2.8418                 2.3278                 2.1340
 Frc consts  --      0.2946                 0.2626                 0.2611
 IR Inten    --      4.0444                 1.0184                 0.4474

                     25                     26                     27
                      A                      A                      A
 Frequencies --    472.1529               472.4324               535.4875
 Red. masses --      2.4474                 3.1151                 2.9439
 Frc consts  --      0.3215                 0.4096                 0.4974
 IR Inten    --      2.3419                 3.2398                 7.2226

                     28                     29                     30
                      A                      A                      A
 Frequencies --    551.6312               561.9497               580.6637
 Red. masses --      2.5106                 2.4133                 2.8841
 Frc consts  --      0.4501                 0.4490                 0.5729
 IR Inten    --      0.8877                 0.7165                11.6192

                     31                     32                     33
                      A                      A                      A
 Frequencies --    664.0313               698.5940               727.2581
 Red. masses --      3.4455                 3.2093                 1.5739
 Frc consts  --      0.8951                 0.9228                 0.4905
 IR Inten    --      6.7862                 4.2542                 2.3863

                     34                     35                     36
                      A                      A                      A
 Frequencies --    794.1634               849.9114               856.2025
 Red. masses --      3.1074                 1.3837                 2.7745
 Frc consts  --      1.1547                 0.5889                 1.1984
 IR Inten    --      1.3446                53.1972                 6.7728

                     37                     38                     39
                      A                      A                      A
 Frequencies --    885.8356               894.0095               926.9317
 Red. masses --      1.5593                 3.4545                 2.1779
 Frc consts  --      0.7209                 1.6268                 1.1025
 IR Inten    --      2.4365                15.9259                13.7896

                     40                     41                     42
                      A                      A                      A
 Frequencies --    934.2766               935.9874               953.4575
 Red. masses --      1.6162                 1.9251                 1.7472
 Frc consts  --      0.8312                 0.9937                 0.9359
 IR Inten    --      1.0950                 2.1984                 0.9309

                     43                     44                     45
                      A                      A                      A
 Frequencies --    962.9383               983.8301               987.1628
 Red. masses --      2.1905                 1.8047                 1.9613
 Frc consts  --      1.1967                 1.0292                 1.1261
 IR Inten    --     11.5413                17.4523                 4.3947

                     46                     47                     48
                      A                      A                      A
 Frequencies --    999.4408              1013.4656              1024.6960
 Red. masses --      1.2026                 2.2442                 1.5426
 Frc consts  --      0.7077                 1.3581                 0.9543
 IR Inten    --     16.4098               145.8694                14.5896

                     49                     50                     51
                      A                      A                      A
 Frequencies --   1032.7874              1059.9845              1112.9795
 Red. masses --      1.2720                 1.6399                 1.4909
 Frc consts  --      0.7994                 1.0856                 1.0881
 IR Inten    --      6.0080                 8.5781                 5.4792

                     52                     53                     54
                      A                      A                      A
 Frequencies --   1132.3091              1145.7556              1154.1428
 Red. masses --      3.8012                 2.3470                 2.8556
 Frc consts  --      2.8714                 1.8153                 2.2411
 IR Inten    --    235.7731                17.8903                48.6098

                     55                     56                     57
                      A                      A                      A
 Frequencies --   1162.9043              1184.4643              1189.4008
 Red. masses --      1.5378                 2.0150                 1.9750
 Frc consts  --      1.2253                 1.6656                 1.6462
 IR Inten    --      2.6686                31.4013                85.0484

                     58                     59                     60
                      A                      A                      A
 Frequencies --   1224.8431              1229.7971              1237.3545
 Red. masses --      2.7219                 2.9264                 2.0650
 Frc consts  --      2.4060                 2.6076                 1.8628
 IR Inten    --    129.8529                29.8508                 3.0002

                     61                     62                     63
                      A                      A                      A
 Frequencies --   1240.2670              1252.9480              1301.9176
 Red. masses --      2.9131                 2.4793                 1.8876
 Frc consts  --      2.6402                 2.2932                 1.8850
 IR Inten    --     60.5883                29.0483                29.3732

                     64                     65                     66
                      A                      A                      A
 Frequencies --   1307.0332              1341.1741              1350.8719
 Red. masses --      3.1717                 1.2975                 1.5774
 Frc consts  --      3.1924                 1.3751                 1.6960
 IR Inten    --     23.8017                 2.1337                 2.5013

                     67                     68                     69
                      A                      A                      A
 Frequencies --   1351.5577              1371.0739              1377.6668
 Red. masses --      1.1600                 1.2111                 1.4073
 Frc consts  --      1.2484                 1.3414                 1.5737
 IR Inten    --      7.0961                18.2350                30.4972

                     70                     71                     72
                      A                      A                      A
 Frequencies --   1419.3782              1420.5706              1424.4322
 Red. masses --      1.4477                 1.2430                 1.2640
 Frc consts  --      1.7183                 1.4780                 1.5110
 IR Inten    --      4.3826                 0.4262                17.3132

                     73                     74                     75
                      A                      A                      A
 Frequencies --   1440.0523              1441.7470              1445.5903
 Red. masses --      1.2225                 1.1572                 1.2181
 Frc consts  --      1.4937                 1.4173                 1.4997
 IR Inten    --     18.8184                 5.2250                12.8361

                     76                     77                     78
                      A                      A                      A
 Frequencies --   1445.9898              1480.3488              1490.1708
 Red. masses --      1.2709                 1.2067                 1.1449
 Frc consts  --      1.5656                 1.5580                 1.4979
 IR Inten    --      8.6887                 3.1647                 0.0377

                     79                     80                     81
                      A                      A                      A
 Frequencies --   1504.5189              1512.7486              1514.5101
 Red. masses --      1.0822                 1.0528                 1.0650
 Frc consts  --      1.4433                 1.4195                 1.4393
 IR Inten    --      0.8335                 0.0752                 3.3539

                     82                     83                     84
                      A                      A                      A
 Frequencies --   1518.7259              1522.9497              1527.9132
 Red. masses --      1.0569                 1.0537                 1.0834
 Frc consts  --      1.4362                 1.4400                 1.4902
 IR Inten    --      1.0165                 2.1736                 4.4718

                     85                     86                     87
                      A                      A                      A
 Frequencies --   1530.8982              1536.3407              1541.3924
 Red. masses --      1.0577                 1.0945                 1.0503
 Frc consts  --      1.4605                 1.5220                 1.4702
 IR Inten    --      0.8064                 4.7081                 5.0112

                     88                     89                     90
                      A                      A                      A
 Frequencies --   1544.9534              1548.0356              1553.6099
 Red. masses --      1.0590                 1.0579                 1.0468
 Frc consts  --      1.4893                 1.4937                 1.4886
 IR Inten    --      0.4546                 7.0031                 3.7674

                     91                     92                     93
                      A                      A                      A
 Frequencies --   1555.0680              1715.7908              2969.6996
 Red. masses --      1.0538                 4.2845                 1.0638
 Frc consts  --      1.5014                 7.4316                 5.5276
 IR Inten    --      5.0187               110.9080                66.7974

                     94                     95                     96
                      A                      A                      A
 Frequencies --   3046.6430              3055.2465              3055.6997
 Red. masses --      1.0568                 1.0358                 1.0364
 Frc consts  --      5.7794                 5.6965                 5.7016
 IR Inten    --      7.2588                 4.8529                21.3205

                     97                     98                     99
                      A                      A                      A
 Frequencies --   3060.8934              3063.5621              3068.2247
 Red. masses --      1.0389                 1.0416                 1.0562
 Frc consts  --      5.7346                 5.7596                 5.8584
 IR Inten    --     27.6420                18.6667                84.0526

                    100                    101                    102
                      A                      A                      A
 Frequencies --   3076.9169              3080.9873              3097.9995
 Red. masses --      1.0594                 1.0878                 1.1010
 Frc consts  --      5.9093                 6.0840                 6.2257
 IR Inten    --     11.8461                 6.4584                32.3945

                    103                    104                    105
                      A                      A                      A
 Frequencies --   3116.0979              3117.1064              3122.2988
 Red. masses --      1.0927                 1.1006                 1.1008
 Frc consts  --      6.2511                 6.3008                 6.3225
 IR Inten    --      3.0127                 6.2410                40.0576

                    106                    107                    108
                      A                      A                      A
 Frequencies --   3122.8316              3123.6065              3125.9275
 Red. masses --      1.0950                 1.1091                 1.1043
 Frc consts  --      6.2916                 6.3756                 6.3575
 IR Inten    --     43.5692                12.8241                21.6227

                    109                    110                    111
                      A                      A                      A
 Frequencies --   3129.3126              3136.2490              3139.1438
 Red. masses --      1.0869                 1.1036                 1.0988
 Frc consts  --      6.2710                 6.3956                 6.3794
 IR Inten    --     89.0171                13.3915                38.8009

                    112                    113                    114
                      A                      A                      A
 Frequencies --   3142.1186              3159.9512              3164.1830
 Red. masses --      1.1008                 1.0960                 1.1008
 Frc consts  --      6.4035                 6.4480                 6.4935
 IR Inten    --     26.8267                38.0444                24.6141

                    115                    116                    117
                      A                      A                      A
 Frequencies --   3192.0323              3208.1000              3286.7285
 Red. masses --      1.0635                 1.0900                 1.1160
 Frc consts  --      6.3845                 6.6094                 7.1032
 IR Inten    --      4.0703                16.1366                 8.3944

 - Thermochemistry -
 -------------------
 Temperature   298.150 Kelvin.  Pressure   1.00000 Atm.
 Atom     1 has atomic number  6 and mass  12.00000

 Molecular mass:   227.18853 amu.
 Principal axes and moments of inertia in atomic units:
                           1         2         3
     Eigenvalues --  2167.165305117.089915980.00787
           X            0.99996  -0.00888  -0.00235
           Y            0.00890   0.99993   0.00732
           Z            0.00228  -0.00735   0.99997
 This molecule is an asymmetric top.
 Rotational symmetry number  1.
 Warning -- assumption of classical behavior for rotation
           may cause significant error
 Rotational temperatures (Kelvin)      0.03997     0.01693     0.01448
 Rotational constants (GHZ):           0.83277     0.35269     0.30180
 Zero-point vibrational energy     978502.7 (Joules/Mol)
                                  233.86775 (Kcal/Mol)
 Warning -- explicit consideration of  30 degrees of freedom as
           vibrations may cause significant error
 Vibrational temperatures:     24.01    86.61   111.18   161.03   176.70
          (Kelvin)            219.05   228.99   263.28   277.36   315.89
                              354.13   361.97   394.61   416.00   430.97
                              456.35   467.92   491.98   502.48   522.95
                              578.11   603.51   629.53   655.62   679.32
                              679.72   770.45   793.67   808.52   835.45
                              955.39  1005.12  1046.36  1142.62  1222.83
                             1231.88  1274.52  1286.28  1333.65  1344.22
                             1346.68  1371.81  1385.45  1415.51  1420.31
                             1437.97  1458.15  1474.31  1485.95  1525.08
                             1601.33  1629.14  1648.49  1660.55  1673.16
                             1704.18  1711.28  1762.28  1769.40  1780.28
                             1784.47  1802.71  1873.17  1880.53  1929.65
                             1943.60  1944.59  1972.67  1982.16  2042.17
                             2043.88  2049.44  2071.91  2074.35  2079.88
                             2080.46  2129.89  2144.02  2164.67  2176.51
                             2179.04  2185.11  2191.18  2198.33  2202.62
                             2210.45  2217.72  2222.84  2227.28  2235.30
                             2237.40  2468.64  4272.74  4383.44  4395.82
                             4396.47  4403.94  4407.78  4414.49  4427.00
                             4432.85  4457.33  4483.37  4484.82  4492.29
                             4493.06  4494.17  4497.51  4502.38  4512.36
                             4516.53  4520.81  4546.46  4552.55  4592.62
                             4615.74  4728.87

 Zero-point correction=                           0.372692 (Hartree/Particle)
 Thermal correction to Energy=                    0.390434
 Thermal correction to Enthalpy=                  0.391378
 Thermal correction to Gibbs Free Energy=         0.328134
 Sum of electronic and zero-point Energies=           -715.289583
 Sum of electronic and thermal Energies=              -715.271841
 Sum of electronic and thermal Enthalpies=            -715.270896
 Sum of electronic and thermal Free Energies=         -715.334141

                     E (Thermal)             CV                S
                      KCal/Mol        Cal/Mol-Kelvin    Cal/Mol-Kelvin
 Total                  245.001             69.711            133.110
 Electronic               0.000              0.000              0.000
 Translational            0.889              2.981             42.164
 Rotational               0.889              2.981             32.561
 Vibrational            243.224             63.750             58.384
 Vibration     1          0.593              1.986              6.994
 Vibration     2          0.597              1.973              4.451
 Vibration     3          0.599              1.964              3.959
 Vibration     4          0.607              1.940              3.235
 Vibration     5          0.610              1.930              3.056
 Vibration     6          0.619              1.900              2.644
 Vibration     7          0.621              1.892              2.560
 Vibration     8          0.630              1.863              2.298
 Vibration     9          0.635              1.850              2.201
 Vibration    10          0.647              1.811              1.963
 Vibration    11          0.661              1.769              1.758
 Vibration    12          0.664              1.760              1.719
 Vibration    13          0.677              1.721              1.569
 Vibration    14          0.686              1.694              1.479
 Vibration    15          0.692              1.675              1.419
 Vibration    16          0.704              1.641              1.325
 Vibration    17          0.709              1.625              1.284
 Vibration    18          0.721              1.592              1.203
 Vibration    19          0.727              1.577              1.170
 Vibration    20          0.737              1.547              1.107
 Vibration    21          0.767              1.466              0.956
 Vibration    22          0.782              1.428              0.894
 Vibration    23          0.798              1.388              0.834
 Vibration    24          0.814              1.348              0.779
 Vibration    25          0.829              1.312              0.732
 Vibration    26          0.829              1.311              0.731
 Vibration    27          0.890              1.172              0.575
 Vibration    28          0.907              1.136              0.541
 Vibration    29          0.918              1.114              0.520
 Vibration    30          0.937              1.073              0.484

                           ! Non-Optimized Parameters !
 Normal termination of Gaussian 16 at Fri Dec 11 02:03:20 2020.

 ----------------------------------------------------------------------
 # B3LYP/6-311++G(d,p) empiricaldispersion=gd3bj scf=xqc pop=npa geom=c
 heck
 ----------------------------------------------------------------------

 --------------------------------------
 CID_23541511_JID_6951_Energie_neutraal
 --------------------------------------
 Structure from the checkpoint file:  "JID_6951.chk"
 Charge =  0 Multiplicity = 1

 SCF Done:  E(RB3LYP) =  -715.865432643     A.U. after   14 cycles
 Normal termination of Gaussian 16 at Fri Dec 11 02:10:27 2020.

 ----------------------------------------------------------------------
 # B3LYP/6-311++G(d,p) empiricaldispersion=gd3bj scf=xqc pop=npa geom=c
 heck
 ----------------------------------------------------------------------

 ------------------------------------
 CID_23541511_JID_6951_Energie_kation
 ------------------------------------
 Structure from the checkpoint file:  "JID_6951.chk"
 Charge =  1 Multiplicity = 2

 SCF Done:  E(UB3LYP) =  -715.589162845     A.U. after   22 cycles
 Normal termination of Gaussian 16 at Fri Dec 11 02:25:07 2020.
 Gaussian 16:  ES64L-G16RevA.03 25-Dec-2016

 ----------------------------------------------------------------------
 # B3LYP/6-311++G(d,p) empiricaldispersion=gd3bj scf=xqc pop=npa geom=c
 heck
 ----------------------------------------------------------------------

 -----------------------------------
 CID_23541511_JID_6951_Energie_anion
 -----------------------------------
 Structure from the checkpoint file:  "JID_6951.chk"
 Charge = -1 Multiplicity = 2

                         Standard orientation:
 ---------------------------------------------------------------------
 Center     Atomic      Atomic             Coordinates (Angstroms)
 Number     Number       Type             X           Y           Z
 ---------------------------------------------------------------------
      1          6           0        1.022413    2.610042   -0.824874
      2          6           0        1.042711    1.367973    0.092095
      3          6           0       -0.419549    0.888232    0.189581
      4          6           0       -0.542157   -0.482200    0.836636
      5          6           0        0.246868   -1.477899    0.004349
      6          6           0        1.742131   -1.100829   -0.093512
      7          7           0        1.863242    0.307521   -0.559122
      8          6           0        3.237522    0.714953   -0.822873
      9          6           0        2.344280   -2.031344   -1.168967
     10          6           0        2.459089   -1.407777    1.244191
     11          8           0       -1.915990   -0.853180    1.078782
     12          6           0       -2.660399   -1.405305    0.041378
     13          8           0       -2.918706   -0.537734   -1.057316
     14          6           0       -3.773898    0.507860   -0.847614
     15          6           0       -4.248950    0.967933    0.311618
     16          6           0        1.554131    1.818860    1.481838
     17          1           0        0.211959    3.277951   -0.514723
     18          1           0        1.950668    3.187573   -0.777597
     19          1           0        0.846736    2.308129   -1.862029
     20          1           0       -0.840598    0.834599   -0.818555
     21          1           0       -1.006179    1.620655    0.753478
     22          1           0       -0.133577   -0.449502    1.850666
     23          1           0       -0.159576   -1.499998   -1.013560
     24          1           0        0.164250   -2.487534    0.424255
     25          1           0        3.248972    1.675627   -1.339329
     26          1           0        3.871068    0.813983    0.075957
     27          1           0        3.720791   -0.002436   -1.487825
     28          1           0        2.019720   -3.061164   -0.985554
     29          1           0        2.000445   -1.728744   -2.162971
     30          1           0        3.438203   -2.033858   -1.160220
     31          1           0        1.987152   -0.925481    2.102438
     32          1           0        2.456845   -2.487927    1.430179
     33          1           0        3.503606   -1.082740    1.211358
     34          1           0       -2.165317   -2.266733   -0.415374
     35          1           0       -3.611657   -1.703120    0.495531
     36          1           0       -4.042299    0.952086   -1.802267
     37          1           0       -4.950500    1.794418    0.297305
     38          1           0       -3.949098    0.569359    1.272382
     39          1           0        2.613725    2.090764    1.442655
     40          1           0        0.999242    2.703997    1.812916
     41          1           0        1.435141    1.051773    2.249944
 ---------------------------------------------------------------------

 SCF Done:  E(UB3LYP) =  -715.849896378     A.U. after   33 cycles
 SCF Done:  E(UB3LYP) =  -715.849896378     a.u. after    1 cycles

 The electronic state is 2-A.
 Alpha  occ. eigenvalues --  -19.06848 -19.04331 -14.20237 -10.18278 -10.14124
 Alpha  occ. eigenvalues --  -10.12702 -10.11700 -10.11509 -10.08199 -10.07078
 Alpha  occ. eigenvalues --  -10.06951 -10.06321 -10.06049 -10.05954 -10.05950
 Alpha  occ. eigenvalues --  -10.05818  -0.99864  -0.93936  -0.82817  -0.71395
 Alpha  occ. eigenvalues --   -0.70982  -0.67651  -0.64525  -0.60817  -0.59611
 Alpha  occ. eigenvalues --   -0.58669  -0.58462  -0.57416  -0.52113  -0.48492
 Alpha  occ. eigenvalues --   -0.47134  -0.44562  -0.42781  -0.40275  -0.40174
 Alpha  occ. eigenvalues --   -0.38707  -0.37238  -0.37150  -0.35702  -0.34771
 Alpha  occ. eigenvalues --   -0.34682  -0.32713  -0.31453  -0.31103  -0.30671
 Alpha  occ. eigenvalues --   -0.30479  -0.29708  -0.29460  -0.28791  -0.28075
 Alpha  occ. eigenvalues --   -0.27508  -0.27414  -0.26528  -0.26199  -0.24996
 Alpha  occ. eigenvalues --   -0.24511  -0.23481  -0.23048  -0.22764  -0.20627
 Alpha  occ. eigenvalues --   -0.18123  -0.15471  -0.11241   0.04307
 Alpha virt. eigenvalues --    0.06082   0.06540   0.07341   0.07911   0.08245
 Alpha virt. eigenvalues --    0.08541   0.09155   0.09405   0.09544   0.10029
 Alpha virt. eigenvalues --    0.10676   0.11184   0.11643   0.11856   0.12150

  Beta  occ. eigenvalues --  -19.06848 -19.04330 -14.20232 -10.18264 -10.14116
  Beta  occ. eigenvalues --  -10.12697 -10.11697 -10.11507 -10.08172 -10.07064
  Beta  occ. eigenvalues --  -10.06938 -10.06316 -10.06030 -10.05929 -10.05923
  Beta  occ. eigenvalues --  -10.05786  -0.99859  -0.93929  -0.82807  -0.71379
  Beta  occ. eigenvalues --   -0.70967  -0.67632  -0.64498  -0.60788  -0.59566
  Beta  occ. eigenvalues --   -0.58619  -0.58431  -0.57370  -0.52088  -0.48452
  Beta  occ. eigenvalues --   -0.47101  -0.44542  -0.42747  -0.40250  -0.40145
  Beta  occ. eigenvalues --   -0.38684  -0.37211  -0.37127  -0.35678  -0.34749
  Beta  occ. eigenvalues --   -0.34651  -0.32691  -0.31427  -0.31073  -0.30647
  Beta  occ. eigenvalues --   -0.30458  -0.29677  -0.29431  -0.28773  -0.28054
  Beta  occ. eigenvalues --   -0.27485  -0.27386  -0.26503  -0.26177  -0.24975
  Beta  occ. eigenvalues --   -0.24491  -0.23459  -0.23028  -0.22745  -0.20608
  Beta  occ. eigenvalues --   -0.18113  -0.15458  -0.11222
  Beta virt. eigenvalues --    0.06219   0.06877   0.07301   0.07733   0.08460
  Beta virt. eigenvalues --    0.08617   0.08972   0.09401   0.09702   0.09778
  Beta virt. eigenvalues --    0.10516   0.11058   0.11536   0.11833   0.12177

 Mulliken charges and spin densities:
               1          2
     1  C    0.313060  -0.800104
     2  C   -1.155216   0.972651
     3  C   -0.989239   0.749398
     4  C    0.237770  -0.919499
     5  C   -1.187754   0.975840
     6  C   -0.967050   0.869939
     7  N    0.412019   0.042146
     8  C    1.065106  -1.322184
     9  C    0.515440  -1.015158
    10  C    1.204938  -1.750242
    11  O   -0.014157   0.042220
    12  C    0.358498  -0.615716
    13  O   -0.067989   0.022181
    14  C   -0.191084   0.159668
    15  C    0.251944  -0.634492
    16  C    0.609150  -1.165141
    17  H   -0.111446   0.259615
    18  H   -0.158461   0.310942
    19  H   -0.017165   0.187870
    20  H    0.258182  -0.064044
    21  H    0.234969  -0.060325
    22  H    0.147483   0.055292
    23  H    0.268136  -0.068972
    24  H    0.026625   0.165975
    25  H    0.118129   0.013175
    26  H   -0.384379   0.524207
    27  H    0.021763   0.105703
    28  H   -0.254288   0.399381
    29  H   -0.055375   0.225582
    30  H   -0.216872   0.376308
    31  H    0.000856   0.102341
    32  H   -0.318734   0.487736
    33  H   -0.098765   0.260986
    34  H   -0.123066   0.320184
    35  H   -0.049813   0.206645
    36  H   -0.320878   0.498945
    37  H   -0.158282   0.293447
    38  H    0.023095   0.129667
    39  H   -0.059871   0.217551
    40  H   -0.153240   0.317613
    41  H   -0.014042   0.122671
 Sum of Mulliken charges =  -1.00000   1.00000

 Dipole moment (field-independent basis, Debye):
    X=             -2.7611    Y=              0.1794    Z=              0.1385  Tot=              2.7704
 Quadrupole moment (field-independent basis, Debye-Ang):
   XX=           -181.7249   YY=           -157.9619   ZZ=           -140.5984
   XY=              6.6320   XZ=             -4.1353   YZ=              0.4550

 Summary of Natural Population Analysis:

                                       Natural Population
                Natural  -----------------------------------------------
    Atom  No    Charge         Core      Valence    Rydberg      Total
 -----------------------------------------------------------------------
      C    1   -0.28720      0.99962     2.28063    0.00696     3.28720
      C    2    0.07298      0.99956     1.91362    0.01384     2.92702
      C    3   -0.20550      0.99955     2.19522    0.01073     3.20550
      C    4    0.07029      0.99947     1.91664    0.01360     2.92971
      C    5   -0.20944      0.99955     2.19948    0.01040     3.20944
      C    6    0.07369      0.99956     1.91161    0.01513     2.92631
      N    7   -0.29631      0.99966     2.78264    0.01401     3.79631
      C    8   -0.18060      0.99962     2.17208    0.00890     3.18060
      C    9   -0.28726      0.99961     2.28047    0.00717     3.28726
      C   10   -0.29729      0.99960     2.29062    0.00707     3.29729
      O   11   -0.30071      0.99988     3.29170    0.00913     4.30071
      C   12    0.13921      0.99959     1.84328    0.01792     2.86079
      O   13   -0.28548      0.99987     3.27577    0.00983     4.28548
      C   14    0.08402      0.99948     1.90117    0.01534     2.91598
      C   15   -0.25702      0.99958     2.25066    0.00678     3.25702
      C   16   -0.29719      0.99961     2.29084    0.00674     3.29719
      H   17    0.10169      0.00000     0.39742    0.00089     0.39831
      H   18    0.09883      0.00000     0.40024    0.00093     0.40117
      H   19    0.10513      0.00000     0.39374    0.00113     0.39487
      H   20    0.10654      0.00000     0.39125    0.00221     0.39346
      H   21    0.10594      0.00000     0.39281    0.00125     0.39406
      H   22    0.09164      0.00000     0.40622    0.00214     0.40836
      H   23    0.10378      0.00000     0.39405    0.00217     0.39622
      H   24    0.10514      0.00000     0.39357    0.00129     0.39486
      H   25    0.09754      0.00000     0.40127    0.00119     0.40246
      H   26    0.08175      0.00000     0.41669    0.00156     0.41825
      H   27    0.09821      0.00000     0.40058    0.00122     0.40179
      H   28    0.10216      0.00000     0.39675    0.00109     0.39784
      H   29    0.10448      0.00000     0.39435    0.00117     0.39552
      H   30    0.10055      0.00000     0.39838    0.00108     0.39945
      H   31    0.09779      0.00000     0.40091    0.00131     0.40221
      H   32    0.10202      0.00000     0.39674    0.00124     0.39798
      H   33    0.10344      0.00000     0.39543    0.00113     0.39656
      H   34    0.08182      0.00000     0.41663    0.00154     0.41818
      H   35    0.08146      0.00000     0.41719    0.00135     0.41854
      H   36    0.08838      0.00000     0.41036    0.00126     0.41162
      H   37    0.10032      0.00000     0.39859    0.00109     0.39968
      H   38    0.10400      0.00000     0.39466    0.00134     0.39600
      H   39    0.10262      0.00000     0.39642    0.00096     0.39738
      H   40    0.10047      0.00000     0.39852    0.00101     0.39953
      H   41    0.09810      0.00000     0.40067    0.00123     0.40190
 =======================================================================
   * Total *    0.00000     15.99382    46.79987    0.20631    63.00000

 Normal termination of Gaussian 16 at Fri Dec 11 02:46:49 2020.
