 Gaussian 16, Revision A.03,

 -----------------------------------------------------------
 # opt freq B3LYP/6-31G(d) empiricaldispersion=gd3bj scf=xqc
 -----------------------------------------------------------

 -------------------------------
 CID_113039303_JID_9200_neutraal
 -------------------------------
 Symbolic Z-matrix:
 Charge =  0 Multiplicity = 1

 SCF Done:  E(RB3LYP) =  -839.803021222     A.U. after   15 cycles
 SCF Done:  E(RB3LYP) =  -839.813205596     A.U. after   12 cycles
 SCF Done:  E(RB3LYP) =  -839.814613739     A.U. after   12 cycles
 SCF Done:  E(RB3LYP) =  -839.815071779     A.U. after   12 cycles
 SCF Done:  E(RB3LYP) =  -839.815434790     A.U. after   12 cycles
 SCF Done:  E(RB3LYP) =  -839.815551672     A.U. after   12 cycles
 SCF Done:  E(RB3LYP) =  -839.815592351     A.U. after   11 cycles
 SCF Done:  E(RB3LYP) =  -839.815634136     A.U. after   10 cycles
 SCF Done:  E(RB3LYP) =  -839.815708096     A.U. after   12 cycles
 SCF Done:  E(RB3LYP) =  -839.815734583     A.U. after   10 cycles
 SCF Done:  E(RB3LYP) =  -839.815835220     A.U. after   10 cycles
 SCF Done:  E(RB3LYP) =  -839.815836767     A.U. after    9 cycles
 SCF Done:  E(RB3LYP) =  -839.815840343     A.U. after   10 cycles
 SCF Done:  E(RB3LYP) =  -839.815840732     A.U. after    8 cycles
 SCF Done:  E(RB3LYP) =  -839.815840961     A.U. after    8 cycles
 Optimization completed.
    -- Stationary point found.
 Normal termination of Gaussian 16 at Sat Dec 12 09:29:40 2020.

 --------------------------------------------------------------------
 #N Geom=AllCheck Guess=TCheck SCRF=Check GenChk RB3LYP/6-31G(d) Freq
 --------------------------------------------------------------------

 Structure from the checkpoint file:  "JID_9200.chk"
 -------------------------------
 CID_113039303_JID_9200_neutraal
 -------------------------------
 Charge =  0 Multiplicity = 1

 SCF Done:  E(RB3LYP) =  -839.815840961     A.U. after    1 cycles

  Exact polarizability: 236.389 -27.452 147.853  22.347  10.287 150.910
 Approx polarizability: 321.275 -52.054 214.859  49.023  22.920 262.025

                      1                      2                      3
                      A                      A                      A
 Frequencies --     14.7299                29.5300                35.6435
 Red. masses --      4.8995                 3.4064                 3.8294
 Frc consts  --      0.0006                 0.0018                 0.0029
 IR Inten    --      0.1805                 3.7203                 0.7998

                      4                      5                      6
                      A                      A                      A
 Frequencies --     45.6461                66.1225                82.0009
 Red. masses --      3.9754                 5.1988                 4.4750
 Frc consts  --      0.0049                 0.0134                 0.0177
 IR Inten    --      2.1396                 3.1745                 2.2795

                      7                      8                      9
                      A                      A                      A
 Frequencies --    106.7473               133.9885               156.2269
 Red. masses --      5.8761                 3.2033                 3.9433
 Frc consts  --      0.0395                 0.0339                 0.0567
 IR Inten    --      1.1956                 1.7158                 1.5628

                     10                     11                     12
                      A                      A                      A
 Frequencies --    183.5667               227.0112               248.9999
 Red. masses --      3.2244                 1.0702                 2.2258
 Frc consts  --      0.0640                 0.0325                 0.0813
 IR Inten    --      1.3454                 0.0598                 4.2610

                     13                     14                     15
                      A                      A                      A
 Frequencies --    272.4401               294.0725               319.9279
 Red. masses --      2.8507                 2.5690                 1.9496
 Frc consts  --      0.1247                 0.1309                 0.1176
 IR Inten    --      2.5658                 2.0728                 7.4816

                     16                     17                     18
                      A                      A                      A
 Frequencies --    354.8206               357.4216               376.2922
 Red. masses --      3.8124                 3.6360                 5.3361
 Frc consts  --      0.2828                 0.2737                 0.4452
 IR Inten    --     14.7167                 3.8108                 5.8701

                     19                     20                     21
                      A                      A                      A
 Frequencies --    414.6011               428.4615               433.7664
 Red. masses --      2.8106                 6.3886                 2.1169
 Frc consts  --      0.2847                 0.6910                 0.2347
 IR Inten    --      3.4189                 1.0978                 3.1335

                     22                     23                     24
                      A                      A                      A
 Frequencies --    468.7583               515.1313               521.9634
 Red. masses --      2.2928                 3.2964                 2.4612
 Frc consts  --      0.2968                 0.5154                 0.3951
 IR Inten    --     17.1332                11.5649                22.5316

                     25                     26                     27
                      A                      A                      A
 Frequencies --    531.6069               543.4343               559.2308
 Red. masses --      2.7815                 3.0074                 2.1345
 Frc consts  --      0.4631                 0.5233                 0.3933
 IR Inten    --     88.5695                 8.3473                28.1058

                     28                     29                     30
                      A                      A                      A
 Frequencies --    581.0132               624.4803               654.2299
 Red. masses --      2.9886                 2.0720                 4.2410
 Frc consts  --      0.5944                 0.4761                 1.0695
 IR Inten    --     30.6109                 1.1769                 3.2640

                     31                     32                     33
                      A                      A                      A
 Frequencies --    681.7610               708.7992               755.0466
 Red. masses --      2.8970                 1.6816                 5.4637
 Frc consts  --      0.7934                 0.4977                 1.8352
 IR Inten    --     11.0631                95.2436                 0.8426

                     34                     35                     36
                      A                      A                      A
 Frequencies --    769.5269               786.9302               816.6903
 Red. masses --      2.4538                 3.6703                 1.6239
 Frc consts  --      0.8561                 1.3391                 0.6382
 IR Inten    --      5.9413                 2.3193                 1.9681

                     37                     38                     39
                      A                      A                      A
 Frequencies --    832.7569               843.2446               851.8061
 Red. masses --      1.4774                 1.6746                 2.9617
 Frc consts  --      0.6036                 0.7016                 1.2661
 IR Inten    --     11.7495                29.3039                 2.8793

                     40                     41                     42
                      A                      A                      A
 Frequencies --    870.9682               915.8823               933.2778
 Red. masses --      2.4226                 2.5322                 3.9187
 Frc consts  --      1.0828                 1.2515                 2.0110
 IR Inten    --      3.6119                 5.8735                 9.1483

                     43                     44                     45
                      A                      A                      A
 Frequencies --    940.3305               949.1990               959.1571
 Red. masses --      2.1529                 1.5294                 2.1086
 Frc consts  --      1.1216                 0.8119                 1.1429
 IR Inten    --      4.0067                11.3578                 8.9016

                     46                     47                     48
                      A                      A                      A
 Frequencies --    971.7312               999.4783              1033.5245
 Red. masses --      1.2839                 2.3537                 2.0783
 Frc consts  --      0.7143                 1.3853                 1.3080
 IR Inten    --      0.0223                 4.7087                58.2001

                     49                     50                     51
                      A                      A                      A
 Frequencies --   1046.5113              1058.9277              1066.7298
 Red. masses --      2.1268                 1.9337                 1.7492
 Frc consts  --      1.3723                 1.2775                 1.1727
 IR Inten    --      2.6933                 4.7058                 6.6632

                     52                     53                     54
                      A                      A                      A
 Frequencies --   1078.2610              1099.7642              1112.9939
 Red. masses --      1.9958                 1.9129                 1.9193
 Frc consts  --      1.3671                 1.3631                 1.4008
 IR Inten    --      0.4629                 9.3961                 2.5798

                     55                     56                     57
                      A                      A                      A
 Frequencies --   1123.5290              1158.7983              1168.2085
 Red. masses --      2.5652                 2.2194                 1.2749
 Frc consts  --      1.9078                 1.7559                 1.0251
 IR Inten    --     17.5886                 4.6101                 5.5878

                     58                     59                     60
                      A                      A                      A
 Frequencies --   1173.1285              1210.5474              1228.2456
 Red. masses --      1.3082                 1.4214                 2.3782
 Frc consts  --      1.0607                 1.2273                 2.1138
 IR Inten    --      6.6323                 1.6997                15.5558

                     61                     62                     63
                      A                      A                      A
 Frequencies --   1247.1253              1272.3515              1285.9405
 Red. masses --      1.8203                 1.6055                 1.2881
 Frc consts  --      1.6681                 1.5314                 1.2550
 IR Inten    --      3.8608                 9.8471                 3.4517

                     64                     65                     66
                      A                      A                      A
 Frequencies --   1302.1568              1312.3615              1337.2000
 Red. masses --      1.7481                 1.1734                 2.1568
 Frc consts  --      1.7464                 1.1907                 2.2723
 IR Inten    --     73.7196                 3.0842               282.6720

                     67                     68                     69
                      A                      A                      A
 Frequencies --   1350.1796              1351.2746              1380.8484
 Red. masses --      1.4699                 1.8172                 1.5246
 Frc consts  --      1.5787                 1.9549                 1.7128
 IR Inten    --     66.2558               134.9961                 2.7362

                     70                     71                     72
                      A                      A                      A
 Frequencies --   1391.9872              1397.8193              1398.1868
 Red. masses --      1.7086                 1.6162                 1.8307
 Frc consts  --      1.9506                 1.8606                 2.1086
 IR Inten    --      4.3882                 3.9524                 7.7768

                     73                     74                     75
                      A                      A                      A
 Frequencies --   1407.6406              1414.9370              1424.3859
 Red. masses --      1.5299                 1.5906                 1.4139
 Frc consts  --      1.7860                 1.8762                 1.6901
 IR Inten    --      8.3847                40.1572                88.4673

                     76                     77                     78
                      A                      A                      A
 Frequencies --   1432.1194              1464.9594              1502.0301
 Red. masses --      1.7009                 2.8579                 1.0816
 Frc consts  --      2.0554                 3.6136                 1.4377
 IR Inten    --      4.9087                39.9563                 1.0094

                     79                     80                     81
                      A                      A                      A
 Frequencies --   1505.1809              1505.7829              1510.1678
 Red. masses --      1.0654                 1.1004                 1.2961
 Frc consts  --      1.4221                 1.4701                 1.7415
 IR Inten    --     37.7937                 2.9650                91.9173

                     82                     83                     84
                      A                      A                      A
 Frequencies --   1512.5407              1518.1548              1520.1171
 Red. masses --      1.0876                 1.0829                 1.0928
 Frc consts  --      1.4661                 1.4705                 1.4878
 IR Inten    --     11.1938                 6.3448                 2.3929

                     85                     86                     87
                      A                      A                      A
 Frequencies --   1525.5328              1531.5352              1546.5588
 Red. masses --      1.6772                 1.1075                 1.9776
 Frc consts  --      2.2997                 1.5306                 2.7869
 IR Inten    --    226.5089                 4.7244               211.0152

                     88                     89                     90
                      A                      A                      A
 Frequencies --   1618.4549              1664.2492              1746.0959
 Red. masses --      3.7653                 6.3513                 6.3836
 Frc consts  --      5.8109                10.3646                11.4671
 IR Inten    --    135.7908                40.1383                 1.5834

                     91                     92                     93
                      A                      A                      A
 Frequencies --   1796.6973              3005.5069              3005.6838
 Red. masses --      8.2739                 1.0687                 1.0682
 Frc consts  --     15.7366                 5.6879                 5.6860
 IR Inten    --    516.3051                65.2055                 0.7417

                     94                     95                     96
                      A                      A                      A
 Frequencies --   3018.5002              3030.0769              3034.9479
 Red. masses --      1.0693                 1.0708                 1.0715
 Frc consts  --      5.7402                 5.7926                 5.8147
 IR Inten    --     28.0200                15.0227                11.6148

                     97                     98                     99
                      A                      A                      A
 Frequencies --   3048.3834              3050.1856              3063.1402
 Red. masses --      1.0893                 1.0813                 1.0397
 Frc consts  --      5.9638                 5.9271                 5.7478
 IR Inten    --      9.2702                92.3251                 4.8792

                    100                    101                    102
                      A                      A                      A
 Frequencies --   3064.4696              3083.8861              3086.6320
 Red. masses --      1.0884                 1.0957                 1.0932
 Frc consts  --      6.0219                 6.1396                 6.1365
 IR Inten    --      1.4293                60.8146                 4.9372

                    103                    104                    105
                      A                      A                      A
 Frequencies --   3087.0836              3129.8639              3146.9141
 Red. masses --      1.0833                 1.0989                 1.0879
 Frc consts  --      6.0826                 6.3424                 6.3476
 IR Inten    --    114.3058                 9.1905                36.3486

                    106                    107                    108
                      A                      A                      A
 Frequencies --   3153.4689              3176.8394              3195.4166
 Red. masses --      1.0977                 1.1015                 1.0910
 Frc consts  --      6.4317                 6.5499                 6.5636
 IR Inten    --      4.0194                 9.8684                10.3531

                    109                    110                    111
                      A                      A                      A
 Frequencies --   3248.4995              3569.7186              3591.8742
 Red. masses --      1.0931                 1.0749                 1.0751
 Frc consts  --      6.7966                 8.0705                 8.1725
 IR Inten    --      6.0893                40.2329                30.9446

 - Thermochemistry -
 -------------------
 Temperature   298.150 Kelvin.  Pressure   1.00000 Atm.
 Atom     1 has atomic number  6 and mass  12.00000

 Molecular mass:   260.16371 amu.
 Principal axes and moments of inertia in atomic units:
                           1         2         3
     Eigenvalues --  2539.29357********************
           X            0.99998   0.00187  -0.00524
           Y           -0.00175   0.99974   0.02274
           Z            0.00528  -0.02273   0.99973
 This molecule is an asymmetric top.
 Rotational symmetry number  1.
 Warning -- assumption of classical behavior for rotation
           may cause significant error
 Rotational temperatures (Kelvin)      0.03411     0.00719     0.00666
 Rotational constants (GHZ):           0.71073     0.14975     0.13887
 Zero-point vibrational energy     877420.7 (Joules/Mol)
                                  209.70858 (Kcal/Mol)
 Warning -- explicit consideration of  28 degrees of freedom as
           vibrations may cause significant error
 Vibrational temperatures:     21.19    42.49    51.28    65.67    95.14
          (Kelvin)            117.98   153.59   192.78   224.78   264.11
                              326.62   358.26   391.98   423.10   460.30
                              510.51   514.25   541.40   596.52   616.46
                              624.09   674.44   741.16   750.99   764.86
                              781.88   804.61   835.95   898.49   941.29
                              980.90  1019.80  1086.34  1107.18  1132.22
                             1175.04  1198.15  1213.24  1225.56  1253.13
                             1317.75  1342.78  1352.93  1365.69  1380.01
                             1398.10  1438.03  1487.01  1505.70  1523.56
                             1534.79  1551.38  1582.32  1601.35  1616.51
                             1667.25  1680.79  1687.87  1741.71  1767.17
                             1794.34  1830.63  1850.18  1873.51  1888.20
                             1923.93  1942.61  1944.18  1986.73  2002.76
                             2011.15  2011.68  2025.28  2035.78  2049.37
                             2060.50  2107.75  2161.09  2165.62  2166.49
                             2172.79  2176.21  2184.29  2187.11  2194.90
                             2203.54  2225.15  2328.60  2394.48  2512.24
                             2585.05  4324.25  4324.51  4342.95  4359.60
                             4366.61  4385.94  4388.54  4407.18  4409.09
                             4437.02  4440.98  4441.62  4503.18  4527.71
                             4537.14  4570.76  4597.49  4673.87  5136.03
                             5167.91

 Zero-point correction=                           0.334192 (Hartree/Particle)
 Thermal correction to Energy=                    0.352243
 Thermal correction to Enthalpy=                  0.353187
 Thermal correction to Gibbs Free Energy=         0.285340
 Sum of electronic and zero-point Energies=           -839.481649
 Sum of electronic and thermal Energies=              -839.463598
 Sum of electronic and thermal Enthalpies=            -839.462654
 Sum of electronic and thermal Free Energies=         -839.530501

                     E (Thermal)             CV                S
                      KCal/Mol        Cal/Mol-Kelvin    Cal/Mol-Kelvin
 Total                  221.036             69.238            142.797
 Electronic               0.000              0.000              0.000
 Translational            0.889              2.981             42.568
 Rotational               0.889              2.981             34.341
 Vibrational            219.258             63.276             65.888
 Vibration     1          0.593              1.986              7.242
 Vibration     2          0.593              1.984              5.861
 Vibration     3          0.594              1.982              5.488
 Vibration     4          0.595              1.979              4.998
 Vibration     5          0.598              1.970              4.266
 Vibration     6          0.600              1.961              3.842
 Vibration     7          0.606              1.944              3.327
 Vibration     8          0.613              1.919              2.888
 Vibration     9          0.620              1.896              2.595
 Vibration    10          0.631              1.862              2.292
 Vibration    11          0.651              1.800              1.902
 Vibration    12          0.662              1.764              1.738
 Vibration    13          0.675              1.724              1.581
 Vibration    14          0.689              1.685              1.450
 Vibration    15          0.706              1.635              1.310
 Vibration    16          0.731              1.565              1.145
 Vibration    17          0.733              1.560              1.133
 Vibration    18          0.747              1.521              1.054
 Vibration    19          0.778              1.439              0.911
 Vibration    20          0.790              1.408              0.864
 Vibration    21          0.795              1.397              0.846
 Vibration    22          0.826              1.319              0.741
 Vibration    23          0.870              1.216              0.621
 Vibration    24          0.877              1.201              0.605
 Vibration    25          0.887              1.180              0.584
 Vibration    26          0.899              1.154              0.558
 Vibration    27          0.915              1.120              0.525
 Vibration    28          0.938              1.072              0.483

                           ! Non-Optimized Parameters !
 Normal termination of Gaussian 16 at Sat Dec 12 09:46:32 2020.

 ----------------------------------------------------------------------
 # B3LYP/6-311++G(d,p) empiricaldispersion=gd3bj scf=xqc pop=npa geom=c
 heck
 ----------------------------------------------------------------------

 ---------------------------------------
 CID_113039303_JID_9200_Energie_neutraal
 ---------------------------------------
 Structure from the checkpoint file:  "JID_9200.chk"
 Charge =  0 Multiplicity = 1

 SCF Done:  E(RB3LYP) =  -840.048356010     A.U. after   16 cycles
 Normal termination of Gaussian 16 at Sat Dec 12 09:54:09 2020.

 ----------------------------------------------------------------------
 # B3LYP/6-311++G(d,p) empiricaldispersion=gd3bj scf=xqc pop=npa geom=c
 heck
 ----------------------------------------------------------------------

 -------------------------------------
 CID_113039303_JID_9200_Energie_kation
 -------------------------------------
 Structure from the checkpoint file:  "JID_9200.chk"
 Charge =  1 Multiplicity = 2

 SCF Done:  E(UB3LYP) =  -839.766754891     A.U. after   28 cycles
 Normal termination of Gaussian 16 at Sat Dec 12 10:11:46 2020.
 Gaussian 16:  ES64L-G16RevA.03 25-Dec-2016

 ----------------------------------------------------------------------
 # B3LYP/6-311++G(d,p) empiricaldispersion=gd3bj scf=xqc pop=npa geom=c
 heck
 ----------------------------------------------------------------------

 ------------------------------------
 CID_113039303_JID_9200_Energie_anion
 ------------------------------------
 Structure from the checkpoint file:  "JID_9200.chk"
 Charge = -1 Multiplicity = 2

                         Standard orientation:
 ---------------------------------------------------------------------
 Center     Atomic      Atomic             Coordinates (Angstroms)
 Number     Number       Type             X           Y           Z
 ---------------------------------------------------------------------
      1          6           0       -4.465571    2.121558    0.611831
      2          6           0       -4.967254    1.001043   -0.278537
      3          8           0       -6.029795    1.077462   -0.875084
      4          7           0       -4.192559   -0.140976   -0.408541
      5          6           0       -2.894397   -0.450688    0.025589
      6          7           0       -2.216049   -1.222749   -0.822692
      7          7           0       -0.982221   -1.631812   -0.537303
      8          6           0       -0.401064   -1.266813    0.614768
      9          6           0       -1.083967   -0.473896    1.567502
     10          6           0       -2.361536   -0.067787    1.274668
     11          7           0        0.865902   -1.741580    0.877175
     12          6           0        1.677612   -2.319370   -0.191607
     13          6           0        2.223660   -1.276486   -1.173784
     14          6           0        3.119403   -0.207433   -0.583052
     15          6           0        3.793606   -0.343736    0.567866
     16          6           0        4.676813    0.721633    1.170164
     17          6           0        4.445209    2.095824    0.530133
     18          6           0        4.379559    1.966087   -0.994096
     19          6           0        3.214200    1.060058   -1.406486
     20          1           0       -5.026849    3.019340    0.350466
     21          1           0       -3.393837    2.305409    0.491928
     22          1           0       -4.658030    1.893810    1.666586
     23          1           0       -4.516686   -0.749074   -1.154198
     24          1           0       -0.617231   -0.226887    2.516873
     25          1           0       -2.943500    0.498294    1.990106
     26          1           0        1.392718   -1.166206    1.521961
     27          1           0        2.488639   -2.882131    0.281103
     28          1           0        1.051571   -3.031332   -0.730959
     29          1           0        2.763359   -1.795392   -1.980973
     30          1           0        1.366529   -0.793729   -1.660871
     31          1           0        3.737097   -1.282063    1.119312
     32          1           0        5.732598    0.429747    1.053770
     33          1           0        4.506703    0.774208    2.254394
     34          1           0        5.236122    2.792863    0.830468
     35          1           0        3.496396    2.512016    0.896391
     36          1           0        4.277901    2.949746   -1.467117
     37          1           0        5.321686    1.533802   -1.358086
     38          1           0        2.261058    1.605973   -1.321747
     39          1           0        3.298960    0.791764   -2.468972
 ---------------------------------------------------------------------

 SCF Done:  E(UB3LYP) =  -840.055070877     A.U. after   33 cycles
 SCF Done:  E(UB3LYP) =  -840.055070877     a.u. after    1 cycles

 The electronic state is 2-A.
 Alpha  occ. eigenvalues --  -18.98893 -14.23427 -14.20748 -14.18472 -14.18147
 Alpha  occ. eigenvalues --  -10.17672 -10.11049 -10.10982 -10.09517 -10.08226
 Alpha  occ. eigenvalues --  -10.08111 -10.08006 -10.07958 -10.07906 -10.07633
 Alpha  occ. eigenvalues --  -10.07029 -10.07014 -10.05082 -10.04275  -0.94213
 Alpha  occ. eigenvalues --   -0.88215  -0.83048  -0.80497  -0.74944  -0.69064
 Alpha  occ. eigenvalues --   -0.67562  -0.66559  -0.65343  -0.64392  -0.61669
 Alpha  occ. eigenvalues --   -0.55037  -0.53660  -0.53139  -0.51369  -0.49001
 Alpha  occ. eigenvalues --   -0.46493  -0.43125  -0.41925  -0.41435  -0.39429
 Alpha  occ. eigenvalues --   -0.38566  -0.37106  -0.35931  -0.35467  -0.35371
 Alpha  occ. eigenvalues --   -0.34199  -0.33707  -0.32151  -0.31832  -0.31670
 Alpha  occ. eigenvalues --   -0.30603  -0.30266  -0.29271  -0.28878  -0.28511
 Alpha  occ. eigenvalues --   -0.27983  -0.27242  -0.27016  -0.25503  -0.24207
 Alpha  occ. eigenvalues --   -0.22950  -0.22431  -0.21163  -0.19663  -0.17999
 Alpha  occ. eigenvalues --   -0.16148  -0.15617  -0.14689  -0.09708  -0.09063
 Alpha  occ. eigenvalues --    0.03829
 Alpha virt. eigenvalues --    0.05485   0.07105   0.07271   0.07452   0.08190
 Alpha virt. eigenvalues --    0.08996   0.09362   0.09570   0.09799   0.09847
 Alpha virt. eigenvalues --    0.10670   0.11017   0.11667   0.11896   0.12148

  Beta  occ. eigenvalues --  -18.98887 -14.23436 -14.20753 -14.18012 -14.17814
  Beta  occ. eigenvalues --  -10.17662 -10.11122 -10.11060 -10.09517 -10.08222
  Beta  occ. eigenvalues --  -10.08110 -10.07989 -10.07953 -10.07897 -10.07615
  Beta  occ. eigenvalues --  -10.07026 -10.07012 -10.04874 -10.03982  -0.94200
  Beta  occ. eigenvalues --   -0.87690  -0.83020  -0.80331  -0.74924  -0.68929
  Beta  occ. eigenvalues --   -0.67067  -0.66314  -0.65317  -0.64318  -0.61574
  Beta  occ. eigenvalues --   -0.54920  -0.53420  -0.53000  -0.51118  -0.48925
  Beta  occ. eigenvalues --   -0.46391  -0.43006  -0.41840  -0.41345  -0.39335
  Beta  occ. eigenvalues --   -0.38519  -0.37042  -0.35859  -0.35387  -0.35293
  Beta  occ. eigenvalues --   -0.34155  -0.33671  -0.32090  -0.31789  -0.31597
  Beta  occ. eigenvalues --   -0.30544  -0.29640  -0.29232  -0.28796  -0.28249
  Beta  occ. eigenvalues --   -0.27904  -0.27117  -0.26777  -0.25479  -0.24180
  Beta  occ. eigenvalues --   -0.22925  -0.22254  -0.21056  -0.19226  -0.16544
  Beta  occ. eigenvalues --   -0.16086  -0.14733  -0.14559  -0.09153  -0.08210
  Beta virt. eigenvalues --    0.05802   0.07219   0.07293   0.07491   0.08325
  Beta virt. eigenvalues --    0.09089   0.09211   0.09554   0.09729   0.09914
  Beta virt. eigenvalues --    0.10096   0.10674   0.11039   0.11725   0.11851

 Mulliken charges and spin densities:
               1          2
     1  C   -0.375242  -0.046516
     2  C    0.082369   0.003331
     3  O   -0.364143   0.001592
     4  N   -0.122941   0.006448
     5  C   -0.184419  -0.185872
     6  N   -0.036061   0.246999
     7  N   -0.363154   0.110389
     8  C   -0.248115  -0.170756
     9  C   -0.133589   0.261075
    10  C   -0.032915   0.191077
    11  N    0.082674   0.021915
    12  C   -0.283479  -0.094415
    13  C   -0.173558  -0.072812
    14  C    1.159192  -0.064205
    15  C   -1.159624   0.523887
    16  C    0.441726  -1.184930
    17  C   -0.221972  -0.027515
    18  C   -0.358560   0.073642
    19  C   -0.346266  -0.216787
    20  H    0.172979  -0.006801
    21  H    0.146186   0.018432
    22  H    0.110640   0.049060
    23  H    0.300657  -0.003819
    24  H   -0.095019   0.192665
    25  H    0.081225   0.026536
    26  H    0.278438  -0.024438
    27  H    0.126513   0.015538
    28  H    0.212199  -0.001629
    29  H    0.158803   0.006852
    30  H    0.164655   0.010358
    31  H    0.006905   0.125588
    32  H    0.046593   0.093614
    33  H   -0.186073   0.340318
    34  H   -0.240100   0.399637
    35  H    0.057930   0.077606
    36  H   -0.026137   0.186291
    37  H    0.062173   0.059151
    38  H    0.105277   0.068746
    39  H    0.154233  -0.010253
 Sum of Mulliken charges =  -1.00000   1.00000

 Dipole moment (field-independent basis, Debye):
    X=              4.3542    Y=              0.0899    Z=              0.4155  Tot=              4.3749
 Quadrupole moment (field-independent basis, Debye-Ang):
   XX=           -216.0878   YY=           -141.1129   ZZ=           -136.7022
   XY=            -11.1385   XZ=            -18.7563   YZ=             -1.6656

 Summary of Natural Population Analysis:

                                       Natural Population
                Natural  -----------------------------------------------
    Atom  No    Charge         Core      Valence    Rydberg      Total
 -----------------------------------------------------------------------
      C    1   -0.33431      0.99963     2.33018    0.00450     3.33431
      C    2    0.34124      0.99971     1.63765    0.02139     2.65876
      O    3   -0.32807      0.99987     3.32184    0.00635     4.32807
      N    4   -0.31293      0.99964     2.80103    0.01226     3.81293
      C    5    0.13970      0.99953     1.84554    0.01523     2.86030
      N    6   -0.08040      0.99967     2.56649    0.01424     3.58040
      N    7   -0.12316      0.99968     2.60961    0.01388     3.62316
      C    8    0.16604      0.99955     1.81733    0.01709     2.83396
      C    9   -0.06719      0.99953     2.05841    0.00926     3.06719
      C   10   -0.08360      0.99953     2.07537    0.00870     3.08360
      N   11   -0.32075      0.99968     2.81039    0.01067     3.82075
      C   12   -0.08848      0.99962     2.07786    0.01100     3.08848
      C   13   -0.21093      0.99958     2.20357    0.00778     3.21093
      C   14    0.00147      0.99948     1.98891    0.01013     2.99853
      C   15   -0.11284      0.99946     2.10408    0.00930     3.11284
      C   16   -0.20231      0.99962     2.19303    0.00966     3.20231
      C   17   -0.18936      0.99964     2.18120    0.00853     3.18936
      C   18   -0.18671      0.99964     2.17993    0.00714     3.18671
      C   19   -0.20395      0.99959     2.19488    0.00948     3.20395
      H   20    0.10830      0.00000     0.39072    0.00097     0.39170
      H   21    0.11294      0.00000     0.38604    0.00102     0.38706
      H   22    0.10804      0.00000     0.39073    0.00123     0.39196
      H   23    0.20092      0.00000     0.29706    0.00202     0.29908
      H   24    0.09460      0.00000     0.40432    0.00108     0.40540
      H   25    0.09483      0.00000     0.40336    0.00181     0.40517
      H   26    0.18628      0.00000     0.31095    0.00276     0.31372
      H   27    0.08792      0.00000     0.41102    0.00106     0.41208
      H   28    0.11167      0.00000     0.38701    0.00132     0.38833
      H   29    0.09935      0.00000     0.39957    0.00108     0.40065
      H   30    0.11226      0.00000     0.38597    0.00177     0.38774
      H   31    0.09348      0.00000     0.40542    0.00110     0.40652
      H   32    0.09620      0.00000     0.40270    0.00110     0.40380
      H   33    0.10206      0.00000     0.39671    0.00124     0.39794
      H   34    0.09755      0.00000     0.40136    0.00109     0.40245
      H   35    0.09689      0.00000     0.40169    0.00142     0.40311
      H   36    0.09759      0.00000     0.40141    0.00100     0.40241
      H   37    0.09147      0.00000     0.40723    0.00130     0.40853
      H   38    0.10457      0.00000     0.39418    0.00125     0.39543
      H   39    0.09959      0.00000     0.39944    0.00097     0.40041
 =======================================================================
   * Total *   -0.00000     18.99265    50.77418    0.23317    70.00000

 Normal termination of Gaussian 16 at Sat Dec 12 10:31:13 2020.
