 Gaussian 16, Revision A.03,

 -----------------------------------------------------------
 # opt freq B3LYP/6-31G(d) empiricaldispersion=gd3bj scf=xqc
 -----------------------------------------------------------

 -------------------------------
 CID_113877283_JID_7033_neutraal
 -------------------------------
 Symbolic Z-matrix:
 Charge =  0 Multiplicity = 1

 SCF Done:  E(RB3LYP) =  -750.155620520     A.U. after   15 cycles
 SCF Done:  E(RB3LYP) =  -750.159086863     A.U. after   12 cycles
 SCF Done:  E(RB3LYP) =  -750.157471689     A.U. after   14 cycles
 SCF Done:  E(RB3LYP) =  -750.159511429     A.U. after   12 cycles
 SCF Done:  E(RB3LYP) =  -750.160271491     A.U. after   12 cycles
 SCF Done:  E(RB3LYP) =  -750.160683421     A.U. after   12 cycles
 SCF Done:  E(RB3LYP) =  -750.160880673     A.U. after   12 cycles
 SCF Done:  E(RB3LYP) =  -750.160960912     A.U. after   11 cycles
 SCF Done:  E(RB3LYP) =  -750.160998829     A.U. after   10 cycles
 SCF Done:  E(RB3LYP) =  -750.161021394     A.U. after   10 cycles
 SCF Done:  E(RB3LYP) =  -750.161087735     A.U. after   11 cycles
 SCF Done:  E(RB3LYP) =  -750.161132043     A.U. after   11 cycles
 SCF Done:  E(RB3LYP) =  -750.161135576     A.U. after    9 cycles
 SCF Done:  E(RB3LYP) =  -750.161135831     A.U. after    8 cycles
 SCF Done:  E(RB3LYP) =  -750.161135902     A.U. after    7 cycles
 SCF Done:  E(RB3LYP) =  -750.161135931     A.U. after    7 cycles
 Optimization completed.
    -- Stationary point found.
 Normal termination of Gaussian 16 at Sun Dec 13 16:35:39 2020.

 --------------------------------------------------------------------
 #N Geom=AllCheck Guess=TCheck SCRF=Check GenChk RB3LYP/6-31G(d) Freq
 --------------------------------------------------------------------

 Structure from the checkpoint file:  "JID_7033.chk"
 -------------------------------
 CID_113877283_JID_7033_neutraal
 -------------------------------
 Charge =  0 Multiplicity = 1

 SCF Done:  E(RB3LYP) =  -750.161135931     A.U. after    1 cycles

  Exact polarizability: 196.159  18.463 153.551 -21.592   8.197 119.113
 Approx polarizability: 268.594  44.377 242.360 -46.646  17.742 193.647

                      1                      2                      3
                      A                      A                      A
 Frequencies --     19.3402                37.6995                49.2246
 Red. masses --      4.1864                 4.7015                 2.6044
 Frc consts  --      0.0009                 0.0039                 0.0037
 IR Inten    --      0.2694                 1.7524                 0.0587

                      4                      5                      6
                      A                      A                      A
 Frequencies --     55.8861                76.5068               101.5251
 Red. masses --      2.6160                 3.8348                 3.4191
 Frc consts  --      0.0048                 0.0132                 0.0208
 IR Inten    --      3.2124                 0.8373                 2.1885

                      7                      8                      9
                      A                      A                      A
 Frequencies --    128.7336               140.0299               145.3105
 Red. masses --      3.3930                 4.1497                 1.7399
 Frc consts  --      0.0331                 0.0479                 0.0216
 IR Inten    --      3.0150                 4.6909                 2.1004

                     10                     11                     12
                      A                      A                      A
 Frequencies --    167.4426               190.8975               224.3126
 Red. masses --      3.7134                 2.5994                 1.3554
 Frc consts  --      0.0613                 0.0558                 0.0402
 IR Inten    --      1.2246                 0.9635                 0.2933

                     13                     14                     15
                      A                      A                      A
 Frequencies --    243.3778               253.9678               285.2133
 Red. masses --      2.4668                 1.1756                 2.4159
 Frc consts  --      0.0861                 0.0447                 0.1158
 IR Inten    --      3.0458                 0.1700                 7.6772

                     16                     17                     18
                      A                      A                      A
 Frequencies --    304.5457               325.9507               342.3197
 Red. masses --      2.9457                 3.5807                 2.9768
 Frc consts  --      0.1610                 0.2241                 0.2055
 IR Inten    --      1.1716                 1.7151                 3.1212

                     19                     20                     21
                      A                      A                      A
 Frequencies --    363.5532               403.3012               420.2513
 Red. masses --      3.3041                 1.9817                 2.6160
 Frc consts  --      0.2573                 0.1899                 0.2722
 IR Inten    --      2.2927                 1.8187                 1.2112

                     22                     23                     24
                      A                      A                      A
 Frequencies --    431.1028               436.9137               504.3123
 Red. masses --      4.3647                 3.5446                 6.7162
 Frc consts  --      0.4779                 0.3987                 1.0064
 IR Inten    --      0.8373                 2.0146                 5.1880

                     25                     26                     27
                      A                      A                      A
 Frequencies --    517.2394               547.9549               561.0961
 Red. masses --      2.7402                 3.6080                 5.4832
 Frc consts  --      0.4319                 0.6383                 1.0171
 IR Inten    --      6.9648                 6.7478                 7.3519

                     28                     29                     30
                      A                      A                      A
 Frequencies --    622.1629               640.7091               740.4192
 Red. masses --      5.1395                 5.5388                 5.5539
 Frc consts  --      1.1721                 1.3396                 1.7939
 IR Inten    --      1.8841                 1.4099                 0.2709

                     31                     32                     33
                      A                      A                      A
 Frequencies --    753.7824               764.7386               782.8374
 Red. masses --      4.6144                 4.4843                 2.5076
 Frc consts  --      1.5447                 1.5452                 0.9054
 IR Inten    --     11.6892                 5.9286                 0.5145

                     34                     35                     36
                      A                      A                      A
 Frequencies --    816.9258               838.9621               925.0005
 Red. masses --      2.2329                 1.4031                 1.6782
 Frc consts  --      0.8780                 0.5819                 0.8460
 IR Inten    --      0.9676                28.7569                 0.7687

                     37                     38                     39
                      A                      A                      A
 Frequencies --    934.8622               939.9034               944.3848
 Red. masses --      1.7973                 1.2363                 1.8001
 Frc consts  --      0.9255                 0.6435                 0.9459
 IR Inten    --      7.6063                 4.2400                18.5157

                     40                     41                     42
                      A                      A                      A
 Frequencies --    956.9864               965.0769               978.1838
 Red. masses --      3.4415                 1.3437                 1.4576
 Frc consts  --      1.8570                 0.7373                 0.8217
 IR Inten    --     14.1107                 0.4536                 0.5394

                     43                     44                     45
                      A                      A                      A
 Frequencies --   1009.4177              1052.3904              1053.4162
 Red. masses --      1.6816                 2.0881                 2.6226
 Frc consts  --      1.0095                 1.3625                 1.7147
 IR Inten    --      1.9987                14.2996                17.4436

                     46                     47                     48
                      A                      A                      A
 Frequencies --   1057.6109              1129.2444              1149.1789
 Red. masses --      3.2369                 3.0073                 2.1967
 Frc consts  --      2.1332                 2.2594                 1.7092
 IR Inten    --     62.9857                89.6459                33.2580

                     49                     50                     51
                      A                      A                      A
 Frequencies --   1160.2998              1177.0389              1186.2074
 Red. masses --      2.0671                 2.0244                 1.2719
 Frc consts  --      1.6397                 1.6524                 1.0544
 IR Inten    --     19.8601                17.6042                 4.3559

                     52                     53                     54
                      A                      A                      A
 Frequencies --   1191.8442              1208.7315              1218.1468
 Red. masses --      2.2899                 1.7770                 1.4421
 Frc consts  --      1.9164                 1.5297                 1.2608
 IR Inten    --     40.9192                 3.2751                 2.5949

                     55                     56                     57
                      A                      A                      A
 Frequencies --   1230.6285              1275.2091              1286.8365
 Red. masses --      2.2602                 1.2428                 1.8262
 Frc consts  --      2.0168                 1.1908                 1.7817
 IR Inten    --      1.9447                 2.2162                36.3242

                     58                     59                     60
                      A                      A                      A
 Frequencies --   1290.2195              1316.9466              1337.5263
 Red. masses --      1.8740                 1.4889                 1.3867
 Frc consts  --      1.8380                 1.5215                 1.4617
 IR Inten    --     39.2248                42.8007                 6.3499

                     61                     62                     63
                      A                      A                      A
 Frequencies --   1348.6394              1363.1662              1382.4416
 Red. masses --      4.9388                 1.2283                 1.2915
 Frc consts  --      5.2925                 1.3448                 1.4542
 IR Inten    --     25.1530                 5.4659                 3.2451

                     64                     65                     66
                      A                      A                      A
 Frequencies --   1407.7458              1413.0797              1430.5617
 Red. masses --      1.4627                 1.4590                 1.2697
 Frc consts  --      1.7078                 1.7165                 1.5309
 IR Inten    --     64.3873                11.3695                 1.9420

                     67                     68                     69
                      A                      A                      A
 Frequencies --   1439.3475              1450.7665              1462.2179
 Red. masses --      1.3649                 1.2302                 1.9626
 Frc consts  --      1.6660                 1.5255                 2.4724
 IR Inten    --      8.4152                 4.9963                72.3427

                     70                     71                     72
                      A                      A                      A
 Frequencies --   1498.3263              1508.4006              1518.8742
 Red. masses --      1.0874                 1.4127                 1.0486
 Frc consts  --      1.4383                 1.8937                 1.4252
 IR Inten    --      3.8484                 2.2190                 0.1132

                     73                     74                     75
                      A                      A                      A
 Frequencies --   1520.5379              1521.6861              1526.6272
 Red. masses --      1.0922                 1.0669                 1.1088
 Frc consts  --      1.4878                 1.4556                 1.5225
 IR Inten    --      7.8128                 1.6550                 6.5838

                     76                     77                     78
                      A                      A                      A
 Frequencies --   1529.6941              1533.4274              1536.8109
 Red. masses --      1.0633                 1.0521                 1.0699
 Frc consts  --      1.4659                 1.4576                 1.4888
 IR Inten    --     10.9932                 6.2218                 6.4867

                     79                     80                     81
                      A                      A                      A
 Frequencies --   1541.7710              1546.0456              1613.8270
 Red. masses --      2.3039                 1.0556                 6.4677
 Frc consts  --      3.2267                 1.4866                 9.9247
 IR Inten    --     27.0884                 6.2837                19.6938

                     82                     83                     84
                      A                      A                      A
 Frequencies --   1668.4096              2347.7606              3019.7630
 Red. masses --      6.1913                12.6752                 1.0640
 Frc consts  --     10.1539                41.1635                 5.7167
 IR Inten    --     61.2832                41.2844                15.1491

                     85                     86                     87
                      A                      A                      A
 Frequencies --   3030.6263              3037.6625              3042.7022
 Red. masses --      1.0637                 1.0363                 1.0457
 Frc consts  --      5.7562                 5.6337                 5.7040
 IR Inten    --     49.2757                33.4496                10.7443

                     88                     89                     90
                      A                      A                      A
 Frequencies --   3045.5121              3051.1168              3058.7664
 Red. masses --      1.0364                 1.0668                 1.0758
 Frc consts  --      5.6635                 5.8510                 5.9305
 IR Inten    --     55.0471                21.4717                19.6759

                     91                     92                     93
                      A                      A                      A
 Frequencies --   3071.0464              3076.3381              3101.8557
 Red. masses --      1.0947                 1.0993                 1.1009
 Frc consts  --      6.0828                 6.1294                 6.2408
 IR Inten    --     60.1283                10.5527                10.3305

                     94                     95                     96
                      A                      A                      A
 Frequencies --   3108.7335              3109.9204              3112.9415
 Red. masses --      1.1012                 1.0997                 1.1012
 Frc consts  --      6.2705                 6.2665                 6.2875
 IR Inten    --     48.8502                29.2316                75.1157

                     97                     98                     99
                      A                      A                      A
 Frequencies --   3123.3287              3128.6210              3170.1501
 Red. masses --      1.1017                 1.0997                 1.1037
 Frc consts  --      6.3323                 6.3419                 6.5355
 IR Inten    --     21.0139                38.2980                20.7945

                    100                    101                    102
                      A                      A                      A
 Frequencies --   3195.2123              3219.4794              3224.2079
 Red. masses --      1.0886                 1.0941                 1.0910
 Frc consts  --      6.5479                 6.6818                 6.6822
 IR Inten    --      7.5681                 5.5497                 0.1867

 - Thermochemistry -
 -------------------
 Temperature   298.150 Kelvin.  Pressure   1.00000 Atm.
 Atom     1 has atomic number  6 and mass  12.00000

 Molecular mass:   233.14158 amu.
 Principal axes and moments of inertia in atomic units:
                           1         2         3
     Eigenvalues --  2314.649246841.805637866.10045
           X            0.99945  -0.03280   0.00485
           Y            0.03278   0.99946   0.00373
           Z           -0.00497  -0.00357   0.99998
 This molecule is an asymmetric top.
 Rotational symmetry number  1.
 Warning -- assumption of classical behavior for rotation
           may cause significant error
 Rotational temperatures (Kelvin)      0.03742     0.01266     0.01101
 Rotational constants (GHZ):           0.77970     0.26378     0.22943
 Zero-point vibrational energy     808986.5 (Joules/Mol)
                                  193.35242 (Kcal/Mol)
 Warning -- explicit consideration of  27 degrees of freedom as
           vibrations may cause significant error
 Vibrational temperatures:     27.83    54.24    70.82    80.41   110.08
          (Kelvin)            146.07   185.22   201.47   209.07   240.91
                              274.66   322.74   350.17   365.40   410.36
                              438.17   468.97   492.52   523.07   580.26
                              604.65   620.26   628.62   725.59   744.19
                              788.38   807.29   895.15   921.84  1065.30
                             1084.52  1100.29  1126.33  1175.37  1207.08
                             1330.87  1345.06  1352.31  1358.76  1376.89
                             1388.53  1407.39  1452.33  1514.16  1515.63
                             1521.67  1624.73  1653.41  1669.41  1693.50
                             1706.69  1714.80  1739.09  1752.64  1770.60
                             1834.74  1851.47  1856.34  1894.79  1924.40
                             1940.39  1961.29  1989.03  2025.43  2033.11
                             2058.26  2070.90  2087.33  2103.81  2155.76
                             2170.25  2185.32  2187.71  2189.37  2196.48
                             2200.89  2206.26  2211.13  2218.26  2224.41
                             2321.94  2400.47  3377.90  4344.77  4360.40
                             4370.52  4377.77  4381.81  4389.88  4400.88
                             4418.55  4426.16  4462.88  4472.77  4474.48
                             4478.83  4493.77  4501.39  4561.14  4597.20
                             4632.11  4638.92

 Zero-point correction=                           0.308127 (Hartree/Particle)
 Thermal correction to Energy=                    0.326059
 Thermal correction to Enthalpy=                  0.327004
 Thermal correction to Gibbs Free Energy=         0.260781
 Sum of electronic and zero-point Energies=           -749.853009
 Sum of electronic and thermal Energies=              -749.835077
 Sum of electronic and thermal Enthalpies=            -749.834132
 Sum of electronic and thermal Free Energies=         -749.900355

                     E (Thermal)             CV                S
                      KCal/Mol        Cal/Mol-Kelvin    Cal/Mol-Kelvin
 Total                  204.605             66.001            139.377
 Electronic               0.000              0.000              0.000
 Translational            0.889              2.981             42.241
 Rotational               0.889              2.981             33.188
 Vibrational            202.828             60.039             63.948
 Vibration     1          0.593              1.986              6.701
 Vibration     2          0.594              1.982              5.376
 Vibration     3          0.595              1.978              4.848
 Vibration     4          0.596              1.975              4.597
 Vibration     5          0.599              1.965              3.979
 Vibration     6          0.604              1.948              3.425
 Vibration     7          0.611              1.925              2.965
 Vibration     8          0.615              1.913              2.803
 Vibration     9          0.617              1.908              2.733
 Vibration    10          0.624              1.883              2.464
 Vibration    11          0.634              1.852              2.219
 Vibration    12          0.649              1.804              1.924
 Vibration    13          0.659              1.774              1.778
 Vibration    14          0.665              1.756              1.703
 Vibration    15          0.683              1.701              1.502
 Vibration    16          0.695              1.665              1.392
 Vibration    17          0.710              1.624              1.280
 Vibration    18          0.721              1.591              1.201
 Vibration    19          0.737              1.547              1.107
 Vibration    20          0.769              1.463              0.951
 Vibration    21          0.783              1.426              0.891
 Vibration    22          0.792              1.402              0.855
 Vibration    23          0.797              1.390              0.836
 Vibration    24          0.860              1.240              0.647
 Vibration    25          0.872              1.212              0.616
 Vibration    26          0.903              1.144              0.548
 Vibration    27          0.917              1.115              0.522

 Optimization completed.
    -- Stationary point found.
 Normal termination of Gaussian 16 at Sun Dec 13 16:48:57 2020.

 ----------------------------------------------------------------------
 # B3LYP/6-311++G(d,p) empiricaldispersion=gd3bj scf=xqc pop=npa geom=c
 heck
 ----------------------------------------------------------------------

 ---------------------------------------
 CID_113877283_JID_7033_Energie_neutraal
 ---------------------------------------
 Structure from the checkpoint file:  "JID_7033.chk"
 Charge =  0 Multiplicity = 1

 SCF Done:  E(RB3LYP) =  -750.366943749     A.U. after   15 cycles
 Normal termination of Gaussian 16 at Sun Dec 13 16:55:59 2020.

 ----------------------------------------------------------------------
 # B3LYP/6-311++G(d,p) empiricaldispersion=gd3bj scf=xqc pop=npa geom=c
 heck
 ----------------------------------------------------------------------

 -------------------------------------
 CID_113877283_JID_7033_Energie_kation
 -------------------------------------
 Structure from the checkpoint file:  "JID_7033.chk"
 Charge =  1 Multiplicity = 2

 SCF Done:  E(UB3LYP) =  -750.042807902     A.U. after   26 cycles
 Normal termination of Gaussian 16 at Sun Dec 13 17:13:18 2020.
 Gaussian 16:  ES64L-G16RevA.03 25-Dec-2016

 ----------------------------------------------------------------------
 # B3LYP/6-311++G(d,p) empiricaldispersion=gd3bj scf=xqc pop=npa geom=c
 heck
 ----------------------------------------------------------------------

 ------------------------------------
 CID_113877283_JID_7033_Energie_anion
 ------------------------------------
 Structure from the checkpoint file:  "JID_7033.chk"
 Charge = -1 Multiplicity = 2

                         Standard orientation:
 ---------------------------------------------------------------------
 Center     Atomic      Atomic             Coordinates (Angstroms)
 Number     Number       Type             X           Y           Z
 ---------------------------------------------------------------------
      1          6           0       -2.122563    1.620232   -1.225646
      2          6           0       -3.076198    0.935535   -0.238425
      3          6           0       -4.375881    1.738995   -0.099168
      4          6           0       -3.410913   -0.513514   -0.651773
      5          6           0       -2.253596   -1.503172   -0.839016
      6          8           0       -1.842289   -2.210802    0.334928
      7          6           0       -1.311697   -1.441169    1.395810
      8          6           0       -0.076558   -0.642809    1.029831
      9          6           0        0.866555   -1.184390    0.152287
     10          6           0        2.008066   -0.470603   -0.201699
     11          6           0        2.218933    0.818014    0.336980
     12          6           0        1.278578    1.353111    1.231633
     13          6           0        0.141837    0.629119    1.570579
     14          6           0        3.357008    1.592053   -0.048240
     15          7           0        4.283712    2.227841   -0.349417
     16          8           0        2.866976   -1.016846   -1.112846
     17          6           0        4.147331   -1.418636   -0.607674
     18          1           0       -2.546150    1.621772   -2.238445
     19          1           0       -1.145904    1.128911   -1.267167
     20          1           0       -1.950296    2.662840   -0.935461
     21          1           0       -2.587593    0.928904    0.743271
     22          1           0       -4.902645    1.795675   -1.060454
     23          1           0       -5.055827    1.277183    0.626413
     24          1           0       -4.174514    2.764601    0.230598
     25          1           0       -4.119904   -0.952031    0.063408
     26          1           0       -3.944304   -0.460060   -1.612516
     27          1           0       -2.573359   -2.304226   -1.511336
     28          1           0       -1.391097   -1.011501   -1.306353
     29          1           0       -2.068418   -0.772934    1.829218
     30          1           0       -1.055613   -2.175992    2.168711
     31          1           0        0.709059   -2.166112   -0.281321
     32          1           0        1.443639    2.345946    1.636812
     33          1           0       -0.587802    1.060517    2.249745
     34          1           0        4.719733   -0.565817   -0.230371
     35          1           0        4.027471   -2.166823    0.185610
     36          1           0        4.674630   -1.861154   -1.453977
 ---------------------------------------------------------------------

 SCF Done:  E(UB3LYP) =  -750.376701833     A.U. after   30 cycles

 The electronic state is 2-A.
 Alpha  occ. eigenvalues --  -19.01449 -19.00933 -14.14716 -10.10787 -10.10020
 Alpha  occ. eigenvalues --  -10.09634 -10.09126 -10.07985 -10.07493 -10.07270
 Alpha  occ. eigenvalues --  -10.05820 -10.05044 -10.04007 -10.03494 -10.03434
 Alpha  occ. eigenvalues --  -10.02636 -10.02301  -0.93058  -0.91953  -0.75249
 Alpha  occ. eigenvalues --   -0.71889  -0.71729  -0.65236  -0.62845  -0.62138
 Alpha  occ. eigenvalues --   -0.59224  -0.57360  -0.56781  -0.51730  -0.47708
 Alpha  occ. eigenvalues --   -0.46765  -0.45479  -0.41188  -0.39268  -0.37773
 Alpha  occ. eigenvalues --   -0.37606  -0.36463  -0.34982  -0.34405  -0.34166
 Alpha  occ. eigenvalues --   -0.32684  -0.31273  -0.30738  -0.29753  -0.29673
 Alpha  occ. eigenvalues --   -0.29065  -0.28277  -0.27286  -0.25781  -0.25026
 Alpha  occ. eigenvalues --   -0.24477  -0.23809  -0.23466  -0.22556  -0.22246
 Alpha  occ. eigenvalues --   -0.21530  -0.19809  -0.18887  -0.18242  -0.15686
 Alpha  occ. eigenvalues --   -0.14728  -0.11941  -0.10865   0.04608
 Alpha virt. eigenvalues --    0.06471   0.08170   0.08669   0.08850   0.09424
 Alpha virt. eigenvalues --    0.10274   0.10711   0.11101   0.11483   0.11711
 Alpha virt. eigenvalues --    0.12033   0.12236   0.13012   0.13395   0.14152

  Beta  occ. eigenvalues --  -19.01451 -19.00893 -14.14408 -10.10785 -10.09990
  Beta  occ. eigenvalues --  -10.09668 -10.09030 -10.07986 -10.07491 -10.07270
  Beta  occ. eigenvalues --  -10.05818 -10.05040 -10.03705 -10.03564 -10.03243
  Beta  occ. eigenvalues --  -10.02631 -10.01819  -0.93006  -0.91862  -0.74776
  Beta  occ. eigenvalues --   -0.71776  -0.71373  -0.64933  -0.62500  -0.61810
  Beta  occ. eigenvalues --   -0.59217  -0.57199  -0.56620  -0.51416  -0.47505
  Beta  occ. eigenvalues --   -0.46634  -0.45210  -0.41006  -0.39229  -0.37651
  Beta  occ. eigenvalues --   -0.37361  -0.36389  -0.34880  -0.34360  -0.34011
  Beta  occ. eigenvalues --   -0.32588  -0.31197  -0.30599  -0.29690  -0.29559
  Beta  occ. eigenvalues --   -0.28901  -0.28187  -0.27197  -0.25528  -0.24775
  Beta  occ. eigenvalues --   -0.24402  -0.23461  -0.23204  -0.22410  -0.21882
  Beta  occ. eigenvalues --   -0.21041  -0.19239  -0.18280  -0.17923  -0.15564
  Beta  occ. eigenvalues --   -0.14585  -0.10699  -0.09151
  Beta virt. eigenvalues --    0.06402   0.08039   0.08424   0.08785   0.09319
  Beta virt. eigenvalues --    0.10071   0.10553   0.10856   0.11143   0.11577
  Beta virt. eigenvalues --    0.11817   0.11949   0.12313   0.13033   0.13327

 Mulliken charges and spin densities:
               1          2
     1  C   -0.603872  -0.043288
     2  C    0.556759   0.026243
     3  C   -0.453798  -0.023973
     4  C   -0.441149  -0.046985
     5  C   -0.368859   0.026040
     6  O   -0.051405  -0.019012
     7  C   -0.400275  -0.102095
     8  C    1.001502   0.211028
     9  C   -0.217072   0.025883
    10  C   -1.175376   0.134108
    11  C    2.438912   0.208349
    12  C   -0.578855   0.232050
    13  C   -0.592956  -0.043735
    14  C   -1.544610  -0.057635
    15  N   -0.338456   0.166632
    16  O   -0.171032   0.008964
    17  C   -0.143806  -0.154462
    18  H    0.123843   0.000762
    19  H    0.195621  -0.002213
    20  H    0.094075   0.020675
    21  H    0.038660  -0.001629
    22  H    0.117936   0.001770
    23  H    0.113969   0.010458
    24  H    0.114286   0.022237
    25  H    0.156386   0.005700
    26  H    0.107294  -0.000748
    27  H    0.148283   0.017596
    28  H    0.115315  -0.002673
    29  H    0.161851  -0.015363
    30  H   -0.043561   0.233035
    31  H    0.137427   0.024534
    32  H    0.147472  -0.011324
    33  H    0.111811   0.004830
    34  H    0.111095   0.036770
    35  H    0.028649   0.090133
    36  H    0.103934   0.017337
 Sum of Mulliken charges =  -1.00000   1.00000

 Dipole moment (field-independent basis, Debye):
    X=             -8.5848    Y=             -1.8012    Z=             -0.3209  Tot=              8.7776
 Quadrupole moment (field-independent basis, Debye-Ang):
   XX=           -162.1297   YY=           -135.0297   ZZ=           -116.8921
   XY=            -23.0165   XZ=              5.0522   YZ=              5.6237

 Summary of Natural Population Analysis:

                                       Natural Population
                Natural  -----------------------------------------------
    Atom  No    Charge         Core      Valence    Rydberg      Total
 -----------------------------------------------------------------------
      C    1   -0.28636      0.99965     2.28144    0.00527     3.28636
      C    2   -0.12314      0.99961     2.11524    0.00829     3.12314
      C    3   -0.28112      0.99966     2.27705    0.00441     3.28112
      C    4   -0.20191      0.99961     2.19588    0.00642     3.20191
      C    5   -0.01253      0.99956     2.00031    0.01265     3.01253
      O    6   -0.30039      0.99989     3.29071    0.00979     4.30039
      C    7   -0.01585      0.99954     2.00226    0.01405     3.01585
      C    8    0.04855      0.99950     1.94299    0.00895     2.95145
      C    9   -0.13136      0.99947     2.12151    0.01038     3.13136
      C   10    0.19385      0.99935     1.79266    0.01414     2.80615
      C   11   -0.07574      0.99937     2.06727    0.00910     3.07574
      C   12   -0.03455      0.99955     2.02551    0.00949     3.03455
      C   13   -0.13707      0.99952     2.12764    0.00991     3.13707
      C   14    0.14807      0.99964     1.83253    0.01976     2.85193
      N   15   -0.16945      0.99978     2.65869    0.01098     3.66945
      O   16   -0.29209      0.99986     3.28217    0.01007     4.29209
      C   17   -0.09370      0.99959     2.08648    0.00763     3.09370
      H   18    0.08906      0.00000     0.41007    0.00087     0.41094
      H   19    0.11284      0.00000     0.38643    0.00074     0.38716
      H   20    0.09852      0.00000     0.40055    0.00093     0.40148
      H   21    0.10097      0.00000     0.39702    0.00200     0.39903
      H   22    0.09213      0.00000     0.40693    0.00093     0.40787
      H   23    0.09531      0.00000     0.40392    0.00077     0.40469
      H   24    0.09717      0.00000     0.40188    0.00094     0.40283
      H   25    0.09831      0.00000     0.40064    0.00105     0.40169
      H   26    0.09366      0.00000     0.40532    0.00102     0.40634
      H   27    0.08509      0.00000     0.41402    0.00089     0.41491
      H   28    0.09002      0.00000     0.40891    0.00108     0.40998
      H   29    0.07419      0.00000     0.42457    0.00125     0.42581
      H   30    0.09686      0.00000     0.40174    0.00141     0.40314
      H   31    0.10259      0.00000     0.39524    0.00217     0.39741
      H   32    0.09427      0.00000     0.40496    0.00076     0.40573
      H   33    0.09202      0.00000     0.40709    0.00089     0.40798
      H   34    0.09087      0.00000     0.40716    0.00197     0.40913
      H   35    0.07789      0.00000     0.42028    0.00183     0.42211
      H   36    0.08303      0.00000     0.41586    0.00112     0.41697
 =======================================================================
   * Total *   -0.00000     16.99317    45.81293    0.19390    63.00000

 Normal termination of Gaussian 16 at Sun Dec 13 17:31:54 2020.
