 Gaussian 16, Revision A.03,

 -----------------------------------------------------------
 # opt freq B3LYP/6-31G(d) empiricaldispersion=gd3bj scf=xqc
 -----------------------------------------------------------

 -------------------------------
 CID_152507715_JID_8160_neutraal
 -------------------------------
 Symbolic Z-matrix:
 Charge =  0 Multiplicity = 1

 SCF Done:  E(RB3LYP) =  -837.493126836     A.U. after   16 cycles
 SCF Done:  E(RB3LYP) =  -837.499480511     A.U. after   13 cycles
 SCF Done:  E(RB3LYP) =  -837.501738087     A.U. after   13 cycles
 SCF Done:  E(RB3LYP) =  -837.502892575     A.U. after   14 cycles
 SCF Done:  E(RB3LYP) =  -837.503693627     A.U. after   15 cycles
 SCF Done:  E(RB3LYP) =  -837.504367215     A.U. after   15 cycles
 SCF Done:  E(RB3LYP) =  -837.504973990     A.U. after   16 cycles
 SCF Done:  E(RB3LYP) =  -837.505102472     A.U. after   13 cycles
 SCF Done:  E(RB3LYP) =  -837.505326760     A.U. after   15 cycles
 SCF Done:  E(RB3LYP) =  -837.505402499     A.U. after   14 cycles
 SCF Done:  E(RB3LYP) =  -837.506690857     A.U. after   10 cycles
 SCF Done:  E(RB3LYP) =  -837.506694321     A.U. after   11 cycles
 SCF Done:  E(RB3LYP) =  -837.506695524     A.U. after    9 cycles
 SCF Done:  E(RB3LYP) =  -837.506695954     A.U. after    8 cycles
 SCF Done:  E(RB3LYP) =  -837.506696059     A.U. after    8 cycles
 Optimization completed.
    -- Stationary point found.
 Normal termination of Gaussian 16 at Fri Dec 11 19:31:29 2020.

 --------------------------------------------------------------------
 #N Geom=AllCheck Guess=TCheck SCRF=Check GenChk RB3LYP/6-31G(d) Freq
 --------------------------------------------------------------------

 Structure from the checkpoint file:  "JID_8160.chk"
 -------------------------------
 CID_152507715_JID_8160_neutraal
 -------------------------------
 Charge =  0 Multiplicity = 1

 SCF Done:  E(RB3LYP) =  -837.506696059     A.U. after    1 cycles

  Exact polarizability: 150.406  12.455 161.451 -22.576 -10.924 151.209
 Approx polarizability: 205.721  25.923 247.261 -61.694 -26.350 274.168

                      1                      2                      3
                      A                      A                      A
 Frequencies --     11.9465                23.1644                29.9580
 Red. masses --      5.7397                 3.7591                 5.3656
 Frc consts  --      0.0005                 0.0012                 0.0028
 IR Inten    --      0.3139                 0.1897                 0.2560

                      4                      5                      6
                      A                      A                      A
 Frequencies --     45.1761                54.0159                67.6865
 Red. masses --      3.5002                 4.5021                 5.9803
 Frc consts  --      0.0042                 0.0077                 0.0161
 IR Inten    --      0.5155                 0.7244                 0.2533

                      7                      8                      9
                      A                      A                      A
 Frequencies --     87.7417               114.1338               128.5686
 Red. masses --      6.8634                 3.8261                 3.2584
 Frc consts  --      0.0311                 0.0294                 0.0317
 IR Inten    --      0.3216                 2.4286                 1.7131

                     10                     11                     12
                      A                      A                      A
 Frequencies --    159.7835               201.1319               204.0565
 Red. masses --      1.9684                 3.5079                 2.6802
 Frc consts  --      0.0296                 0.0836                 0.0658
 IR Inten    --      0.4480                 0.0450                 1.7981

                     13                     14                     15
                      A                      A                      A
 Frequencies --    225.5660               246.7884               270.2004
 Red. masses --      3.6866                 3.3970                 3.5187
 Frc consts  --      0.1105                 0.1219                 0.1514
 IR Inten    --      2.7961                 2.0610                 0.9893

                     16                     17                     18
                      A                      A                      A
 Frequencies --    282.5121               312.4536               349.8745
 Red. masses --      1.5207                 3.2636                 2.2407
 Frc consts  --      0.0715                 0.1877                 0.1616
 IR Inten    --      0.3510                 2.5452                 0.4651

                     19                     20                     21
                      A                      A                      A
 Frequencies --    363.8522               425.5796               450.4299
 Red. masses --      2.5603                 2.8999                 3.9673
 Frc consts  --      0.1997                 0.3095                 0.4742
 IR Inten    --     13.9294                 1.7570                 1.0256

                     22                     23                     24
                      A                      A                      A
 Frequencies --    472.3876               491.3559               532.5416
 Red. masses --      5.1996                 3.1314                13.6034
 Frc consts  --      0.6836                 0.4454                 2.2730
 IR Inten    --      1.5859                 2.1030                13.3470

                     25                     26                     27
                      A                      A                      A
 Frequencies --    549.8169               590.0718               605.5704
 Red. masses --      2.2382                 4.8169                 4.6285
 Frc consts  --      0.3986                 0.9882                 1.0000
 IR Inten    --      4.2497                 6.9073                 3.6758

                     28                     29                     30
                      A                      A                      A
 Frequencies --    659.5736               671.7914               733.1857
 Red. masses --     10.1253                 5.5678                 1.3092
 Frc consts  --      2.5953                 1.4805                 0.4147
 IR Inten    --      2.2852                 2.1515                 6.9073

                     31                     32                     33
                      A                      A                      A
 Frequencies --    737.1513               751.4950               799.1424
 Red. masses --      3.5801                 2.5981                 1.5470
 Frc consts  --      1.1462                 0.8645                 0.5821
 IR Inten    --      6.6811                 4.9410                27.4323

                     34                     35                     36
                      A                      A                      A
 Frequencies --    803.7996               826.4157               848.3322
 Red. masses --      1.6411                 2.0771                 1.7910
 Frc consts  --      0.6247                 0.8358                 0.7594
 IR Inten    --     19.3525                 0.1548                 2.4040

                     37                     38                     39
                      A                      A                      A
 Frequencies --    864.3798               885.2744               907.2253
 Red. masses --      8.1376                 1.4026                 1.4896
 Frc consts  --      3.5823                 0.6476                 0.7223
 IR Inten    --     16.8025                 0.6692                 2.3180

                     40                     41                     42
                      A                      A                      A
 Frequencies --    936.4541               991.4961               993.7365
 Red. masses --      2.5190                 1.6521                 2.0691
 Frc consts  --      1.3015                 0.9569                 1.2038
 IR Inten    --      8.9042                 0.3160                 1.0341

                     43                     44                     45
                      A                      A                      A
 Frequencies --   1000.0089              1010.0006              1022.3974
 Red. masses --      1.6876                 6.2391                 2.2717
 Frc consts  --      0.9943                 3.7499                 1.3991
 IR Inten    --      3.8893                 8.1661                 4.4964

                     46                     47                     48
                      A                      A                      A
 Frequencies --   1036.3873              1058.6766              1064.7872
 Red. masses --      2.0517                 1.5724                 3.6953
 Frc consts  --      1.2984                 1.0384                 2.4684
 IR Inten    --     13.4145                 0.3659                36.7158

                     49                     50                     51
                      A                      A                      A
 Frequencies --   1081.8351              1110.4776              1115.9996
 Red. masses --      3.2604                 2.0840                 1.6297
 Frc consts  --      2.2483                 1.5141                 1.1959
 IR Inten    --     87.8701                 5.7185                 3.4420

                     52                     53                     54
                      A                      A                      A
 Frequencies --   1151.4876              1168.8560              1187.4006
 Red. masses --      2.0763                 1.9699                 1.1986
 Frc consts  --      1.6220                 1.5857                 0.9957
 IR Inten    --      2.3534                 0.3727                11.7700

                     55                     56                     57
                      A                      A                      A
 Frequencies --   1194.5450              1231.7831              1246.2206
 Red. masses --      8.8890                 1.4292                 1.8897
 Frc consts  --      7.4732                 1.2777                 1.7291
 IR Inten    --     25.9908                 2.2300                27.9465

                     58                     59                     60
                      A                      A                      A
 Frequencies --   1275.3985              1297.0866              1309.7012
 Red. masses --      1.3396                 1.1730                 1.3255
 Frc consts  --      1.2838                 1.1628                 1.3396
 IR Inten    --      3.2652                 8.2601                21.1367

                     61                     62                     63
                      A                      A                      A
 Frequencies --   1324.1693              1329.2230              1345.8455
 Red. masses --      1.9900                 1.6052                 1.4640
 Frc consts  --      2.0558                 1.6710                 1.5623
 IR Inten    --     46.2250                26.4600                26.2283

                     64                     65                     66
                      A                      A                      A
 Frequencies --   1353.6625              1372.8228              1399.8248
 Red. masses --      1.6254                 1.3811                 1.3462
 Frc consts  --      1.7548                 1.5336                 1.5542
 IR Inten    --     98.9452                50.7342                 0.9833

                     67                     68                     69
                      A                      A                      A
 Frequencies --   1405.7902              1412.5900              1434.4086
 Red. masses --      1.4143                 1.5228                 1.5397
 Frc consts  --      1.6468                 1.7902                 1.8665
 IR Inten    --     19.3907                35.9805                 4.3252

                     70                     71                     72
                      A                      A                      A
 Frequencies --   1436.7497              1444.0102              1484.7925
 Red. masses --      1.5217                 1.2679                 1.8147
 Frc consts  --      1.8507                 1.5577                 2.3571
 IR Inten    --      3.3093                 6.2338                 1.2247

                     73                     74                     75
                      A                      A                      A
 Frequencies --   1493.9380              1500.8059              1505.3746
 Red. masses --      1.3296                 1.8809                 1.1390
 Frc consts  --      1.7483                 2.4962                 1.5208
 IR Inten    --     58.4001                57.7927                17.3829

                     76                     77                     78
                      A                      A                      A
 Frequencies --   1515.0678              1522.7643              1525.4820
 Red. masses --      1.0833                 1.1075                 1.0625
 Frc consts  --      1.4651                 1.5131                 1.4568
 IR Inten    --      1.3046                 4.1932                 4.7679

                     79                     80                     81
                      A                      A                      A
 Frequencies --   1527.1938              1534.9117              1543.6628
 Red. masses --      1.3808                 1.0630                 1.0695
 Frc consts  --      1.8974                 1.4755                 1.5015
 IR Inten    --     70.5049                 8.8315                 2.7425

                     82                     83                     84
                      A                      A                      A
 Frequencies --   1636.7144              1656.7097              2201.2103
 Red. masses --      6.7520                 5.8932                13.9715
 Frc consts  --     10.6568                 9.5300                39.8857
 IR Inten    --     60.4491               137.5464               256.5956

                     85                     86                     87
                      A                      A                      A
 Frequencies --   3021.6329              3028.7790              3037.6999
 Red. masses --      1.0607                 1.0636                 1.0669
 Frc consts  --      5.7060                 5.7487                 5.8005
 IR Inten    --     29.5558                15.2401                36.0280

                     88                     89                     90
                      A                      A                      A
 Frequencies --   3043.8801              3049.9085              3053.1029
 Red. masses --      1.0374                 1.0580                 1.0863
 Frc consts  --      5.6632                 5.7987                 5.9659
 IR Inten    --     20.1735                33.0707                10.9656

                     91                     92                     93
                      A                      A                      A
 Frequencies --   3061.4094              3067.4531              3076.8592
 Red. masses --      1.0759                 1.0989                 1.0935
 Frc consts  --      5.9411                 6.0922                 6.0992
 IR Inten    --     39.7587                24.4577                34.7433

                     94                     95                     96
                      A                      A                      A
 Frequencies --   3092.9235              3097.9098              3100.0112
 Red. masses --      1.0646                 1.1061                 1.1028
 Frc consts  --      6.0006                 6.2541                 6.2442
 IR Inten    --     37.0747                14.5002                66.6512

                     97                     98                     99
                      A                      A                      A
 Frequencies --   3108.6294              3116.7519              3161.3419
 Red. masses --      1.1014                 1.1019                 1.1029
 Frc consts  --      6.2709                 6.3067                 6.4942
 IR Inten    --     47.7871                52.0629                12.8456

                    100                    101                    102
                      A                      A                      A
 Frequencies --   3196.8298              3213.5189              3233.0500
 Red. masses --      1.0877                 1.0938                 1.0948
 Frc consts  --      6.5495                 6.6550                 6.7424
 IR Inten    --      8.6269                14.1754                 4.6265

 - Thermochemistry -
 -------------------
 Temperature   298.150 Kelvin.  Pressure   1.00000 Atm.
 Atom     1 has atomic number  6 and mass  12.00000

 Molecular mass:   250.14298 amu.
 Principal axes and moments of inertia in atomic units:
                           1         2         3
     Eigenvalues --  3275.562187059.642487892.12192
           X            0.99974   0.02274   0.00329
           Y           -0.02270   0.99967  -0.01184
           Z           -0.00356   0.01176   0.99992
 This molecule is an asymmetric top.
 Rotational symmetry number  1.
 Warning -- assumption of classical behavior for rotation
           may cause significant error
 Rotational temperatures (Kelvin)      0.02644     0.01227     0.01097
 Rotational constants (GHZ):           0.55097     0.25564     0.22868
 Zero-point vibrational energy     789166.2 (Joules/Mol)
                                  188.61524 (Kcal/Mol)
 Warning -- explicit consideration of  27 degrees of freedom as
           vibrations may cause significant error
 Vibrational temperatures:     17.19    33.33    43.10    65.00    77.72
          (Kelvin)             97.39   126.24   164.21   184.98   229.89
                              289.38   293.59   324.54   355.07   388.76
                              406.47   449.55   503.39   523.50   612.31
                              648.07   679.66   706.95   766.21   791.06
                              848.98   871.28   948.98   966.56  1054.89
                             1060.60  1081.23  1149.79  1156.49  1189.03
                             1220.56  1243.65  1273.71  1305.29  1347.35
                             1426.54  1429.77  1438.79  1453.17  1471.00
                             1491.13  1523.20  1531.99  1556.52  1597.73
                             1605.67  1656.73  1681.72  1708.40  1718.68
                             1772.26  1793.03  1835.01  1866.22  1884.37
                             1905.18  1912.46  1936.37  1947.62  1975.19
                             2014.04  2022.62  2032.40  2063.79  2067.16
                             2077.61  2136.29  2149.44  2159.32  2165.90
                             2179.84  2190.92  2194.83  2197.29  2208.40
                             2220.99  2354.87  2383.64  3167.05  4347.46
                             4357.74  4370.57  4379.46  4388.14  4392.73
                             4404.69  4413.38  4426.91  4450.03  4457.20
                             4460.22  4472.62  4484.31  4548.47  4599.53
                             4623.54  4651.64

 Zero-point correction=                           0.300578 (Hartree/Particle)
 Thermal correction to Energy=                    0.318899
 Thermal correction to Enthalpy=                  0.319843
 Thermal correction to Gibbs Free Energy=         0.250341
 Sum of electronic and zero-point Energies=           -837.206119
 Sum of electronic and thermal Energies=              -837.187797
 Sum of electronic and thermal Enthalpies=            -837.186853
 Sum of electronic and thermal Free Energies=         -837.256355

                     E (Thermal)             CV                S
                      KCal/Mol        Cal/Mol-Kelvin    Cal/Mol-Kelvin
 Total                  200.112             66.701            146.279
 Electronic               0.000              0.000              0.000
 Translational            0.889              2.981             42.451
 Rotational               0.889              2.981             33.567
 Vibrational            198.335             60.739             70.261
 Vibration     1          0.593              1.987              7.658
 Vibration     2          0.593              1.985              6.343
 Vibration     3          0.594              1.984              5.832
 Vibration     4          0.595              1.979              5.018
 Vibration     5          0.596              1.976              4.665
 Vibration     6          0.598              1.970              4.220
 Vibration     7          0.601              1.958              3.710
 Vibration     8          0.607              1.938              3.197
 Vibration     9          0.611              1.925              2.967
 Vibration    10          0.622              1.892              2.552
 Vibration    11          0.638              1.838              2.123
 Vibration    12          0.640              1.834              2.096
 Vibration    13          0.650              1.802              1.914
 Vibration    14          0.661              1.768              1.753
 Vibration    15          0.674              1.728              1.595
 Vibration    16          0.682              1.706              1.518
 Vibration    17          0.701              1.650              1.349
 Vibration    18          0.727              1.576              1.167
 Vibration    19          0.737              1.547              1.106
 Vibration    20          0.787              1.415              0.873
 Vibration    21          0.809              1.360              0.794
 Vibration    22          0.829              1.311              0.731
 Vibration    23          0.847              1.269              0.680
 Vibration    24          0.888              1.178              0.582
 Vibration    25          0.905              1.140              0.545
 Vibration    26          0.947              1.053              0.467
 Vibration    27          0.964              1.020              0.440

 Optimization completed.
    -- Stationary point found.
 Normal termination of Gaussian 16 at Fri Dec 11 19:46:05 2020.

 ----------------------------------------------------------------------
 # B3LYP/6-311++G(d,p) empiricaldispersion=gd3bj scf=xqc pop=npa geom=c
 heck
 ----------------------------------------------------------------------

 ---------------------------------------
 CID_152507715_JID_8160_Energie_neutraal
 ---------------------------------------
 Structure from the checkpoint file:  "JID_8160.chk"
 Charge =  0 Multiplicity = 1

 SCF Done:  E(RB3LYP) =  -837.736072748     A.U. after   16 cycles
 Normal termination of Gaussian 16 at Fri Dec 11 19:52:08 2020.

 ----------------------------------------------------------------------
 # B3LYP/6-311++G(d,p) empiricaldispersion=gd3bj scf=xqc pop=npa geom=c
 heck
 ----------------------------------------------------------------------

 -------------------------------------
 CID_152507715_JID_8160_Energie_kation
 -------------------------------------
 Structure from the checkpoint file:  "JID_8160.chk"
 Charge =  1 Multiplicity = 2

 SCF Done:  E(UB3LYP) =  -837.428284877     A.U. after   29 cycles
 Normal termination of Gaussian 16 at Fri Dec 11 20:06:57 2020.
 Gaussian 16:  ES64L-G16RevA.03 25-Dec-2016

 ----------------------------------------------------------------------
 # B3LYP/6-311++G(d,p) empiricaldispersion=gd3bj scf=xqc pop=npa geom=c
 heck
 ----------------------------------------------------------------------

 ------------------------------------
 CID_152507715_JID_8160_Energie_anion
 ------------------------------------
 Structure from the checkpoint file:  "JID_8160.chk"
 Charge = -1 Multiplicity = 2

                         Standard orientation:
 ---------------------------------------------------------------------
 Center     Atomic      Atomic             Coordinates (Angstroms)
 Number     Number       Type             X           Y           Z
 ---------------------------------------------------------------------
      1          6           0       -4.584314    1.073984   -0.649009
      2          6           0       -4.659082   -0.455658   -0.674165
      3          6           0       -3.392294   -1.131019   -1.223906
      4          6           0       -2.093373   -0.789288   -0.479690
      5          6           0       -2.113684   -1.182713    1.001283
      6          6           0       -0.800319   -0.941477    1.735948
      7          8           0       -0.520515    0.470797    1.856724
      8          6           0        0.335384    1.053943    0.993605
      9          6           0        0.570685    2.429688    1.181004
     10          6           0        1.453653    3.053887    0.317612
     11          6           0        2.074740    2.310249   -0.694905
     12          6           0        1.759425    0.960820   -0.801632
     13          7           0        0.905507    0.341574    0.029301
     14          6           0        2.343607    0.113956   -1.912506
     15          8           0        2.506746   -1.258810   -1.567663
     16          7           0        3.497513   -1.348152   -0.517200
     17          7           0        2.933956   -1.843932    0.486843
     18          7           0        2.576438   -2.325979    1.456459
     19          1           0       -3.810015    1.430314    0.039523
     20          1           0       -5.536731    1.511050   -0.328979
     21          1           0       -4.350611    1.473136   -1.643999
     22          1           0       -4.869882   -0.826190    0.337559
     23          1           0       -5.512965   -0.766112   -1.290496
     24          1           0       -3.537391   -2.220585   -1.212018
     25          1           0       -3.273027   -0.849422   -2.279574
     26          1           0       -1.250740   -1.290160   -0.971010
     27          1           0       -1.890503    0.284089   -0.566486
     28          1           0       -2.908243   -0.641971    1.530131
     29          1           0       -2.349521   -2.253115    1.093924
     30          1           0       -0.866744   -1.294913    2.768639
     31          1           0        0.035056   -1.437102    1.239973
     32          1           0        0.069224    2.954577    1.985768
     33          1           0        1.670427    4.112188    0.432007
     34          1           0        2.783302    2.769568   -1.376509
     35          1           0        1.653006    0.068254   -2.763088
     36          1           0        3.295053    0.537688   -2.257511
 ---------------------------------------------------------------------

 SCF Done:  E(UB3LYP) =  -837.745911501     A.U. after   33 cycles
 SCF Done:  E(UB3LYP) =  -837.745911501     a.u. after    1 cycles

 The electronic state is 2-A.
 Alpha  occ. eigenvalues --  -19.04125 -19.00615 -14.27695 -14.22297 -14.19508
 Alpha  occ. eigenvalues --  -14.17949 -10.14859 -10.10763 -10.09504 -10.09058
 Alpha  occ. eigenvalues --  -10.07698 -10.07429 -10.07174 -10.07108 -10.06744
 Alpha  occ. eigenvalues --  -10.05927 -10.05908 -10.05794  -0.97638  -0.96353
 Alpha  occ. eigenvalues --   -0.90631  -0.82146  -0.76063  -0.71517  -0.69032
 Alpha  occ. eigenvalues --   -0.67777  -0.65094  -0.61508  -0.57444  -0.55475
 Alpha  occ. eigenvalues --   -0.52241  -0.49962  -0.48795  -0.45959  -0.42809
 Alpha  occ. eigenvalues --   -0.41720  -0.38324  -0.37815  -0.37646  -0.36854
 Alpha  occ. eigenvalues --   -0.35604  -0.34842  -0.34767  -0.33302  -0.31762
 Alpha  occ. eigenvalues --   -0.31269  -0.31022  -0.30832  -0.29338  -0.29249
 Alpha  occ. eigenvalues --   -0.28417  -0.27730  -0.27064  -0.26490  -0.25717
 Alpha  occ. eigenvalues --   -0.25049  -0.23807  -0.23080  -0.22621  -0.21728
 Alpha  occ. eigenvalues --   -0.20891  -0.19229  -0.17269  -0.14618  -0.13677
 Alpha  occ. eigenvalues --   -0.11794  -0.08268   0.04465
 Alpha virt. eigenvalues --    0.05704   0.07507   0.07887   0.08050   0.08158
 Alpha virt. eigenvalues --    0.09065   0.09543   0.10275   0.10488   0.10891
 Alpha virt. eigenvalues --    0.11184   0.11880   0.12203   0.13007   0.13466

  Beta  occ. eigenvalues --  -19.04129 -19.00281 -14.27290 -14.22309 -14.18816
  Beta  occ. eigenvalues --  -14.17833 -10.14882 -10.10757 -10.09493 -10.08961
  Beta  occ. eigenvalues --  -10.07689 -10.07349 -10.07165 -10.07103 -10.06742
  Beta  occ. eigenvalues --  -10.05937 -10.05924 -10.05697  -0.96813  -0.96346
  Beta  occ. eigenvalues --   -0.89837  -0.81958  -0.75450  -0.71504  -0.68843
  Beta  occ. eigenvalues --   -0.67734  -0.64956  -0.61448  -0.57262  -0.55372
  Beta  occ. eigenvalues --   -0.52204  -0.49714  -0.48734  -0.45924  -0.42534
  Beta  occ. eigenvalues --   -0.41476  -0.38242  -0.37720  -0.37613  -0.36803
  Beta  occ. eigenvalues --   -0.35111  -0.34779  -0.33793  -0.33225  -0.31394
  Beta  occ. eigenvalues --   -0.31059  -0.30712  -0.30501  -0.29212  -0.29070
  Beta  occ. eigenvalues --   -0.27740  -0.27041  -0.26908  -0.26384  -0.25672
  Beta  occ. eigenvalues --   -0.24464  -0.23739  -0.23030  -0.22608  -0.21688
  Beta  occ. eigenvalues --   -0.20763  -0.18095  -0.16624  -0.14448  -0.13245
  Beta  occ. eigenvalues --   -0.11470  -0.07957
  Beta virt. eigenvalues --    0.06016   0.07441   0.08004   0.08039   0.08702
  Beta virt. eigenvalues --    0.09115   0.09422   0.10217   0.10488   0.10790
  Beta virt. eigenvalues --    0.11150   0.11801   0.11958   0.12141   0.13063

 Mulliken charges and spin densities:
               1          2
     1  C   -0.223729  -0.383157
     2  C   -0.143055  -0.032961
     3  C   -0.401889  -0.078877
     4  C    0.278163   0.020935
     5  C   -0.351154  -0.095504
     6  C   -0.352846  -0.002004
     7  O   -0.001453   0.000604
     8  C   -0.446992   0.017139
     9  C    0.177151  -0.004395
    10  C   -0.630870   0.116492
    11  C   -0.215816  -0.102482
    12  C   -0.138751   0.310716
    13  N    0.290758   0.060988
    14  C   -0.172411  -0.264837
    15  O    0.009020   0.014552
    16  N   -0.502310   0.040485
    17  N    0.306502   0.115850
    18  N   -0.302964   0.409147
    19  H    0.119941   0.046084
    20  H   -0.054686   0.181331
    21  H    0.092148   0.035255
    22  H    0.073948   0.063052
    23  H   -0.159256   0.313329
    24  H    0.099324   0.009662
    25  H    0.028077   0.126465
    26  H    0.211971  -0.003015
    27  H    0.162081  -0.040647
    28  H    0.148239  -0.002584
    29  H    0.122571   0.010645
    30  H    0.150716   0.005123
    31  H    0.212367   0.004622
    32  H    0.147168   0.006935
    33  H    0.120956   0.010871
    34  H    0.147833   0.002354
    35  H    0.103149   0.045823
    36  H    0.096098   0.042004
 Sum of Mulliken charges =  -1.00000   1.00000

 Dipole moment (field-independent basis, Debye):
    X=             -4.5273    Y=              4.1289    Z=             -0.2650  Tot=              6.1330
 Quadrupole moment (field-independent basis, Debye-Ang):
   XX=           -175.2917   YY=           -131.8401   ZZ=           -128.3039
   XY=             17.6650   XZ=             -7.2193   YZ=             -0.5870

 Summary of Natural Population Analysis:

                                       Natural Population
                Natural  -----------------------------------------------
    Atom  No    Charge         Core      Valence    Rydberg      Total
 -----------------------------------------------------------------------
      C    1   -0.29081      0.99967     2.28488    0.00627     3.29081
      C    2   -0.19353      0.99964     2.18554    0.00835     3.19353
      C    3   -0.18819      0.99963     2.17875    0.00980     3.18819
      C    4   -0.19778      0.99963     2.18997    0.00818     3.19778
      C    5   -0.20030      0.99962     2.19366    0.00702     3.20030
      C    6   -0.01425      0.99955     2.00459    0.01012     3.01425
      O    7   -0.28286      0.99985     3.27340    0.00961     4.28286
      C    8    0.27171      0.99946     1.71260    0.01623     2.72829
      C    9   -0.13194      0.99952     2.12334    0.00908     3.13194
      C   10   -0.06722      0.99958     2.05926    0.00838     3.06722
      C   11   -0.14938      0.99951     2.14072    0.00915     3.14938
      C   12    0.11971      0.99953     1.86797    0.01278     2.88029
      N   13   -0.25276      0.99962     2.74167    0.01147     3.75276
      C   14   -0.01879      0.99955     2.00526    0.01398     3.01879
      O   15   -0.20020      0.99990     3.18972    0.01058     4.20020
      N   16   -0.10295      0.99973     2.58615    0.01707     3.60295
      N   17    0.13106      0.99971     2.35245    0.01677     3.36894
      N   18    0.04160      0.99982     2.44591    0.01267     3.45840
      H   19    0.10000      0.00000     0.39901    0.00099     0.40000
      H   20    0.09658      0.00000     0.40268    0.00074     0.40342
      H   21    0.09547      0.00000     0.40372    0.00081     0.40453
      H   22    0.09259      0.00000     0.40637    0.00104     0.40741
      H   23    0.09380      0.00000     0.40503    0.00117     0.40620
      H   24    0.09319      0.00000     0.40591    0.00090     0.40681
      H   25    0.09448      0.00000     0.40463    0.00089     0.40552
      H   26    0.10891      0.00000     0.38967    0.00143     0.39109
      H   27    0.09820      0.00000     0.40009    0.00171     0.40180
      H   28    0.09295      0.00000     0.40549    0.00155     0.40705
      H   29    0.09513      0.00000     0.40368    0.00119     0.40487
      H   30    0.08549      0.00000     0.41357    0.00094     0.41451
      H   31    0.11196      0.00000     0.38638    0.00165     0.38804
      H   32    0.10133      0.00000     0.39747    0.00120     0.39867
      H   33    0.09338      0.00000     0.40570    0.00091     0.40662
      H   34    0.09870      0.00000     0.40018    0.00113     0.40130
      H   35    0.09288      0.00000     0.40541    0.00171     0.40712
      H   36    0.08185      0.00000     0.41629    0.00186     0.41815
 =======================================================================
   * Total *   -0.00000     17.99353    48.78711    0.21936    67.00000

 Normal termination of Gaussian 16 at Fri Dec 11 20:24:01 2020.
