 Gaussian 16, Revision A.03,

 -----------------------------------------------------------
 # opt freq B3LYP/6-31G(d) empiricaldispersion=gd3bj scf=xqc
 -----------------------------------------------------------

 ------------------------------
 CID_83543274_JID_8086_neutraal
 ------------------------------
 Symbolic Z-matrix:
 Charge =  0 Multiplicity = 1

 SCF Done:  E(RB3LYP) =  -821.820984428     A.U. after   17 cycles
 SCF Done:  E(RB3LYP) =  -821.828775700     A.U. after   13 cycles
 SCF Done:  E(RB3LYP) =  -821.829412175     A.U. after   12 cycles
 SCF Done:  E(RB3LYP) =  -821.829515570     A.U. after   12 cycles
 SCF Done:  E(RB3LYP) =  -821.829532434     A.U. after   13 cycles
 SCF Done:  E(RB3LYP) =  -821.829925000     A.U. after   12 cycles
 SCF Done:  E(RB3LYP) =  -821.830141313     A.U. after   12 cycles
 SCF Done:  E(RB3LYP) =  -821.830073723     A.U. after   12 cycles
 SCF Done:  E(RB3LYP) =  -821.830211208     A.U. after   12 cycles
 SCF Done:  E(RB3LYP) =  -821.830255266     A.U. after   10 cycles
 SCF Done:  E(RB3LYP) =  -821.830396353     A.U. after    8 cycles
 SCF Done:  E(RB3LYP) =  -821.830396391     A.U. after    9 cycles
 SCF Done:  E(RB3LYP) =  -821.830396519     A.U. after    8 cycles
 SCF Done:  E(RB3LYP) =  -821.830396522     A.U. after    5 cycles
 Optimization completed.
    -- Stationary point found.
 Normal termination of Gaussian 16 at Fri Dec 11 18:58:40 2020.

 --------------------------------------------------------------------
 #N Geom=AllCheck Guess=TCheck SCRF=Check GenChk RB3LYP/6-31G(d) Freq
 --------------------------------------------------------------------

 Structure from the checkpoint file:  "JID_8086.chk"
 ------------------------------
 CID_83543274_JID_8086_neutraal
 ------------------------------
 Charge =  0 Multiplicity = 1

 SCF Done:  E(RB3LYP) =  -821.830396522     A.U. after    1 cycles

  Exact polarizability: 218.534 -17.575 182.355  11.026   2.686  91.682
 Approx polarizability: 320.030 -44.878 314.419  28.940  -7.510 147.339

                      1                      2                      3
                      A                      A                      A
 Frequencies --     28.2532                31.9766                56.1194
 Red. masses --      1.2466                 2.5860                 8.8868
 Frc consts  --      0.0006                 0.0016                 0.0165
 IR Inten    --      0.1399                 1.0214                 1.3269

                      4                      5                      6
                      A                      A                      A
 Frequencies --     70.5358                77.5579               127.8403
 Red. masses --      5.6845                 6.6123                 3.0238
 Frc consts  --      0.0167                 0.0234                 0.0291
 IR Inten    --      0.5098                 0.5656                 0.4770

                      7                      8                      9
                      A                      A                      A
 Frequencies --    147.2603               170.0183               171.2196
 Red. masses --      5.0140                 3.1223                 1.2368
 Frc consts  --      0.0641                 0.0532                 0.0214
 IR Inten    --      0.2336                 2.1439                 0.3008

                     10                     11                     12
                      A                      A                      A
 Frequencies --    182.6042               239.7238               253.2242
 Red. masses --      5.4131                 4.3897                 4.8025
 Frc consts  --      0.1063                 0.1486                 0.1814
 IR Inten    --      0.7428                 0.7576                 2.0143

                     13                     14                     15
                      A                      A                      A
 Frequencies --    277.5529               322.8280               337.5354
 Red. masses --      5.0711                 3.6251                 3.3453
 Frc consts  --      0.2302                 0.2226                 0.2246
 IR Inten    --      1.6894                 0.1729                 0.9631

                     16                     17                     18
                      A                      A                      A
 Frequencies --    383.5124               436.0741               442.7172
 Red. masses --      6.4420                 4.2683                 4.8469
 Frc consts  --      0.5582                 0.4782                 0.5597
 IR Inten    --      4.0535                 5.7908                 8.6229

                     19                     20                     21
                      A                      A                      A
 Frequencies --    470.2663               473.1949               480.6420
 Red. masses --      3.4591                 4.4974                 3.3051
 Frc consts  --      0.4507                 0.5933                 0.4499
 IR Inten    --      4.6601                 1.2896                 6.5750

                     22                     23                     24
                      A                      A                      A
 Frequencies --    523.9483               549.1887               571.0097
 Red. masses --      4.8567                 5.6357                 1.2099
 Frc consts  --      0.7855                 1.0015                 0.2324
 IR Inten    --      2.7979                 3.9129               103.4260

                     25                     26                     27
                      A                      A                      A
 Frequencies --    612.3490               626.1772               643.1987
 Red. masses --      3.9086                 1.4606                 4.9108
 Frc consts  --      0.8635                 0.3374                 1.1970
 IR Inten    --      6.3565                55.3886                37.9014

                     28                     29                     30
                      A                      A                      A
 Frequencies --    660.8083               689.6126               727.4086
 Red. masses --      4.5967                 6.0081                 2.4990
 Frc consts  --      1.1826                 1.6834                 0.7791
 IR Inten    --      9.9697                13.8795                 1.4913

                     31                     32                     33
                      A                      A                      A
 Frequencies --    746.1177               759.2769               775.2559
 Red. masses --      3.6583                 4.3210                 7.4160
 Frc consts  --      1.1999                 1.4677                 2.6261
 IR Inten    --      2.5360                 3.1044                32.4797

                     34                     35                     36
                      A                      A                      A
 Frequencies --    815.5170               836.8619               889.2362
 Red. masses --      5.9970                 1.2922                 1.5286
 Frc consts  --      2.3499                 0.5332                 0.7121
 IR Inten    --      3.6702                18.1110                32.0324

                     37                     38                     39
                      A                      A                      A
 Frequencies --    908.5384               917.8476               922.9471
 Red. masses --      1.5796                 1.4631                 2.6482
 Frc consts  --      0.7682                 0.7262                 1.3291
 IR Inten    --      1.5764                11.3308                 9.3920

                     40                     41                     42
                      A                      A                      A
 Frequencies --    949.6390               968.1196              1019.0377
 Red. masses --      3.4215                 1.3033                 1.8669
 Frc consts  --      1.8180                 0.7197                 1.1422
 IR Inten    --      2.8832                 0.1300                34.8578

                     43                     44                     45
                      A                      A                      A
 Frequencies --   1033.9696              1044.8639              1071.7668
 Red. masses --      3.3109                 1.4297                 1.5108
 Frc consts  --      2.0855                 0.9196                 1.0225
 IR Inten    --     49.2779                 1.7012                 3.5324

                     46                     47                     48
                      A                      A                      A
 Frequencies --   1077.7035              1091.0498              1123.3567
 Red. masses --      1.5201                 2.6752                 2.2890
 Frc consts  --      1.0402                 1.8763                 1.7019
 IR Inten    --      6.1462                 7.0213                59.6864

                     49                     50                     51
                      A                      A                      A
 Frequencies --   1173.1448              1190.8786              1216.6801
 Red. masses --      1.7080                 1.7203                 2.5531
 Frc consts  --      1.3850                 1.4374                 2.2268
 IR Inten    --     52.4119               212.4822                12.2960

                     52                     53                     54
                      A                      A                      A
 Frequencies --   1245.4328              1263.1546              1291.0075
 Red. masses --      1.7979                 1.9298                 3.0071
 Frc consts  --      1.6431                 1.8142                 2.9529
 IR Inten    --      1.9248                16.9186                 0.1518

                     55                     56                     57
                      A                      A                      A
 Frequencies --   1322.4976              1342.3447              1346.6546
 Red. masses --      1.7200                 2.4925                 3.0396
 Frc consts  --      1.7724                 2.6462                 3.2478
 IR Inten    --      2.3995                29.4236                 5.4735

                     58                     59                     60
                      A                      A                      A
 Frequencies --   1392.0091              1423.3128              1443.2847
 Red. masses --      2.1675                 3.1315                 1.7363
 Frc consts  --      2.4746                 3.7377                 2.1309
 IR Inten    --     15.1588                76.3934                 1.2858

                     61                     62                     63
                      A                      A                      A
 Frequencies --   1445.4298              1449.3777              1514.5511
 Red. masses --      1.4874                 1.4010                 1.0588
 Frc consts  --      1.8310                 1.7340                 1.4309
 IR Inten    --      0.6662                 0.9563                 4.6068

                     64                     65                     66
                      A                      A                      A
 Frequencies --   1515.2681              1518.7776              1528.7415
 Red. masses --      1.0505                 1.0927                 1.1814
 Frc consts  --      1.4211                 1.4850                 1.6267
 IR Inten    --     11.8104                 1.6300                 7.2167

                     67                     68                     69
                      A                      A                      A
 Frequencies --   1539.9936              1557.1718              1628.1234
 Red. masses --      3.6264                 2.8918                 5.4581
 Frc consts  --      5.0672                 4.1313                 8.5245
 IR Inten    --    159.0130                28.4875                 2.1980

                     70                     71                     72
                      A                      A                      A
 Frequencies --   1650.6048              1665.7145              1677.3904
 Red. masses --      4.0108                 7.6945                 6.5962
 Frc consts  --      6.4382                12.5786                10.9348
 IR Inten    --    104.5083                16.3394                13.4540

                     73                     74                     75
                      A                      A                      A
 Frequencies --   1735.0213              1851.0531              3046.8495
 Red. masses --      9.4074                10.3500                 1.0374
 Frc consts  --     16.6851                20.8943                 5.6743
 IR Inten    --    516.3373               269.6847                31.7620

                     76                     77                     78
                      A                      A                      A
 Frequencies --   3053.1814              3100.6844              3110.1993
 Red. masses --      1.0409                 1.1005                 1.0962
 Frc consts  --      5.7170                 6.2341                 6.2475
 IR Inten    --     17.5475                16.9553                18.2186

                     79                     80                     81
                      A                      A                      A
 Frequencies --   3128.1701              3142.0416              3177.3247
 Red. masses --      1.1015                 1.1020                 1.0892
 Frc consts  --      6.3506                 6.4099                 6.4783
 IR Inten    --     14.9512                13.2556                16.2347

                     82                     83                     84
                      A                      A                      A
 Frequencies --   3177.6372              3195.0298              3245.6975
 Red. masses --      1.0874                 1.0946                 1.0913
 Frc consts  --      6.4694                 6.5833                 6.7735
 IR Inten    --      5.8230                25.2025                 1.8256

                     85                     86                     87
                      A                      A                      A
 Frequencies --   3252.1396              3633.3486              3704.3554
 Red. masses --      1.0920                 1.0778                 1.0645
 Frc consts  --      6.8047                 8.3832                 8.6066
 IR Inten    --      0.8128                97.8671                97.4909

 - Thermochemistry -
 -------------------
 Temperature   298.150 Kelvin.  Pressure   1.00000 Atm.
 Atom     1 has atomic number  6 and mass  12.00000

 Molecular mass:   243.08954 amu.
 Principal axes and moments of inertia in atomic units:
                           1         2         3
     Eigenvalues --  2943.341486727.767428797.34798
           X            0.99996  -0.00816  -0.00237
           Y            0.00823   0.99944   0.03253
           Z            0.00210  -0.03254   0.99947
 This molecule is an asymmetric top.
 Rotational symmetry number  1.
 Warning -- assumption of classical behavior for rotation
           may cause significant error
 Rotational temperatures (Kelvin)      0.02943     0.01287     0.00985
 Rotational constants (GHZ):           0.61316     0.26825     0.20515
 Zero-point vibrational energy     643768.8 (Joules/Mol)
                                  153.86444 (Kcal/Mol)
 Warning -- explicit consideration of  25 degrees of freedom as
           vibrations may cause significant error
 Vibrational temperatures:     40.65    46.01    80.74   101.49   111.59
          (Kelvin)            183.93   211.87   244.62   246.35   262.73
                              344.91   364.33   399.34   464.48   485.64
                              551.79   627.41   636.97   676.61   680.82
                              691.54   753.84   790.16   821.56   881.03
                              900.93   925.42   950.76   992.20  1046.58
                             1073.50  1092.43  1115.42  1173.35  1204.06
                             1279.41  1307.18  1320.58  1327.92  1366.32
                             1392.91  1466.17  1487.65  1503.33  1542.03
                             1550.58  1569.78  1616.26  1687.89  1713.41
                             1750.53  1791.90  1817.40  1857.47  1902.78
                             1931.33  1937.54  2002.79  2047.83  2076.56
                             2079.65  2085.33  2179.10  2180.13  2185.18
                             2199.52  2215.71  2240.42  2342.51  2374.85
                             2396.59  2413.39  2496.31  2663.25  4383.74
                             4392.85  4461.19  4474.88  4500.74  4520.70
                             4571.46  4571.91  4596.94  4669.83  4679.10
                             5227.58  5329.74

 Zero-point correction=                           0.245199 (Hartree/Particle)
 Thermal correction to Energy=                    0.261578
 Thermal correction to Enthalpy=                  0.262522
 Thermal correction to Gibbs Free Energy=         0.199735
 Sum of electronic and zero-point Energies=           -821.585198
 Sum of electronic and thermal Energies=              -821.568818
 Sum of electronic and thermal Enthalpies=            -821.567874
 Sum of electronic and thermal Free Energies=         -821.630661

                     E (Thermal)             CV                S
                      KCal/Mol        Cal/Mol-Kelvin    Cal/Mol-Kelvin
 Total                  164.143             61.835            132.147
 Electronic               0.000              0.000              0.000
 Translational            0.889              2.981             42.366
 Rotational               0.889              2.981             33.521
 Vibrational            162.365             55.873             56.260
 Vibration     1          0.593              1.984              5.948
 Vibration     2          0.594              1.983              5.703
 Vibration     3          0.596              1.975              4.589
 Vibration     4          0.598              1.968              4.138
 Vibration     5          0.599              1.964              3.952
 Vibration     6          0.611              1.925              2.978
 Vibration     7          0.617              1.906              2.707
 Vibration     8          0.625              1.879              2.435
 Vibration     9          0.626              1.878              2.422
 Vibration    10          0.630              1.863              2.302
 Vibration    11          0.657              1.780              1.805
 Vibration    12          0.664              1.757              1.708
 Vibration    13          0.679              1.715              1.549
 Vibration    14          0.708              1.630              1.296
 Vibration    15          0.718              1.601              1.224
 Vibration    16          0.753              1.505              1.025
 Vibration    17          0.797              1.392              0.839
 Vibration    18          0.802              1.377              0.818
 Vibration    19          0.827              1.316              0.737
 Vibration    20          0.830              1.310              0.729
 Vibration    21          0.837              1.293              0.708
 Vibration    22          0.879              1.197              0.601
 Vibration    23          0.904              1.141              0.546
 Vibration    24          0.927              1.094              0.502
 Vibration    25          0.972              1.006              0.429

 Optimization completed.
    -- Stationary point found.
 Normal termination of Gaussian 16 at Fri Dec 11 19:11:00 2020.

 ----------------------------------------------------------------------
 # B3LYP/6-311++G(d,p) empiricaldispersion=gd3bj scf=xqc pop=npa geom=c
 heck
 ----------------------------------------------------------------------

 --------------------------------------
 CID_83543274_JID_8086_Energie_neutraal
 --------------------------------------
 Structure from the checkpoint file:  "JID_8086.chk"
 Charge =  0 Multiplicity = 1

 SCF Done:  E(RB3LYP) =  -822.064544431     A.U. after   19 cycles
 Normal termination of Gaussian 16 at Fri Dec 11 19:18:11 2020.

 ----------------------------------------------------------------------
 # B3LYP/6-311++G(d,p) empiricaldispersion=gd3bj scf=xqc pop=npa geom=c
 heck
 ----------------------------------------------------------------------

 ------------------------------------
 CID_83543274_JID_8086_Energie_kation
 ------------------------------------
 Structure from the checkpoint file:  "JID_8086.chk"
 Charge =  1 Multiplicity = 2

 SCF Done:  E(UB3LYP) =  -821.766284430     A.U. after   33 cycles
 SCF Done:  E(UB3LYP) =  -821.766284430     a.u. after    1 cycles
 Normal termination of Gaussian 16 at Fri Dec 11 19:36:14 2020.
 Gaussian 16:  ES64L-G16RevA.03 25-Dec-2016

 ----------------------------------------------------------------------
 # B3LYP/6-311++G(d,p) empiricaldispersion=gd3bj scf=xqc pop=npa geom=c
 heck
 ----------------------------------------------------------------------

 -----------------------------------
 CID_83543274_JID_8086_Energie_anion
 -----------------------------------
 Structure from the checkpoint file:  "JID_8086.chk"
 Charge = -1 Multiplicity = 2

                         Standard orientation:
 ---------------------------------------------------------------------
 Center     Atomic      Atomic             Coordinates (Angstroms)
 Number     Number       Type             X           Y           Z
 ---------------------------------------------------------------------
      1          6           0        3.735645   -2.444522   -1.132547
      2          6           0        3.193745   -1.187835   -0.497485
      3          6           0        1.840132   -0.863375   -0.571847
      4          6           0        1.320289    0.315512   -0.009990
      5          6           0        2.176002    1.207257    0.667543
      6          6           0        3.533235    0.867958    0.744436
      7          6           0        4.037415   -0.296818    0.176575
      8          6           0        1.696086    2.479048    1.325253
      9          6           0       -0.136123    0.559543   -0.140936
     10          6           0       -0.705450    1.721701   -0.576084
     11          6           0       -2.150708    1.893421   -0.713627
     12          8           0       -2.677978    2.940587   -1.099282
     13          6           0       -2.925544    0.698596   -0.359261
     14          6           0       -2.312546   -0.437874    0.064588
     15          7           0       -0.943557   -0.511928    0.170443
     16          6           0       -3.092296   -1.647549    0.433564
     17          8           0       -4.296605   -1.743278    0.396167
     18          8           0       -2.278885   -2.665568    0.831542
     19          1           0        4.328188   -3.028524   -0.418729
     20          1           0        2.929612   -3.084171   -1.504706
     21          1           0        4.391488   -2.209784   -1.980047
     22          1           0        1.168199   -1.527875   -1.110217
     23          1           0        4.206942    1.535602    1.275515
     24          1           0        5.098253   -0.520217    0.260946
     25          1           0        1.659289    3.313637    0.614491
     26          1           0        0.690617    2.373602    1.741100
     27          1           0        2.376942    2.769643    2.131157
     28          1           0       -0.076867    2.556936   -0.857837
     29          1           0       -4.005311    0.725379   -0.438988
     30          1           0       -0.530221   -1.353357    0.547103
     31          1           0       -2.863777   -3.411685    1.058609
 ---------------------------------------------------------------------

 SCF Done:  E(UB3LYP) =  -822.084999281     A.U. after   33 cycles
 SCF Done:  E(UB3LYP) =  -822.084999281     a.u. after    1 cycles

 The electronic state is 2-A.
 Alpha  occ. eigenvalues --  -19.02883 -18.94433 -18.91572 -14.22625 -10.12695
 Alpha  occ. eigenvalues --  -10.10150 -10.09852 -10.09606 -10.09523 -10.09371
 Alpha  occ. eigenvalues --  -10.08794 -10.08692 -10.08332 -10.07843 -10.07551
 Alpha  occ. eigenvalues --  -10.05879 -10.02530  -9.99732  -0.96171  -0.86585
 Alpha  occ. eigenvalues --   -0.85376  -0.84151  -0.77709  -0.70846  -0.68012
 Alpha  occ. eigenvalues --   -0.64104  -0.63609  -0.62747  -0.57467  -0.53745
 Alpha  occ. eigenvalues --   -0.52525  -0.50358  -0.46664  -0.45518  -0.42677
 Alpha  occ. eigenvalues --   -0.40161  -0.39481  -0.37056  -0.35913  -0.34789
 Alpha  occ. eigenvalues --   -0.33967  -0.33121  -0.32938  -0.32421  -0.32140
 Alpha  occ. eigenvalues --   -0.31613  -0.31557  -0.29280  -0.28874  -0.27750
 Alpha  occ. eigenvalues --   -0.26425  -0.26177  -0.25847  -0.25745  -0.23759
 Alpha  occ. eigenvalues --   -0.22631  -0.21785  -0.19017  -0.17526  -0.15625
 Alpha  occ. eigenvalues --   -0.13340  -0.12789  -0.08343  -0.08200   0.04105
 Alpha virt. eigenvalues --    0.05705   0.05913   0.06964   0.07049   0.08324
 Alpha virt. eigenvalues --    0.08958   0.09676   0.10335   0.10818   0.11398
 Alpha virt. eigenvalues --    0.11911   0.12884   0.13056   0.13088   0.14027

  Beta  occ. eigenvalues --  -19.02788 -18.94041 -18.91435 -14.22551 -10.12326
  Beta  occ. eigenvalues --  -10.10217 -10.09850 -10.09617 -10.09521 -10.09354
  Beta  occ. eigenvalues --  -10.08790 -10.08667 -10.08319 -10.07822 -10.07550
  Beta  occ. eigenvalues --  -10.05667 -10.02385  -9.99377  -0.95776  -0.85981
  Beta  occ. eigenvalues --   -0.85141  -0.83963  -0.77678  -0.70823  -0.67897
  Beta  occ. eigenvalues --   -0.64011  -0.63412  -0.62222  -0.57431  -0.53351
  Beta  occ. eigenvalues --   -0.52048  -0.50258  -0.46533  -0.45204  -0.42554
  Beta  occ. eigenvalues --   -0.40099  -0.39408  -0.36844  -0.35759  -0.34767
  Beta  occ. eigenvalues --   -0.33727  -0.32976  -0.32858  -0.32253  -0.32008
  Beta  occ. eigenvalues --   -0.31550  -0.30151  -0.29195  -0.28718  -0.27265
  Beta  occ. eigenvalues --   -0.26197  -0.26014  -0.25720  -0.25556  -0.23566
  Beta  occ. eigenvalues --   -0.22417  -0.21034  -0.17673  -0.16968  -0.15500
  Beta  occ. eigenvalues --   -0.12932  -0.11628  -0.07973  -0.06770
  Beta virt. eigenvalues --    0.05644   0.06148   0.06924   0.07084   0.08272
  Beta virt. eigenvalues --    0.08925   0.09632   0.10259   0.10626   0.11020
  Beta virt. eigenvalues --    0.11358   0.11908   0.13022   0.13041   0.13151

 Mulliken charges and spin densities:
               1          2
     1  C   -0.411499  -0.093768
     2  C    0.781419   0.096681
     3  C   -0.671404  -0.211884
     4  C    0.025615   0.043489
     5  C    0.382684   0.090167
     6  C   -0.282168  -0.095395
     7  C   -0.542273   0.162951
     8  C   -0.545047  -0.001345
     9  C   -0.473782  -0.068602
    10  C    0.541572   0.121015
    11  C   -1.214949   0.032007
    12  O   -0.428675   0.047918
    13  C    0.480609   0.324395
    14  C   -0.170485   0.107715
    15  N    0.092950   0.032176
    16  C   -0.089670   0.226440
    17  O   -0.442733   0.138133
    18  O   -0.272241   0.021363
    19  H    0.123748   0.012289
    20  H    0.142595   0.012215
    21  H    0.139504   0.011321
    22  H    0.198159  -0.010171
    23  H    0.129603  -0.000191
    24  H    0.114976   0.013903
    25  H    0.166317   0.000797
    26  H    0.188842   0.000605
    27  H    0.113038   0.002119
    28  H    0.160176  -0.003028
    29  H    0.210438  -0.018463
    30  H    0.269185   0.006172
    31  H    0.283495  -0.001025
 Sum of Mulliken charges =  -1.00000   1.00000

 Dipole moment (field-independent basis, Debye):
    X=             13.1449    Y=             -4.5810    Z=              2.3275  Tot=             14.1135
 Quadrupole moment (field-independent basis, Debye-Ang):
   XX=           -168.6973   YY=           -131.5387   ZZ=           -115.7445
   XY=              8.9109   XZ=             -4.8511   YZ=              9.8731

 Summary of Natural Population Analysis:

                                       Natural Population
                Natural  -----------------------------------------------
    Atom  No    Charge         Core      Valence    Rydberg      Total
 -----------------------------------------------------------------------
      C    1   -0.29116      0.99964     2.28706    0.00446     3.29116
      C    2   -0.02158      0.99951     2.01409    0.00798     3.02158
      C    3   -0.09353      0.99949     2.08581    0.00824     3.09353
      C    4   -0.02028      0.99945     2.01078    0.01005     3.02028
      C    5   -0.01113      0.99948     2.00381    0.00783     3.01113
      C    6   -0.09276      0.99953     2.08480    0.00843     3.09276
      C    7   -0.10617      0.99952     2.09818    0.00847     3.10617
      C    8   -0.29505      0.99964     2.29086    0.00455     3.29505
      C    9    0.07503      0.99949     1.91375    0.01173     2.92497
      C   10   -0.12686      0.99948     2.11749    0.00989     3.12686
      C   11    0.22215      0.99959     1.75776    0.02050     2.77785
      O   12   -0.32744      0.99988     3.32021    0.00735     4.32744
      C   13   -0.05735      0.99950     2.04887    0.00898     3.05735
      C   14    0.07497      0.99946     1.91410    0.01148     2.92503
      N   15   -0.26256      0.99963     2.75359    0.00934     3.76256
      C   16    0.43176      0.99968     1.54474    0.02382     2.56824
      O   17   -0.28543      0.99987     3.27788    0.00768     4.28543
      O   18   -0.36605      0.99988     3.36032    0.00585     4.36605
      H   19    0.10022      0.00000     0.39887    0.00091     0.39978
      H   20    0.10237      0.00000     0.39686    0.00077     0.39763
      H   21    0.10110      0.00000     0.39783    0.00106     0.39890
      H   22    0.10339      0.00000     0.39519    0.00143     0.39661
      H   23    0.09432      0.00000     0.40433    0.00135     0.40568
      H   24    0.09402      0.00000     0.40465    0.00132     0.40598
      H   25    0.10593      0.00000     0.39319    0.00088     0.39407
      H   26    0.11506      0.00000     0.38411    0.00084     0.38494
      H   27    0.09533      0.00000     0.40377    0.00090     0.40467
      H   28    0.09741      0.00000     0.40078    0.00181     0.40259
      H   29    0.10688      0.00000     0.39199    0.00113     0.39312
      H   30    0.20366      0.00000     0.29429    0.00205     0.29634
      H   31    0.23376      0.00000     0.26299    0.00324     0.26624
 =======================================================================
   * Total *    0.00000     17.99271    45.81295    0.19433    64.00000

 Normal termination of Gaussian 16 at Fri Dec 11 19:55:30 2020.
