 Gaussian 16, Revision A.03,

 -----------------------------------------------------------
 # opt freq B3LYP/6-31G(d) empiricaldispersion=gd3bj scf=xqc
 -----------------------------------------------------------

 -------------------------------
 CID_123889095_JID_1286_neutraal
 -------------------------------
 Symbolic Z-matrix:
 Charge =  0 Multiplicity = 1

 SCF Done:  E(RB3LYP) =  -484.394165530     A.U. after   14 cycles
 SCF Done:  E(RB3LYP) =  -484.396246791     A.U. after   13 cycles
 SCF Done:  E(RB3LYP) =  -484.396015983     A.U. after   14 cycles
 SCF Done:  E(RB3LYP) =  -484.397747690     A.U. after   13 cycles
 SCF Done:  E(RB3LYP) =  -484.395083380     A.U. after   13 cycles
 SCF Done:  E(RB3LYP) =  -484.397566878     A.U. after   13 cycles
 SCF Done:  E(RB3LYP) =  -484.398382089     A.U. after   10 cycles
 SCF Done:  E(RB3LYP) =  -484.398565705     A.U. after   13 cycles
 SCF Done:  E(RB3LYP) =  -484.398554789     A.U. after   12 cycles
 SCF Done:  E(RB3LYP) =  -484.398624686     A.U. after   11 cycles
 SCF Done:  E(RB3LYP) =  -484.398630727     A.U. after   10 cycles
 SCF Done:  E(RB3LYP) =  -484.398633761     A.U. after    9 cycles
 SCF Done:  E(RB3LYP) =  -484.398634054     A.U. after    8 cycles
 SCF Done:  E(RB3LYP) =  -484.398634057     A.U. after    6 cycles
 Optimization completed.
    -- Stationary point found.
 Normal termination of Gaussian 16 at Tue Dec  8 19:41:05 2020.

 --------------------------------------------------------------------
 #N Geom=AllCheck Guess=TCheck SCRF=Check GenChk RB3LYP/6-31G(d) Freq
 --------------------------------------------------------------------

 Structure from the checkpoint file:  "JID_1286.chk"
 -------------------------------
 CID_123889095_JID_1286_neutraal
 -------------------------------
 Charge =  0 Multiplicity = 1

 SCF Done:  E(RB3LYP) =  -484.398634057     A.U. after    1 cycles

  Exact polarizability: 118.787  -2.507  99.094   2.951  -2.122  94.775
 Approx polarizability: 151.160   0.616 141.828   9.376  -0.686 140.248

                      1                      2                      3
                      A                      A                      A
 Frequencies --     49.5808                69.5606                96.9613
 Red. masses --      2.8972                 3.7300                 2.6888
 Frc consts  --      0.0042                 0.0106                 0.0149
 IR Inten    --      0.2245                 2.2651                 0.0844

                      4                      5                      6
                      A                      A                      A
 Frequencies --    119.2377               136.7537               168.0352
 Red. masses --      2.0455                 3.0949                 2.4591
 Frc consts  --      0.0171                 0.0341                 0.0409
 IR Inten    --      0.2917                 2.4054                 2.3107

                      7                      8                      9
                      A                      A                      A
 Frequencies --    202.2011               210.8915               226.6660
 Red. masses --      2.5312                 1.1385                 1.1754
 Frc consts  --      0.0610                 0.0298                 0.0356
 IR Inten    --      4.9730                 0.7498                 0.4509

                     10                     11                     12
                      A                      A                      A
 Frequencies --    250.1816               258.1554               275.2691
 Red. masses --      1.8049                 1.3519                 1.6088
 Frc consts  --      0.0666                 0.0531                 0.0718
 IR Inten    --      0.6523                 1.3731                 0.8545

                     13                     14                     15
                      A                      A                      A
 Frequencies --    299.0544               317.9520               341.4269
 Red. masses --      2.4117                 2.2197                 2.6987
 Frc consts  --      0.1271                 0.1322                 0.1854
 IR Inten    --      0.1837                 1.7155                 0.3492

                     16                     17                     18
                      A                      A                      A
 Frequencies --    376.4035               428.4980               461.8989
 Red. masses --      2.8827                 2.4737                 2.5065
 Frc consts  --      0.2406                 0.2676                 0.3151
 IR Inten    --      1.8348                 2.1707                 1.2051

                     19                     20                     21
                      A                      A                      A
 Frequencies --    487.5689               534.1956               710.2525
 Red. masses --      2.5118                 2.5126                 3.7718
 Frc consts  --      0.3518                 0.4225                 1.1211
 IR Inten    --      7.7979                 1.3806                25.2494

                     22                     23                     24
                      A                      A                      A
 Frequencies --    770.9810               798.3091               814.6342
 Red. masses --      1.7593                 1.2417                 1.4500
 Frc consts  --      0.6161                 0.4662                 0.5669
 IR Inten    --      4.3125                 4.5294                 2.8266

                     25                     26                     27
                      A                      A                      A
 Frequencies --    843.8443               883.4258               942.0045
 Red. masses --      2.5611                 2.0809                 2.6348
 Frc consts  --      1.0745                 0.9568                 1.3775
 IR Inten    --      6.4765                11.7262                 0.7163

                     28                     29                     30
                      A                      A                      A
 Frequencies --    976.2922               995.1238              1002.5042
 Red. masses --      1.3206                 2.5257                 1.4199
 Frc consts  --      0.7416                 1.4736                 0.8408
 IR Inten    --      0.7303                 7.4479                14.4752

                     31                     32                     33
                      A                      A                      A
 Frequencies --   1025.3471              1057.2474              1093.1237
 Red. masses --      1.6450                 2.5805                 1.9485
 Frc consts  --      1.0190                 1.6995                 1.3718
 IR Inten    --      1.6823                 4.4515                 7.6428

                     34                     35                     36
                      A                      A                      A
 Frequencies --   1112.1940              1120.2538              1151.4451
 Red. masses --      2.2201                 1.5520                 2.2465
 Frc consts  --      1.6180                 1.1476                 1.7548
 IR Inten    --     41.7055                14.0390                15.3763

                     37                     38                     39
                      A                      A                      A
 Frequencies --   1163.8164              1174.6373              1190.1436
 Red. masses --      1.5140                 1.8561                 1.7477
 Frc consts  --      1.2082                 1.5089                 1.4585
 IR Inten    --      5.3842                 2.7259                 1.9614

                     40                     41                     42
                      A                      A                      A
 Frequencies --   1243.4906              1277.7088              1317.4413
 Red. masses --      2.1399                 1.6553                 2.0454
 Frc consts  --      1.9495                 1.5922                 2.0916
 IR Inten    --     14.8104                12.0776                21.2621

                     43                     44                     45
                      A                      A                      A
 Frequencies --   1323.4789              1353.2960              1388.8814
 Red. masses --      1.2504                 1.2700                 1.2843
 Frc consts  --      1.2904                 1.3704                 1.4597
 IR Inten    --      1.0012                 6.4916                 2.4230

                     46                     47                     48
                      A                      A                      A
 Frequencies --   1391.7812              1401.7937              1405.6446
 Red. masses --      1.3103                 1.4084                 1.4191
 Frc consts  --      1.4955                 1.6306                 1.6520
 IR Inten    --      0.8520                 2.5193                 5.7320

                     49                     50                     51
                      A                      A                      A
 Frequencies --   1414.5554              1437.5485              1439.0107
 Red. masses --      1.2608                 1.2584                 1.2232
 Frc consts  --      1.4865                 1.5322                 1.4924
 IR Inten    --     11.1611                 7.5920                10.4606

                     52                     53                     54
                      A                      A                      A
 Frequencies --   1443.0019              1443.6674              1484.0729
 Red. masses --      1.2415                 1.2348                 1.1562
 Frc consts  --      1.5231                 1.5162                 1.5004
 IR Inten    --      7.3418                15.4308                 1.3337

                     55                     56                     57
                      A                      A                      A
 Frequencies --   1509.7305              1512.6464              1515.3796
 Red. masses --      1.0562                 1.0470                 1.0587
 Frc consts  --      1.4184                 1.4115                 1.4324
 IR Inten    --      7.9482                 3.4392                 2.9581

                     58                     59                     60
                      A                      A                      A
 Frequencies --   1522.7481              1524.2138              1531.7924
 Red. masses --      1.0527                 1.0448                 1.0818
 Frc consts  --      1.4382                 1.4302                 1.4955
 IR Inten    --      4.8968                 1.7226                 5.8812

                     61                     62                     63
                      A                      A                      A
 Frequencies --   1532.4223              1538.6926              1543.9072
 Red. masses --      1.0550                 1.0600                 1.0498
 Frc consts  --      1.4597                 1.4786                 1.4744
 IR Inten    --      6.9963                 5.4130                 2.3618

                     64                     65                     66
                      A                      A                      A
 Frequencies --   1557.7846              1826.0986              2882.4009
 Red. masses --      1.0526                 9.8438                 1.0824
 Frc consts  --      1.5050                19.3401                 5.2982
 IR Inten    --      7.5746               128.4686               136.7064

                     67                     68                     69
                      A                      A                      A
 Frequencies --   2947.7534              3011.6508              3025.0241
 Red. masses --      1.0813                 1.0403                 1.0663
 Frc consts  --      5.5359                 5.5595                 5.7488
 IR Inten    --     50.1118                61.6319                22.6964

                     70                     71                     72
                      A                      A                      A
 Frequencies --   3039.4300              3043.6085              3049.9968
 Red. masses --      1.0690                 1.0681                 1.0431
 Frc consts  --      5.8184                 5.8298                 5.7172
 IR Inten    --     10.9609                33.2238                23.1053

                     73                     74                     75
                      A                      A                      A
 Frequencies --   3051.1590              3053.4625              3067.7005
 Red. masses --      1.0470                 1.0444                 1.0950
 Frc consts  --      5.7427                 5.7374                 6.0713
 IR Inten    --     33.1598                37.1419                39.4693

                     76                     77                     78
                      A                      A                      A
 Frequencies --   3072.6499              3084.9541              3102.3778
 Red. masses --      1.0975                 1.0969                 1.1025
 Frc consts  --      6.1050                 6.1507                 6.2517
 IR Inten    --     29.1391                28.0595                37.8424

                     79                     80                     81
                      A                      A                      A
 Frequencies --   3113.5745              3118.9374              3126.3190
 Red. masses --      1.1010                 1.0955                 1.0937
 Frc consts  --      6.2888                 6.2789                 6.2981
 IR Inten    --     37.3534                35.0803                36.6478

                     82                     83                     84
                      A                      A                      A
 Frequencies --   3130.3180              3151.5918              3153.5190
 Red. masses --      1.1002                 1.1029                 1.1005
 Frc consts  --      6.3518                 6.4541                 6.4483
 IR Inten    --     39.7625                38.4433                11.2534

 - Thermochemistry -
 -------------------
 Temperature   298.150 Kelvin.  Pressure   1.00000 Atm.
 Atom     1 has atomic number  6 and mass  12.00000

 Molecular mass:   157.14666 amu.
 Principal axes and moments of inertia in atomic units:
                           1         2         3
     Eigenvalues --  1203.436232547.237552838.60149
           X            0.99990  -0.01432   0.00001
           Y            0.01431   0.99944  -0.03030
           Z            0.00043   0.03030   0.99954
 This molecule is an asymmetric top.
 Rotational symmetry number  1.
 Warning -- assumption of classical behavior for rotation
           may cause significant error
 Rotational temperatures (Kelvin)      0.07197     0.03400     0.03051
 Rotational constants (GHZ):           1.49966     0.70851     0.63579
 Zero-point vibrational energy     719214.6 (Joules/Mol)
                                  171.89641 (Kcal/Mol)
 Warning -- explicit consideration of  20 degrees of freedom as
           vibrations may cause significant error
 Vibrational temperatures:     71.34   100.08   139.51   171.56   196.76
          (Kelvin)            241.77   290.92   303.43   326.12   359.96
                              371.43   396.05   430.27   457.46   491.24
                              541.56   616.51   664.57   701.50   768.59
                             1021.89  1109.27  1148.59  1172.08  1214.10
                             1271.05  1355.33  1404.67  1431.76  1442.38
                             1475.25  1521.14  1572.76  1600.20  1611.80
                             1656.67  1674.47  1690.04  1712.35  1789.11
                             1838.34  1895.50  1904.19  1947.09  1998.29
                             2002.46  2016.87  2022.41  2035.23  2068.31
                             2070.42  2076.16  2077.12  2135.25  2172.17
                             2176.36  2180.29  2190.89  2193.00  2203.91
                             2204.81  2213.84  2221.34  2241.30  2627.35
                             4147.13  4241.16  4333.09  4352.33  4373.06
                             4379.07  4388.27  4389.94  4393.25  4413.74
                             4420.86  4438.56  4463.63  4479.74  4487.46
                             4498.08  4503.83  4534.44  4537.21

 Zero-point correction=                           0.273934 (Hartree/Particle)
 Thermal correction to Energy=                    0.287656
 Thermal correction to Enthalpy=                  0.288600
 Thermal correction to Gibbs Free Energy=         0.234410
 Sum of electronic and zero-point Energies=           -484.124700
 Sum of electronic and thermal Energies=              -484.110978
 Sum of electronic and thermal Enthalpies=            -484.110034
 Sum of electronic and thermal Free Energies=         -484.164224

                     E (Thermal)             CV                S
                      KCal/Mol        Cal/Mol-Kelvin    Cal/Mol-Kelvin
 Total                  180.507             50.213            114.053
 Electronic               0.000              0.000              0.000
 Translational            0.889              2.981             41.065
 Rotational               0.889              2.981             30.543
 Vibrational            178.730             44.251             42.445
 Vibration     1          0.595              1.978              4.834
 Vibration     2          0.598              1.969              4.166
 Vibration     3          0.603              1.951              3.514
 Vibration     4          0.609              1.933              3.113
 Vibration     5          0.614              1.917              2.849
 Vibration     6          0.625              1.882              2.457
 Vibration     7          0.639              1.837              2.113
 Vibration     8          0.643              1.824              2.036
 Vibration     9          0.650              1.800              1.905
 Vibration    10          0.663              1.762              1.729
 Vibration    11          0.667              1.749              1.674
 Vibration    12          0.677              1.719              1.563
 Vibration    13          0.692              1.675              1.422
 Vibration    14          0.704              1.639              1.321
 Vibration    15          0.721              1.593              1.205
 Vibration    16          0.747              1.520              1.054
 Vibration    17          0.790              1.408              0.864
 Vibration    18          0.820              1.335              0.761
 Vibration    19          0.844              1.278              0.690
 Vibration    20          0.889              1.174              0.578

 Optimization completed.
    -- Stationary point found.
 Normal termination of Gaussian 16 at Tue Dec  8 19:48:30 2020.

 ----------------------------------------------------------------------
 # B3LYP/6-311++G(d,p) empiricaldispersion=gd3bj scf=xqc pop=npa geom=c
 heck
 ----------------------------------------------------------------------

 ---------------------------------------
 CID_123889095_JID_1286_Energie_neutraal
 ---------------------------------------
 Structure from the checkpoint file:  "JID_1286.chk"
 Charge =  0 Multiplicity = 1

 SCF Done:  E(RB3LYP) =  -484.538561107     A.U. after   15 cycles
 Normal termination of Gaussian 16 at Tue Dec  8 19:52:37 2020.

 ----------------------------------------------------------------------
 # B3LYP/6-311++G(d,p) empiricaldispersion=gd3bj scf=xqc pop=npa geom=c
 heck
 ----------------------------------------------------------------------

 -------------------------------------
 CID_123889095_JID_1286_Energie_kation
 -------------------------------------
 Structure from the checkpoint file:  "JID_1286.chk"
 Charge =  1 Multiplicity = 2

 SCF Done:  E(UB3LYP) =  -484.258590282     A.U. after   21 cycles
 Normal termination of Gaussian 16 at Tue Dec  8 20:00:06 2020.
 Gaussian 16:  ES64L-G16RevA.03 25-Dec-2016

 ----------------------------------------------------------------------
 # B3LYP/6-311++G(d,p) empiricaldispersion=gd3bj scf=xqc pop=npa geom=c
 heck
 ----------------------------------------------------------------------

 ------------------------------------
 CID_123889095_JID_1286_Energie_anion
 ------------------------------------
 Structure from the checkpoint file:  "JID_1286.chk"
 Charge = -1 Multiplicity = 2

                         Standard orientation:
 ---------------------------------------------------------------------
 Center     Atomic      Atomic             Coordinates (Angstroms)
 Number     Number       Type             X           Y           Z
 ---------------------------------------------------------------------
      1          6           0       -3.645269    0.133663    0.602612
      2          6           0       -2.363483    0.669557   -0.042591
      3          6           0       -1.182850   -0.321022    0.008028
      4          6           0       -1.548636   -1.675662   -0.613883
      5          6           0        0.087449    0.239996   -0.692889
      6          6           0        0.345787    1.706154   -0.337007
      7          8           0        1.278501    2.126091    0.312947
      8          7           0        1.235365   -0.645499   -0.582747
      9          6           0        2.387618   -0.220726   -1.361543
     10          6           0        1.568765   -1.264046    0.699377
     11          6           0        2.080341   -0.365279    1.833453
     12          1           0       -4.057791   -0.716349    0.050623
     13          1           0       -4.414986    0.912151    0.635304
     14          1           0       -3.459159   -0.194442    1.632671
     15          1           0       -2.566962    0.942478   -1.088354
     16          1           0       -2.085171    1.597888    0.470670
     17          1           0       -0.939406   -0.468808    1.068347
     18          1           0       -1.976851   -1.529022   -1.614078
     19          1           0       -0.664020   -2.306744   -0.723335
     20          1           0       -2.285639   -2.210319   -0.007680
     21          1           0       -0.166361    0.288200   -1.768812
     22          1           0       -0.380603    2.418812   -0.790958
     23          1           0        2.924824    0.644523   -0.945081
     24          1           0        3.091364   -1.056827   -1.445008
     25          1           0        2.060000    0.042254   -2.375197
     26          1           0        0.696611   -1.825381    1.051624
     27          1           0        2.333326   -2.018888    0.474022
     28          1           0        1.317522    0.344096    2.164116
     29          1           0        2.368275   -0.988195    2.689767
     30          1           0        2.951142    0.218540    1.523671
 ---------------------------------------------------------------------

 SCF Done:  E(UB3LYP) =  -484.524480045     A.U. after   33 cycles
 SCF Done:  E(UB3LYP) =  -484.524480045     a.u. after    1 cycles

 The electronic state is 2-A.
 Alpha  occ. eigenvalues --  -18.99400 -14.19509 -10.12418 -10.09533 -10.08524
 Alpha  occ. eigenvalues --  -10.07857 -10.07115 -10.05833 -10.04998 -10.04601
 Alpha  occ. eigenvalues --  -10.04538  -0.92629  -0.81471  -0.70586  -0.64650
 Alpha  occ. eigenvalues --   -0.62821  -0.59586  -0.55953  -0.52952  -0.49473
 Alpha  occ. eigenvalues --   -0.46898  -0.42479  -0.38537  -0.37510  -0.36535
 Alpha  occ. eigenvalues --   -0.34742  -0.33068  -0.32042  -0.30992  -0.30305
 Alpha  occ. eigenvalues --   -0.29531  -0.28790  -0.27821  -0.27239  -0.26842
 Alpha  occ. eigenvalues --   -0.25924  -0.25365  -0.24471  -0.23145  -0.22262
 Alpha  occ. eigenvalues --   -0.21704  -0.21096  -0.14638  -0.09490   0.04847
 Alpha virt. eigenvalues --    0.06998   0.07347   0.07670   0.08666   0.09310
 Alpha virt. eigenvalues --    0.09582   0.10118   0.11045   0.11452   0.11743
 Alpha virt. eigenvalues --    0.12272   0.12741   0.13448   0.14118   0.14360

  Beta  occ. eigenvalues --  -18.99215 -14.19511 -10.12238 -10.09546 -10.08510
  Beta  occ. eigenvalues --  -10.07840 -10.07088 -10.05797 -10.04959 -10.04573
  Beta  occ. eigenvalues --  -10.04528  -0.92277  -0.81454  -0.70529  -0.64606
  Beta  occ. eigenvalues --   -0.62766  -0.59474  -0.55893  -0.52857  -0.49228
  Beta  occ. eigenvalues --   -0.46776  -0.42336  -0.38478  -0.37421  -0.36461
  Beta  occ. eigenvalues --   -0.34679  -0.32893  -0.31933  -0.30926  -0.30257
  Beta  occ. eigenvalues --   -0.29332  -0.28739  -0.27777  -0.27170  -0.26727
  Beta  occ. eigenvalues --   -0.25390  -0.25285  -0.24410  -0.23062  -0.22185
  Beta  occ. eigenvalues --   -0.21649  -0.20948  -0.14522  -0.09426
  Beta virt. eigenvalues --    0.07104   0.07820   0.08181   0.08913   0.09243
  Beta virt. eigenvalues --    0.09667   0.10095   0.10422   0.11246   0.11769
  Beta virt. eigenvalues --    0.12333   0.12603   0.13004   0.13644   0.14338

 Mulliken charges and spin densities:
               1          2
     1  C    1.358434  -2.060890
     2  C   -1.515053   1.181080
     3  C    0.349196   0.018950
     4  C    1.224707  -1.804108
     5  C   -0.557590   0.350025
     6  C   -0.203198  -0.011867
     7  O   -0.266041   0.055525
     8  N    0.187189   0.021874
     9  C    0.308213  -0.588264
    10  C    0.106505  -0.280578
    11  C   -0.185015  -0.399285
    12  H   -0.060268   0.211832
    13  H   -0.612601   0.757832
    14  H   -0.433543   0.578013
    15  H   -0.213325   0.359976
    16  H    0.051558   0.118234
    17  H    0.293284  -0.169188
    18  H   -0.240300   0.391520
    19  H    0.002389   0.148689
    20  H   -0.122466   0.258198
    21  H    0.000265   0.181547
    22  H   -0.068612   0.156114
    23  H    0.060712   0.084495
    24  H   -0.132381   0.247387
    25  H   -0.094139   0.221923
    26  H   -0.161214   0.314989
    27  H   -0.144064   0.287010
    28  H    0.026844   0.142611
    29  H   -0.078802   0.191697
    30  H    0.119317   0.034658
 Sum of Mulliken charges =  -1.00000   1.00000

 Dipole moment (field-independent basis, Debye):
    X=              3.6230    Y=             -0.2249    Z=             -0.7065  Tot=              3.6981
 Quadrupole moment (field-independent basis, Debye-Ang):
   XX=           -136.9569   YY=           -108.8747   ZZ=           -104.7457
   XY=              2.1266   XZ=              2.2790   YZ=             -2.6606

 Summary of Natural Population Analysis:

                                       Natural Population
                Natural  -----------------------------------------------
    Atom  No    Charge         Core      Valence    Rydberg      Total
 -----------------------------------------------------------------------
      C    1   -0.28430      0.99967     2.27953    0.00511     3.28430
      C    2   -0.18884      0.99962     2.17909    0.01012     3.18884
      C    3   -0.10942      0.99958     2.09963    0.01020     3.10942
      C    4   -0.28949      0.99964     2.28280    0.00705     3.28949
      C    5   -0.04609      0.99954     2.03140    0.01515     3.04609
      C    6    0.24153      0.99970     1.73905    0.01971     2.75847
      O    7   -0.26836      0.99988     3.26149    0.00699     4.26836
      N    8   -0.28287      0.99972     2.76808    0.01507     3.78287
      C    9   -0.17718      0.99964     2.16857    0.00898     3.17718
      C   10   -0.08264      0.99961     2.07148    0.01156     3.08264
      C   11   -0.29469      0.99966     2.29046    0.00457     3.29469
      H   12    0.09645      0.00000     0.40244    0.00111     0.40355
      H   13    0.10042      0.00000     0.39802    0.00156     0.39958
      H   14    0.09650      0.00000     0.40214    0.00136     0.40350
      H   15    0.09387      0.00000     0.40459    0.00155     0.40613
      H   16    0.09892      0.00000     0.39964    0.00145     0.40108
      H   17    0.09671      0.00000     0.40106    0.00224     0.40329
      H   18    0.09741      0.00000     0.40148    0.00112     0.40259
      H   19    0.10696      0.00000     0.39152    0.00153     0.39304
      H   20    0.09905      0.00000     0.40005    0.00091     0.40095
      H   21    0.10183      0.00000     0.39609    0.00209     0.39817
      H   22    0.04246      0.00000     0.45478    0.00276     0.45754
      H   23    0.08974      0.00000     0.40887    0.00139     0.41026
      H   24    0.09134      0.00000     0.40770    0.00097     0.40866
      H   25    0.09266      0.00000     0.40644    0.00090     0.40734
      H   26    0.09343      0.00000     0.40513    0.00144     0.40657
      H   27    0.09020      0.00000     0.40856    0.00124     0.40980
      H   28    0.10265      0.00000     0.39622    0.00113     0.39735
      H   29    0.09148      0.00000     0.40719    0.00133     0.40852
      H   30    0.10030      0.00000     0.39876    0.00094     0.39970
 =======================================================================
   * Total *    0.00000     10.99625    32.86225    0.14150    44.00000

 Normal termination of Gaussian 16 at Tue Dec  8 20:11:48 2020.
