 Gaussian 16, Revision A.03,

 -----------------------------------------------------------
 # opt freq B3LYP/6-31G(d) empiricaldispersion=gd3bj scf=xqc
 -----------------------------------------------------------

 -------------------------------
 CID_113444547_JID_8550_neutraal
 -------------------------------
 Symbolic Z-matrix:
 Charge =  0 Multiplicity = 1

 SCF Done:  E(RB3LYP) =  -811.676428224     A.U. after   15 cycles
 SCF Done:  E(RB3LYP) =  -811.681764956     A.U. after   12 cycles
 SCF Done:  E(RB3LYP) =  -811.682301899     A.U. after   12 cycles
 SCF Done:  E(RB3LYP) =  -811.682439809     A.U. after   11 cycles
 SCF Done:  E(RB3LYP) =  -811.682500646     A.U. after   11 cycles
 SCF Done:  E(RB3LYP) =  -811.682541402     A.U. after   10 cycles
 SCF Done:  E(RB3LYP) =  -811.682568929     A.U. after   11 cycles
 SCF Done:  E(RB3LYP) =  -811.682576828     A.U. after   10 cycles
 SCF Done:  E(RB3LYP) =  -811.682581132     A.U. after   10 cycles
 SCF Done:  E(RB3LYP) =  -811.682582927     A.U. after    9 cycles
 SCF Done:  E(RB3LYP) =  -811.682586539     A.U. after    8 cycles
 SCF Done:  E(RB3LYP) =  -811.682586716     A.U. after    8 cycles
 SCF Done:  E(RB3LYP) =  -811.682586801     A.U. after    8 cycles
 SCF Done:  E(RB3LYP) =  -811.682586863     A.U. after    8 cycles
 SCF Done:  E(RB3LYP) =  -811.682586887     A.U. after    7 cycles
 Optimization completed.
    -- Stationary point found.
 Normal termination of Gaussian 16 at Mon Dec 14 13:22:40 2020.

 --------------------------------------------------------------------
 #N Geom=AllCheck Guess=TCheck SCRF=Check GenChk RB3LYP/6-31G(d) Freq
 --------------------------------------------------------------------

 Structure from the checkpoint file:  "JID_8550.chk"
 -------------------------------
 CID_113444547_JID_8550_neutraal
 -------------------------------
 Charge =  0 Multiplicity = 1

 SCF Done:  E(RB3LYP) =  -811.682586887     A.U. after    1 cycles

  Exact polarizability: 182.315 -36.447 174.478  -9.307 -13.876  99.663
 Approx polarizability: 276.576 -73.714 311.260 -19.236 -38.586 173.076

                      1                      2                      3
                      A                      A                      A
 Frequencies --     13.6636                38.7616                46.8794
 Red. masses --      6.3557                 7.5655                 5.1780
 Frc consts  --      0.0007                 0.0067                 0.0067
 IR Inten    --      0.8193                 0.7005                 4.6886

                      4                      5                      6
                      A                      A                      A
 Frequencies --     78.9085               123.2721               147.7792
 Red. masses --      6.4422                 7.9801                 5.1074
 Frc consts  --      0.0236                 0.0714                 0.0657
 IR Inten    --      1.3881                 3.2200                 0.0664

                      7                      8                      9
                      A                      A                      A
 Frequencies --    176.5072               209.2529               251.5500
 Red. masses --      6.0030                 5.7041                 5.1692
 Frc consts  --      0.1102                 0.1472                 0.1927
 IR Inten    --     12.4125                 6.0758                 1.1907

                     10                     11                     12
                      A                      A                      A
 Frequencies --    286.8117               307.5826               335.0345
 Red. masses --      1.6418                 2.5797                 4.7649
 Frc consts  --      0.0796                 0.1438                 0.3151
 IR Inten    --     34.5184                23.0389                 7.0921

                     13                     14                     15
                      A                      A                      A
 Frequencies --    354.6987               400.7331               406.0683
 Red. masses --      2.0135                 4.1062                 9.4037
 Frc consts  --      0.1493                 0.3885                 0.9136
 IR Inten    --      9.2074                 6.7018                 0.9920

                     16                     17                     18
                      A                      A                      A
 Frequencies --    441.4014               504.5017               535.2749
 Red. masses --      3.4947                 7.1827                 6.9358
 Frc consts  --      0.4012                 1.0771                 1.1708
 IR Inten    --      2.0614                 5.2194                 4.1852

                     19                     20                     21
                      A                      A                      A
 Frequencies --    557.5725               610.8218               617.2236
 Red. masses --      4.6635                 4.4349                 4.9572
 Frc consts  --      0.8542                 0.9749                 1.1127
 IR Inten    --      0.5175                 5.3033                12.7935

                     22                     23                     24
                      A                      A                      A
 Frequencies --    640.5606               644.2314               674.8122
 Red. masses --      4.7977                 5.3753                 3.0517
 Frc consts  --      1.1598                 1.3144                 0.8188
 IR Inten    --     12.1795                14.0114                74.4527

                     25                     26                     27
                      A                      A                      A
 Frequencies --    686.1679               733.7491               760.7967
 Red. masses --      4.5389                 6.2523                 4.7428
 Frc consts  --      1.2591                 1.9833                 1.6174
 IR Inten    --     62.8093                 1.0159                 5.3566

                     28                     29                     30
                      A                      A                      A
 Frequencies --    768.8488               785.6495               801.1606
 Red. masses --      4.0303                 1.8901                 1.3603
 Frc consts  --      1.4037                 0.6874                 0.5144
 IR Inten    --     30.7803               195.3729                49.7072

                     31                     32                     33
                      A                      A                      A
 Frequencies --    829.3404               841.7503               876.4217
 Red. masses --      5.5626                 1.5292                 1.3435
 Frc consts  --      2.2542                 0.6384                 0.6080
 IR Inten    --     11.4292                23.9891                 0.1354

                     34                     35                     36
                      A                      A                      A
 Frequencies --    879.1924               892.6263               916.0872
 Red. masses --      1.4453                 3.2197                 5.5651
 Frc consts  --      0.6582                 1.5115                 2.7517
 IR Inten    --     21.1554                 8.0848                21.4831

                     37                     38                     39
                      A                      A                      A
 Frequencies --    943.4835               957.0522               958.7969
 Red. masses --      3.9168                 5.9720                 1.3116
 Frc consts  --      2.0542                 3.2229                 0.7104
 IR Inten    --      1.9808                10.1355                 0.3254

                     40                     41                     42
                      A                      A                      A
 Frequencies --   1011.2746              1049.1178              1087.8704
 Red. masses --      3.8146                 2.4436                 1.6589
 Frc consts  --      2.2985                 1.5847                 1.1567
 IR Inten    --      0.2007                 5.1525                16.2719

                     43                     44                     45
                      A                      A                      A
 Frequencies --   1128.1666              1148.8378              1157.1467
 Red. masses --      2.5865                 1.6991                 1.8797
 Frc consts  --      1.9396                 1.3213                 1.4829
 IR Inten    --      5.9825                13.2248                 8.3210

                     46                     47                     48
                      A                      A                      A
 Frequencies --   1164.6421              1220.2614              1284.8737
 Red. masses --      1.5439                 2.6487                 3.6133
 Frc consts  --      1.2339                 2.3238                 3.5146
 IR Inten    --     18.5835                17.1874                13.6055

                     49                     50                     51
                      A                      A                      A
 Frequencies --   1292.6490              1310.4915              1325.7929
 Red. masses --      1.7225                 1.7771                 1.7824
 Frc consts  --      1.6958                 1.7982                 1.8459
 IR Inten    --     27.6749                 0.9401                48.3184

                     52                     53                     54
                      A                      A                      A
 Frequencies --   1364.8199              1379.0794              1398.1084
 Red. masses --      4.2043                 5.3934                 1.4083
 Frc consts  --      4.6142                 6.0435                 1.6219
 IR Inten    --     25.9098                18.2325                19.1904

                     55                     56                     57
                      A                      A                      A
 Frequencies --   1470.2932              1487.7669              1497.6626
 Red. masses --      4.8695                 2.5311                 4.1248
 Frc consts  --      6.2022                 3.3008                 5.4511
 IR Inten    --     90.2275                49.5630                 2.3727

                     58                     59                     60
                      A                      A                      A
 Frequencies --   1505.1514              1516.4472              1525.8152
 Red. masses --      3.7005                 1.6430                 3.1571
 Frc consts  --      4.9394                 2.2260                 4.3305
 IR Inten    --    103.2621                72.1922                 4.6065

                     61                     62                     63
                      A                      A                      A
 Frequencies --   1585.0533              1623.4880              1630.1945
 Red. masses --      3.9965                 5.7174                 4.3573
 Frc consts  --      5.9159                 8.8786                 6.8226
 IR Inten    --    222.4261                14.8696                 7.3338

                     64                     65                     66
                      A                      A                      A
 Frequencies --   1673.9504              1700.0219              2344.6346
 Red. masses --      2.7133                 2.2232                12.6782
 Frc consts  --      4.4795                 3.7856                41.0636
 IR Inten    --     94.1055               165.5674                69.9859

                     67                     68                     69
                      A                      A                      A
 Frequencies --   3092.7833              3138.4606              3214.5790
 Red. masses --      1.0594                 1.1062                 1.0883
 Frc consts  --      5.9706                 6.4195                 6.6257
 IR Inten    --     18.9927                 4.6547                 2.2998

                     70                     71                     72
                      A                      A                      A
 Frequencies --   3228.5839              3229.5348              3285.8189
 Red. masses --      1.0936                 1.0944                 1.0912
 Frc consts  --      6.7165                 6.7252                 6.9411
 IR Inten    --      4.7930                 3.0111                 0.3221

                     73                     74                     75
                      A                      A                      A
 Frequencies --   3306.0256              3532.6024              3631.7825
 Red. masses --      1.1085                 1.0489                 1.0963
 Frc consts  --      7.1382                 7.7120                 8.5193
 IR Inten    --      0.8926                34.2619                30.0257

 - Thermochemistry -
 -------------------
 Temperature   298.150 Kelvin.  Pressure   1.00000 Atm.
 Atom     1 has atomic number  6 and mass  12.00000

 Molecular mass:   239.08071 amu.
 Principal axes and moments of inertia in atomic units:
                           1         2         3
     Eigenvalues --  3338.134934993.824317437.23965
           X            0.99997  -0.00505  -0.00496
           Y            0.00507   0.99998   0.00391
           Z            0.00494  -0.00393   0.99998
 This molecule is an asymmetric top.
 Rotational symmetry number  1.
 Warning -- assumption of classical behavior for rotation
           may cause significant error
 Rotational temperatures (Kelvin)      0.02595     0.01734     0.01165
 Rotational constants (GHZ):           0.54064     0.36139     0.24266
 Zero-point vibrational energy     529818.9 (Joules/Mol)
                                  126.62977 (Kcal/Mol)
 Warning -- explicit consideration of  21 degrees of freedom as
           vibrations may cause significant error
 Vibrational temperatures:     19.66    55.77    67.45   113.53   177.36
          (Kelvin)            212.62   253.95   301.07   361.92   412.66
                              442.54   482.04   510.33   576.57   584.24
                              635.08   725.87   770.14   802.22   878.84
                              888.05   921.62   926.91   970.90   987.24
                             1055.70  1094.62  1106.20  1130.37  1152.69
                             1193.24  1211.09  1260.98  1264.96  1284.29
                             1318.05  1357.46  1376.98  1379.49  1455.00
                             1509.45  1565.20  1623.18  1652.92  1664.88
                             1675.66  1755.68  1848.65  1859.83  1885.51
                             1907.52  1963.67  1984.19  2011.57  2115.42
                             2140.56  2154.80  2165.58  2181.83  2195.31
                             2280.54  2335.84  2345.49  2408.44  2445.95
                             3373.41  4449.83  4515.54  4625.06  4645.21
                             4646.58  4727.56  4756.63  5082.63  5225.33

 Zero-point correction=                           0.201797 (Hartree/Particle)
 Thermal correction to Energy=                    0.216113
 Thermal correction to Enthalpy=                  0.217057
 Thermal correction to Gibbs Free Energy=         0.158069
 Sum of electronic and zero-point Energies=           -811.480790
 Sum of electronic and thermal Energies=              -811.466474
 Sum of electronic and thermal Enthalpies=            -811.465530
 Sum of electronic and thermal Free Energies=         -811.524518

                     E (Thermal)             CV                S
                      KCal/Mol        Cal/Mol-Kelvin    Cal/Mol-Kelvin
 Total                  135.613             54.945            124.151
 Electronic               0.000              0.000              0.000
 Translational            0.889              2.981             42.316
 Rotational               0.889              2.981             33.183
 Vibrational            133.836             48.983             48.652
 Vibration     1          0.593              1.986              7.391
 Vibration     2          0.594              1.981              5.321
 Vibration     3          0.595              1.979              4.945
 Vibration     4          0.600              1.963              3.918
 Vibration     5          0.610              1.930              3.048
 Vibration     6          0.617              1.905              2.701
 Vibration     7          0.628              1.871              2.365
 Vibration     8          0.642              1.827              2.050
 Vibration     9          0.664              1.760              1.720
 Vibration    10          0.684              1.698              1.493
 Vibration    11          0.697              1.659              1.375
 Vibration    12          0.716              1.606              1.236
 Vibration    13          0.731              1.566              1.145
 Vibration    14          0.767              1.469              0.960
 Vibration    15          0.771              1.457              0.941
 Vibration    16          0.801              1.380              0.822
 Vibration    17          0.860              1.240              0.647
 Vibration    18          0.890              1.172              0.576
 Vibration    19          0.913              1.123              0.529
 Vibration    20          0.970              1.009              0.431
 Vibration    21          0.977              0.995              0.421

 Optimization completed.
    -- Stationary point found.
 Normal termination of Gaussian 16 at Mon Dec 14 13:33:10 2020.

 ----------------------------------------------------------------------
 # B3LYP/6-311++G(d,p) empiricaldispersion=gd3bj scf=xqc pop=npa geom=c
 heck
 ----------------------------------------------------------------------

 ---------------------------------------
 CID_113444547_JID_8550_Energie_neutraal
 ---------------------------------------
 Structure from the checkpoint file:  "JID_8550.chk"
 Charge =  0 Multiplicity = 1

 SCF Done:  E(RB3LYP) =  -811.899217219     A.U. after   16 cycles
 Normal termination of Gaussian 16 at Mon Dec 14 13:37:44 2020.

 ----------------------------------------------------------------------
 # B3LYP/6-311++G(d,p) empiricaldispersion=gd3bj scf=xqc pop=npa geom=c
 heck
 ----------------------------------------------------------------------

 -------------------------------------
 CID_113444547_JID_8550_Energie_kation
 -------------------------------------
 Structure from the checkpoint file:  "JID_8550.chk"
 Charge =  1 Multiplicity = 2

 SCF Done:  E(UB3LYP) =  -811.600998926     A.U. after   25 cycles
 Normal termination of Gaussian 16 at Mon Dec 14 13:48:01 2020.
 Gaussian 16:  ES64L-G16RevA.03 25-Dec-2016

 ----------------------------------------------------------------------
 # B3LYP/6-311++G(d,p) empiricaldispersion=gd3bj scf=xqc pop=npa geom=c
 heck
 ----------------------------------------------------------------------

 ------------------------------------
 CID_113444547_JID_8550_Energie_anion
 ------------------------------------
 Structure from the checkpoint file:  "JID_8550.chk"
 Charge = -1 Multiplicity = 2

                         Standard orientation:
 ---------------------------------------------------------------------
 Center     Atomic      Atomic             Coordinates (Angstroms)
 Number     Number       Type             X           Y           Z
 ---------------------------------------------------------------------
      1          6           0        3.195975    0.449010   -0.715318
      2          6           0        2.463698    1.607644   -0.946596
      3          6           0        1.176502    1.695361   -0.409419
      4          6           0        0.664001    0.620067    0.359936
      5          6           0        1.368269   -0.548899    0.593749
      6          6           0        2.659100   -0.620205    0.038804
      7          6           0        3.443395   -1.800079    0.237496
      8          7           0        4.086019   -2.756940    0.399028
      9          7           0       -0.610271    1.031970    0.753237
     10          6           0       -0.796051    2.279748    0.182642
     11          7           0        0.241967    2.717645   -0.493746
     12          7           0       -2.010936    2.935443    0.271187
     13          6           0       -1.617542    0.171156    1.353190
     14          6           0       -2.126262   -0.847254    0.373955
     15          7           0       -1.950691   -2.126490    0.618776
     16          8           0       -2.496786   -2.792709   -0.477857
     17          6           0       -2.974052   -1.881828   -1.348650
     18          6           0       -2.774977   -0.623449   -0.875794
     19          1           0        4.196737    0.347068   -1.120674
     20          1           0        2.870666    2.424948   -1.532134
     21          1           0        0.954676   -1.383269    1.148689
     22          1           0       -2.413867    2.975105    1.201606
     23          1           0       -1.937835    3.862884   -0.133540
     24          1           0       -1.187892   -0.340561    2.218771
     25          1           0       -2.439268    0.795909    1.711482
     26          1           0       -3.420907   -2.281701   -2.247308
     27          1           0       -3.032973    0.322261   -1.327376
 ---------------------------------------------------------------------

 SCF Done:  E(UB3LYP) =  -811.905848051     A.U. after   33 cycles
 SCF Done:  E(UB3LYP) =  -811.905848051     a.u. after    1 cycles

 The electronic state is 2-A.
 Alpha  occ. eigenvalues --  -19.12476 -14.27278 -14.27055 -14.22895 -14.19445
 Alpha  occ. eigenvalues --  -14.19173 -10.17029 -10.15726 -10.14120 -10.12984
 Alpha  occ. eigenvalues --  -10.11051 -10.09907 -10.09619 -10.09571 -10.09545
 Alpha  occ. eigenvalues --  -10.08182 -10.07978 -10.07367  -1.06216  -0.93345
 Alpha  occ. eigenvalues --   -0.82255  -0.80698  -0.79506  -0.78270  -0.74837
 Alpha  occ. eigenvalues --   -0.71438  -0.66364  -0.65176  -0.63279  -0.54369
 Alpha  occ. eigenvalues --   -0.53896  -0.52713  -0.50857  -0.48497  -0.45836
 Alpha  occ. eigenvalues --   -0.45000  -0.43181  -0.41441  -0.38879  -0.38813
 Alpha  occ. eigenvalues --   -0.37987  -0.36509  -0.35591  -0.35050  -0.34312
 Alpha  occ. eigenvalues --   -0.33124  -0.31303  -0.30639  -0.29745  -0.28274
 Alpha  occ. eigenvalues --   -0.27169  -0.25452  -0.24005  -0.22997  -0.22406
 Alpha  occ. eigenvalues --   -0.21946  -0.20614  -0.19167  -0.18836  -0.18206
 Alpha  occ. eigenvalues --   -0.13850  -0.11684   0.03427
 Alpha virt. eigenvalues --    0.05199   0.05717   0.06759   0.08298   0.08452
 Alpha virt. eigenvalues --    0.09037   0.10096   0.10335   0.10891   0.11461
 Alpha virt. eigenvalues --    0.11580   0.12318   0.13062   0.13710   0.13804

  Beta  occ. eigenvalues --  -19.12414 -14.27172 -14.27032 -14.22786 -14.19338
  Beta  occ. eigenvalues --  -14.19210 -10.16918 -10.15687 -10.14096 -10.12962
  Beta  occ. eigenvalues --  -10.11094 -10.09911 -10.09606 -10.09485 -10.09423
  Beta  occ. eigenvalues --  -10.08186 -10.07834 -10.07345  -1.06098  -0.93254
  Beta  occ. eigenvalues --   -0.82132  -0.80582  -0.79342  -0.78167  -0.74684
  Beta  occ. eigenvalues --   -0.71359  -0.66261  -0.64990  -0.63151  -0.54306
  Beta  occ. eigenvalues --   -0.53590  -0.52643  -0.50765  -0.48409  -0.45748
  Beta  occ. eigenvalues --   -0.44818  -0.43093  -0.41344  -0.38783  -0.38543
  Beta  occ. eigenvalues --   -0.37861  -0.36406  -0.35482  -0.34947  -0.34218
  Beta  occ. eigenvalues --   -0.33031  -0.31177  -0.30583  -0.29659  -0.27829
  Beta  occ. eigenvalues --   -0.27089  -0.25282  -0.23613  -0.22861  -0.22321
  Beta  occ. eigenvalues --   -0.21741  -0.20381  -0.18822  -0.18496  -0.18187
  Beta  occ. eigenvalues --   -0.13425  -0.11229
  Beta virt. eigenvalues --    0.06048   0.06510   0.06808   0.07384   0.08297
  Beta virt. eigenvalues --    0.08978   0.09159   0.10354   0.10664   0.10904
  Beta virt. eigenvalues --    0.11672   0.11826   0.12520   0.13205   0.13734

 Mulliken charges and spin densities:
               1          2
     1  C   -0.725389   0.048564
     2  C   -0.359585   0.098252
     3  C    0.222834  -0.298900
     4  C    0.425017  -0.501844
     5  C    0.075414   0.057304
     6  C    1.458695  -0.079366
     7  C   -1.264900  -0.037792
     8  N   -0.273728   0.056826
     9  N    0.133062   0.099039
    10  C    0.640182  -0.303205
    11  N   -0.091959  -0.101221
    12  N   -0.602212   0.243019
    13  C    0.878242  -1.586094
    14  C   -0.724782   0.960614
    15  N   -0.256754   0.059287
    16  O    0.137820   0.002141
    17  C   -0.512444   0.297796
    18  C    0.144098  -0.125828
    19  H    0.144021   0.001294
    20  H    0.144137   0.005426
    21  H    0.178345  -0.006120
    22  H   -0.638360   0.933627
    23  H   -0.121649   0.417433
    24  H    0.211165  -0.002373
    25  H   -0.408314   0.587932
    26  H    0.105180   0.068863
    27  H    0.081862   0.105330
 Sum of Mulliken charges =  -1.00000   1.00000

 Dipole moment (field-independent basis, Debye):
    X=             -1.2933    Y=             -1.4441    Z=             -3.8683  Tot=              4.3268
 Quadrupole moment (field-independent basis, Debye-Ang):
   XX=           -163.6202   YY=           -167.0295   ZZ=           -120.2741
   XY=             32.6416   XZ=              9.9875   YZ=             -2.9723

 Summary of Natural Population Analysis:

                                       Natural Population
                Natural  -----------------------------------------------
    Atom  No    Charge         Core      Valence    Rydberg      Total
 -----------------------------------------------------------------------
      C    1   -0.08828      0.99956     2.08138    0.00734     3.08828
      C    2   -0.10667      0.99953     2.09907    0.00807     3.10667
      C    3    0.09016      0.99946     1.89682    0.01356     2.90984
      C    4    0.06171      0.99946     1.92822    0.01061     2.93829
      C    5   -0.06703      0.99946     2.05993    0.00764     3.06703
      C    6   -0.09178      0.99945     2.08234    0.00999     3.09178
      C    7    0.15406      0.99963     1.82853    0.01778     2.84594
      N    8   -0.18450      0.99979     2.67396    0.01075     3.68450
      N    9   -0.22341      0.99958     2.71281    0.01102     3.72341
      C   10    0.32079      0.99960     1.66106    0.01855     2.67921
      N   11   -0.29022      0.99967     2.78151    0.00905     3.79022
      N   12   -0.40246      0.99971     2.89252    0.01024     3.90246
      C   13   -0.09910      0.99956     2.08615    0.01339     3.09910
      C   14    0.07504      0.99959     1.91017    0.01520     2.92496
      N   15   -0.06574      0.99966     2.55191    0.01417     3.56574
      O   16   -0.15641      0.99987     3.14888    0.00766     4.15641
      C   17    0.08770      0.99956     1.89940    0.01333     2.91230
      C   18   -0.16976      0.99950     2.16167    0.00859     3.16976
      H   19    0.10065      0.00000     0.39852    0.00083     0.39935
      H   20    0.10227      0.00000     0.39656    0.00117     0.39773
      H   21    0.10986      0.00000     0.38895    0.00119     0.39014
      H   22    0.20047      0.00000     0.26998    0.02955     0.29953
      H   23    0.19547      0.00000     0.30175    0.00278     0.30453
      H   24    0.11098      0.00000     0.38780    0.00122     0.38902
      H   25    0.11740      0.00000     0.38051    0.00208     0.38260
      H   26    0.09719      0.00000     0.40186    0.00094     0.40281
      H   27    0.12164      0.00000     0.37740    0.00096     0.37836
 =======================================================================
   * Total *    0.00000     17.99264    43.75969    0.24767    62.00000

 Normal termination of Gaussian 16 at Mon Dec 14 14:01:56 2020.
