 Gaussian 16, Revision A.03,

 -----------------------------------------------------------
 # opt freq B3LYP/6-31G(d) empiricaldispersion=gd3bj scf=xqc
 -----------------------------------------------------------

 ------------------------------
 CID_15574137_JID_5861_neutraal
 ------------------------------
 Symbolic Z-matrix:
 Charge =  0 Multiplicity = 1

 SCF Done:  E(RB3LYP) =  -622.031820894     A.U. after   14 cycles
 SCF Done:  E(RB3LYP) =  -622.034648535     A.U. after   11 cycles
 SCF Done:  E(RB3LYP) =  -622.034970462     A.U. after   11 cycles
 SCF Done:  E(RB3LYP) =  -622.035081512     A.U. after   11 cycles
 SCF Done:  E(RB3LYP) =  -622.035177729     A.U. after   11 cycles
 SCF Done:  E(RB3LYP) =  -622.035258365     A.U. after   11 cycles
 SCF Done:  E(RB3LYP) =  -622.035323346     A.U. after   10 cycles
 SCF Done:  E(RB3LYP) =  -622.035379630     A.U. after   10 cycles
 SCF Done:  E(RB3LYP) =  -622.035392354     A.U. after    9 cycles
 SCF Done:  E(RB3LYP) =  -622.035395280     A.U. after    9 cycles
 SCF Done:  E(RB3LYP) =  -622.035395515     A.U. after    7 cycles
 SCF Done:  E(RB3LYP) =  -622.035395659     A.U. after    8 cycles
 SCF Done:  E(RB3LYP) =  -622.035395809     A.U. after    7 cycles
 SCF Done:  E(RB3LYP) =  -622.035395820     A.U. after    6 cycles
 Optimization completed.
    -- Stationary point found.
 Normal termination of Gaussian 16 at Thu Dec 10 17:21:59 2020.

 --------------------------------------------------------------------
 #N Geom=AllCheck Guess=TCheck SCRF=Check GenChk RB3LYP/6-31G(d) Freq
 --------------------------------------------------------------------

 Structure from the checkpoint file:  "JID_5861.chk"
 ------------------------------
 CID_15574137_JID_5861_neutraal
 ------------------------------
 Charge =  0 Multiplicity = 1

 SCF Done:  E(RB3LYP) =  -622.035395820     A.U. after    1 cycles

  Exact polarizability: 189.129   0.173 154.024  -5.728  -0.431 107.489
 Approx polarizability: 255.392  -3.072 242.003 -13.451  -1.390 155.789

                      1                      2                      3
                      A                      A                      A
 Frequencies --     38.5194                51.2962                72.3878
 Red. masses --      2.8784                 3.5459                 3.2453
 Frc consts  --      0.0025                 0.0055                 0.0100
 IR Inten    --      0.0267                 0.0642                 0.3953

                      4                      5                      6
                      A                      A                      A
 Frequencies --    115.0454               136.4407               143.3066
 Red. masses --      2.5914                 2.3749                 1.2575
 Frc consts  --      0.0202                 0.0260                 0.0152
 IR Inten    --      1.9796                 1.6128                 0.2915

                      7                      8                      9
                      A                      A                      A
 Frequencies --    171.0132               172.4163               195.1258
 Red. masses --      2.4043                 1.0715                 1.7277
 Frc consts  --      0.0414                 0.0188                 0.0388
 IR Inten    --      0.3428                 0.0759                 1.4602

                     10                     11                     12
                      A                      A                      A
 Frequencies --    232.8482               235.1165               247.5159
 Red. masses --      1.2030                 2.1323                 1.8703
 Frc consts  --      0.0384                 0.0695                 0.0675
 IR Inten    --      0.3203                 0.1240                 6.1049

                     13                     14                     15
                      A                      A                      A
 Frequencies --    271.7285               280.9885               290.8606
 Red. masses --      1.2927                 1.8636                 2.7343
 Frc consts  --      0.0562                 0.0867                 0.1363
 IR Inten    --      1.5029                 1.6699                 1.6619

                     16                     17                     18
                      A                      A                      A
 Frequencies --    313.4020               335.0487               336.7989
 Red. masses --      2.4226                 2.8920                 1.0778
 Frc consts  --      0.1402                 0.1913                 0.0720
 IR Inten    --      0.5817                 2.4623                 0.0351

                     19                     20                     21
                      A                      A                      A
 Frequencies --    351.0743               383.6218               413.4182
 Red. masses --      2.7368                 2.3824                 2.5613
 Frc consts  --      0.1987                 0.2066                 0.2579
 IR Inten    --      1.3497                 1.5922                 0.5499

                     22                     23                     24
                      A                      A                      A
 Frequencies --    420.1767               462.9043               527.4269
 Red. masses --      2.4841                 3.0713                 3.1664
 Frc consts  --      0.2584                 0.3878                 0.5190
 IR Inten    --      0.4950                 0.7569                 0.2786

                     25                     26                     27
                      A                      A                      A
 Frequencies --    531.3120               553.7733               564.2598
 Red. masses --      3.0935                 4.5052                 3.5982
 Frc consts  --      0.5145                 0.8140                 0.6750
 IR Inten    --      2.5509                 1.6598                 1.8767

                     28                     29                     30
                      A                      A                      A
 Frequencies --    569.7526               653.1783               729.9357
 Red. masses --      3.2149                 3.8006                 3.2204
 Frc consts  --      0.6149                 0.9554                 1.0110
 IR Inten    --      1.1082                 1.0621                 5.4448

                     31                     32                     33
                      A                      A                      A
 Frequencies --    785.2505               830.3810               893.9651
 Red. masses --      4.2022                 3.1707                 1.4780
 Frc consts  --      1.5267                 1.2881                 0.6959
 IR Inten    --     10.8702                 2.9491                13.1031

                     34                     35                     36
                      A                      A                      A
 Frequencies --    899.8350               933.7758               941.2754
 Red. masses --      1.2958                 3.3288                 3.2825
 Frc consts  --      0.6182                 1.7101                 1.7135
 IR Inten    --      0.0319                10.2513                 5.7925

                     37                     38                     39
                      A                      A                      A
 Frequencies --    942.3206               952.5560               958.1373
 Red. masses --      1.7533                 2.3357                 2.4744
 Frc consts  --      0.9173                 1.2487                 1.3383
 IR Inten    --      1.4615                12.0458                11.0582

                     40                     41                     42
                      A                      A                      A
 Frequencies --    974.8678              1021.1811              1035.6469
 Red. masses --      1.1964                 1.5415                 1.4862
 Frc consts  --      0.6699                 0.9471                 0.9392
 IR Inten    --      0.1123                 1.8813                 7.2810

                     43                     44                     45
                      A                      A                      A
 Frequencies --   1061.2727              1063.9542              1072.3792
 Red. masses --      1.4106                 1.3950                 1.5306
 Frc consts  --      0.9361                 0.9304                 1.0370
 IR Inten    --      0.7896                 0.0336                 1.8233

                     46                     47                     48
                      A                      A                      A
 Frequencies --   1076.2667              1091.5428              1136.8257
 Red. masses --      1.5055                 1.9616                 4.5014
 Frc consts  --      1.0275                 1.3770                 3.4275
 IR Inten    --      0.9742                 6.1658               113.4581

                     49                     50                     51
                      A                      A                      A
 Frequencies --   1153.9190              1191.9884              1220.9316
 Red. masses --      2.3549                 1.2802                 1.5713
 Frc consts  --      1.8475                 1.0717                 1.3800
 IR Inten    --     17.4488                 2.6301                14.5812

                     52                     53                     54
                      A                      A                      A
 Frequencies --   1231.1486              1243.6781              1248.1204
 Red. masses --      2.5317                 2.7064                 2.7226
 Frc consts  --      2.2609                 2.4663                 2.4989
 IR Inten    --      7.1014                 3.3165                 1.9162

                     55                     56                     57
                      A                      A                      A
 Frequencies --   1274.1117              1305.5120              1320.4411
 Red. masses --      2.1451                 1.4319                 1.7894
 Frc consts  --      2.0517                 1.4378                 1.8382
 IR Inten    --     23.4775                 5.7036                 4.0639

                     58                     59                     60
                      A                      A                      A
 Frequencies --   1336.0010              1362.0987              1414.5655
 Red. masses --      4.5619                 2.4173                 1.2861
 Frc consts  --      4.7975                 2.6424                 1.5162
 IR Inten    --      7.6420                 3.1266                23.9420

                     61                     62                     63
                      A                      A                      A
 Frequencies --   1425.0312              1426.3297              1441.4030
 Red. masses --      1.2746                 1.2142                 1.2394
 Frc consts  --      1.5251                 1.4554                 1.5171
 IR Inten    --      6.1963                 3.8559                 3.1490

                     64                     65                     66
                      A                      A                      A
 Frequencies --   1446.7053              1458.5828              1464.9614
 Red. masses --      1.2433                 1.2298                 2.9457
 Frc consts  --      1.5332                 1.5415                 3.7246
 IR Inten    --      2.0663                 2.1029                 7.6265

                     67                     68                     69
                      A                      A                      A
 Frequencies --   1495.2064              1499.7523              1512.4398
 Red. masses --      1.4813                 1.2317                 1.0512
 Frc consts  --      1.9512                 1.6323                 1.4168
 IR Inten    --      3.1345                 1.5651                 0.2010

                     70                     71                     72
                      A                      A                      A
 Frequencies --   1513.5570              1514.8575              1516.7589
 Red. masses --      1.0837                 1.0890                 1.0460
 Frc consts  --      1.4626                 1.4723                 1.4177
 IR Inten    --      3.2321                 0.2776                 0.0182

                     73                     74                     75
                      A                      A                      A
 Frequencies --   1519.2680              1521.0436              1530.8388
 Red. masses --      1.0624                 1.0507                 1.1401
 Frc consts  --      1.4448                 1.4322                 1.5741
 IR Inten    --      5.1061                 1.1857                 7.3218

                     76                     77                     78
                      A                      A                      A
 Frequencies --   1534.2148              1534.7128              1537.9493
 Red. masses --      1.0860                 1.0723                 1.0506
 Frc consts  --      1.5061                 1.4880                 1.4641
 IR Inten    --      7.2193                11.9465                 5.2290

                     79                     80                     81
                      A                      A                      A
 Frequencies --   1542.7430              1549.7293              1553.4951
 Red. masses --      1.0593                 1.1292                 1.2472
 Frc consts  --      1.4855                 1.5978                 1.7733
 IR Inten    --     11.2274                 0.4928                17.0478

                     82                     83                     84
                      A                      A                      A
 Frequencies --   1631.4639              1667.0207              2991.6235
 Red. masses --      6.8474                 5.4011                 1.0439
 Frc consts  --     10.7382                 8.8433                 5.5047
 IR Inten    --     12.3090                29.7465                54.3010

                     85                     86                     87
                      A                      A                      A
 Frequencies --   3039.7142              3040.3747              3044.3162
 Red. masses --      1.0504                 1.0549                 1.0354
 Frc consts  --      5.7182                 5.7454                 5.6537
 IR Inten    --     21.4982                34.3664                27.8461

                     88                     89                     90
                      A                      A                      A
 Frequencies --   3044.9968              3050.0868              3052.7493
 Red. masses --      1.0349                 1.0439                 1.0363
 Frc consts  --      5.6535                 5.7220                 5.6901
 IR Inten    --     23.1549                83.0681                22.9284

                     91                     92                     93
                      A                      A                      A
 Frequencies --   3053.2115              3098.3454              3100.3231
 Red. masses --      1.0942                 1.0995                 1.1004
 Frc consts  --      6.0101                 6.2188                 6.2316
 IR Inten    --     30.6548                33.6928                14.1556

                     94                     95                     96
                      A                      A                      A
 Frequencies --   3106.8795              3110.2516              3110.9412
 Red. masses --      1.0883                 1.1019                 1.1023
 Frc consts  --      6.1894                 6.2801                 6.2853
 IR Inten    --     19.6763                 6.5350                 5.0258

                     97                     98                     99
                      A                      A                      A
 Frequencies --   3118.6078              3118.9560              3124.3765
 Red. masses --      1.1028                 1.1015                 1.1021
 Frc consts  --      6.3195                 6.3132                 6.3389
 IR Inten    --     23.1769                98.7454                20.1756

                    100                    101                    102
                      A                      A                      A
 Frequencies --   3126.4506              3126.7677              3136.4812
 Red. masses --      1.1009                 1.1011                 1.0979
 Frc consts  --      6.3404                 6.3425                 6.3637
 IR Inten    --     27.6490                35.6994                35.3598

                    103                    104                    105
                      A                      A                      A
 Frequencies --   3145.5447              3182.9316              3212.1915
 Red. masses --      1.1024                 1.0886                 1.0885
 Frc consts  --      6.4267                 6.4982                 6.6174
 IR Inten    --      6.5096                23.0095                12.8001

 - Thermochemistry -
 -------------------
 Temperature   298.150 Kelvin.  Pressure   1.00000 Atm.
 Atom     1 has atomic number  6 and mass  12.00000

 Molecular mass:   206.16707 amu.
 Principal axes and moments of inertia in atomic units:
                           1         2         3
     Eigenvalues --  1707.787775140.839045928.34484
           X            0.99998   0.00693  -0.00064
           Y           -0.00692   0.99996   0.00513
           Z            0.00067  -0.00512   0.99999
 This molecule is an asymmetric top.
 Rotational symmetry number  1.
 Warning -- assumption of classical behavior for rotation
           may cause significant error
 Rotational temperatures (Kelvin)      0.05072     0.01685     0.01461
 Rotational constants (GHZ):           1.05677     0.35106     0.30443
 Zero-point vibrational energy     871771.6 (Joules/Mol)
                                  208.35841 (Kcal/Mol)
 Warning -- explicit consideration of  28 degrees of freedom as
           vibrations may cause significant error
 Vibrational temperatures:     55.42    73.80   104.15   165.52   196.31
          (Kelvin)            206.19   246.05   248.07   280.74   335.02
                              338.28   356.12   390.96   404.28   418.48
                              450.92   482.06   484.58   505.12   551.95
                              594.82   604.54   666.02   758.85   764.44
                              796.76   811.84   819.75   939.78  1050.21
                             1129.80  1194.73  1286.22  1294.66  1343.50
                             1354.29  1355.79  1370.52  1378.55  1402.62
                             1469.25  1490.06  1526.93  1530.79  1542.91
                             1548.51  1570.49  1635.64  1660.23  1715.01
                             1756.65  1771.35  1789.38  1795.77  1833.16
                             1878.34  1899.82  1922.21  1959.76  2035.24
                             2050.30  2052.17  2073.86  2081.49  2098.58
                             2107.75  2151.27  2157.81  2176.06  2177.67
                             2179.54  2182.28  2185.89  2188.44  2202.54
                             2207.39  2208.11  2212.77  2219.66  2229.71
                             2235.13  2347.31  2398.47  4304.28  4373.47
                             4374.42  4380.09  4381.07  4388.39  4392.23
                             4392.89  4457.83  4460.67  4470.11  4474.96
                             4475.95  4486.98  4487.48  4495.28  4498.27
                             4498.72  4512.70  4525.74  4579.53  4621.63

 Zero-point correction=                           0.332040 (Hartree/Particle)
 Thermal correction to Energy=                    0.348894
 Thermal correction to Enthalpy=                  0.349838
 Thermal correction to Gibbs Free Energy=         0.288675
 Sum of electronic and zero-point Energies=           -621.703356
 Sum of electronic and thermal Energies=              -621.686502
 Sum of electronic and thermal Enthalpies=            -621.685558
 Sum of electronic and thermal Free Energies=         -621.746720

                     E (Thermal)             CV                S
                      KCal/Mol        Cal/Mol-Kelvin    Cal/Mol-Kelvin
 Total                  218.934             64.260            128.727
 Electronic               0.000              0.000              0.000
 Translational            0.889              2.981             41.875
 Rotational               0.889              2.981             32.320
 Vibrational            217.157             58.298             54.532
 Vibration     1          0.594              1.981              5.334
 Vibration     2          0.596              1.977              4.767
 Vibration     3          0.598              1.967              4.087
 Vibration     4          0.608              1.937              3.182
 Vibration     5          0.614              1.917              2.853
 Vibration     6          0.616              1.910              2.759
 Vibration     7          0.626              1.878              2.424
 Vibration     8          0.626              1.876              2.409
 Vibration     9          0.636              1.847              2.179
 Vibration    10          0.654              1.791              1.857
 Vibration    11          0.655              1.787              1.840
 Vibration    12          0.661              1.767              1.748
 Vibration    13          0.675              1.725              1.585
 Vibration    14          0.681              1.709              1.528
 Vibration    15          0.687              1.691              1.469
 Vibration    16          0.701              1.648              1.344
 Vibration    17          0.716              1.606              1.236
 Vibration    18          0.718              1.602              1.227
 Vibration    19          0.728              1.573              1.161
 Vibration    20          0.753              1.505              1.025
 Vibration    21          0.777              1.441              0.915
 Vibration    22          0.783              1.426              0.891
 Vibration    23          0.821              1.332              0.758
 Vibration    24          0.882              1.189              0.593
 Vibration    25          0.886              1.181              0.584
 Vibration    26          0.909              1.131              0.536
 Vibration    27          0.920              1.109              0.515
 Vibration    28          0.926              1.097              0.505

 Optimization completed.
    -- Stationary point found.
 Normal termination of Gaussian 16 at Thu Dec 10 17:36:33 2020.

 ----------------------------------------------------------------------
 # B3LYP/6-311++G(d,p) empiricaldispersion=gd3bj scf=xqc pop=npa geom=c
 heck
 ----------------------------------------------------------------------

 --------------------------------------
 CID_15574137_JID_5861_Energie_neutraal
 --------------------------------------
 Structure from the checkpoint file:  "JID_5861.chk"
 Charge =  0 Multiplicity = 1

 SCF Done:  E(RB3LYP) =  -622.202334157     A.U. after   14 cycles
 Normal termination of Gaussian 16 at Thu Dec 10 17:43:44 2020.

 ----------------------------------------------------------------------
 # B3LYP/6-311++G(d,p) empiricaldispersion=gd3bj scf=xqc pop=npa geom=c
 heck
 ----------------------------------------------------------------------

 ------------------------------------
 CID_15574137_JID_5861_Energie_kation
 ------------------------------------
 Structure from the checkpoint file:  "JID_5861.chk"
 Charge =  1 Multiplicity = 2

 SCF Done:  E(UB3LYP) =  -621.903471415     A.U. after   24 cycles
 Normal termination of Gaussian 16 at Thu Dec 10 18:00:47 2020.
 Gaussian 16:  ES64L-G16RevA.03 25-Dec-2016

 ----------------------------------------------------------------------
 # B3LYP/6-311++G(d,p) empiricaldispersion=gd3bj scf=xqc pop=npa geom=c
 heck
 ----------------------------------------------------------------------

 -----------------------------------
 CID_15574137_JID_5861_Energie_anion
 -----------------------------------
 Structure from the checkpoint file:  "JID_5861.chk"
 Charge = -1 Multiplicity = 2

                         Standard orientation:
 ---------------------------------------------------------------------
 Center     Atomic      Atomic             Coordinates (Angstroms)
 Number     Number       Type             X           Y           Z
 ---------------------------------------------------------------------
      1          6           0        1.364959    2.564758   -0.572140
      2          6           0        0.699715    1.212791   -0.425764
      3          6           0       -0.678790    1.165440   -0.207054
      4          6           0       -1.374802   -0.039644   -0.058685
      5          6           0       -0.632946   -1.220052   -0.142417
      6          6           0        0.747922   -1.215511   -0.364052
      7          6           0        1.426375    0.008801   -0.507814
      8          6           0        2.927376   -0.002296   -0.716922
      9          8           0        3.658547   -0.483868    0.411771
     10          6           0        3.560382    0.363663    1.537817
     11          6           0        1.487315   -2.530208   -0.456115
     12          6           0       -2.889559   -0.021419    0.186153
     13          6           0       -3.186378    0.752502    1.488971
     14          6           0       -3.589905    0.679954   -0.997867
     15          6           0       -3.477353   -1.435430    0.322828
     16          1           0        0.629888    3.366663   -0.456681
     17          1           0        2.146795    2.722888    0.179572
     18          1           0        1.834884    2.689640   -1.555047
     19          1           0       -1.218835    2.106401   -0.147299
     20          1           0       -1.125107   -2.180246   -0.034800
     21          1           0        3.194824   -0.685397   -1.529212
     22          1           0        3.294572    0.995381   -0.991484
     23          1           0        3.974472    1.363301    1.326139
     24          1           0        2.521397    0.480857    1.876900
     25          1           0        4.146799   -0.099154    2.335656
     26          1           0        2.346812   -2.549307    0.219041
     27          1           0        0.826238   -3.367499   -0.214020
     28          1           0        1.875224   -2.698782   -1.470070
     29          1           0       -2.828084    1.785402    1.436745
     30          1           0       -4.266066    0.780340    1.678972
     31          1           0       -2.700143    0.272031    2.345149
     32          1           0       -3.394338    0.147532   -1.935183
     33          1           0       -4.674560    0.706396   -0.838355
     34          1           0       -3.243442    1.710960   -1.120056
     35          1           0       -3.321120   -2.028778   -0.584697
     36          1           0       -3.037316   -1.977429    1.167032
     37          1           0       -4.557141   -1.370356    0.495884
 ---------------------------------------------------------------------

 SCF Done:  E(UB3LYP) =  -622.187786968     A.U. after   32 cycles

 The electronic state is 2-A.
 Alpha  occ. eigenvalues --  -19.03316 -10.12426 -10.11607 -10.09392 -10.08600
 Alpha  occ. eigenvalues --  -10.08534 -10.08114 -10.07638 -10.06981 -10.06886
 Alpha  occ. eigenvalues --  -10.06770 -10.06636 -10.06265 -10.06148 -10.06075
 Alpha  occ. eigenvalues --   -0.94343  -0.77072  -0.72749  -0.68680  -0.66575
 Alpha  occ. eigenvalues --   -0.62749  -0.59910  -0.59522  -0.58936  -0.57493
 Alpha  occ. eigenvalues --   -0.54816  -0.49544  -0.47858  -0.43869  -0.40632
 Alpha  occ. eigenvalues --   -0.40465  -0.39114  -0.36976  -0.36295  -0.34547
 Alpha  occ. eigenvalues --   -0.33905  -0.32663  -0.32541  -0.32393  -0.31847
 Alpha  occ. eigenvalues --   -0.30812  -0.30526  -0.29815  -0.29107  -0.28347
 Alpha  occ. eigenvalues --   -0.27608  -0.27576  -0.27069  -0.25260  -0.24898
 Alpha  occ. eigenvalues --   -0.23261  -0.22929  -0.22593  -0.21872  -0.16954
 Alpha  occ. eigenvalues --   -0.14492  -0.14071   0.04268
 Alpha virt. eigenvalues --    0.06106   0.06743   0.07408   0.07644   0.08144
 Alpha virt. eigenvalues --    0.08413   0.08485   0.08803   0.09609   0.10157
 Alpha virt. eigenvalues --    0.10522   0.10860   0.10991   0.11656   0.11963

  Beta  occ. eigenvalues --  -19.03311 -10.12414 -10.11580 -10.09389 -10.08599
  Beta  occ. eigenvalues --  -10.08535 -10.08114 -10.07635 -10.06967 -10.06849
  Beta  occ. eigenvalues --  -10.06763 -10.06623 -10.06240 -10.06123 -10.06049
  Beta  occ. eigenvalues --   -0.94332  -0.77062  -0.72736  -0.68662  -0.66556
  Beta  occ. eigenvalues --   -0.62717  -0.59872  -0.59480  -0.58886  -0.57450
  Beta  occ. eigenvalues --   -0.54777  -0.49508  -0.47824  -0.43827  -0.40603
  Beta  occ. eigenvalues --   -0.40445  -0.39091  -0.36951  -0.36274  -0.34513
  Beta  occ. eigenvalues --   -0.33876  -0.32636  -0.32508  -0.32364  -0.31819
  Beta  occ. eigenvalues --   -0.30787  -0.30499  -0.29786  -0.29083  -0.28320
  Beta  occ. eigenvalues --   -0.27583  -0.27547  -0.27040  -0.25235  -0.24877
  Beta  occ. eigenvalues --   -0.23237  -0.22905  -0.22568  -0.21850  -0.16936
  Beta  occ. eigenvalues --   -0.14479  -0.14064
  Beta virt. eigenvalues --    0.06205   0.06892   0.07274   0.07561   0.07978
  Beta virt. eigenvalues --    0.08594   0.08765   0.08851   0.09120   0.09908
  Beta virt. eigenvalues --    0.10615   0.10834   0.11208   0.11284   0.11841

 Mulliken charges and spin densities:
               1          2
     1  C    1.268998  -1.791771
     2  C   -0.830766   1.166095
     3  C   -1.035677   0.340151
     4  C    0.615854  -0.126984
     5  C   -0.906581   0.384008
     6  C    0.326042  -0.540583
     7  C    1.020090   0.036137
     8  C    0.173048  -1.225037
     9  O   -0.114090   0.036115
    10  C    0.298659  -0.675527
    11  C   -0.074158  -0.302745
    12  C   -0.923820   1.464433
    13  C    0.702588  -1.386359
    14  C    0.569579  -1.269795
    15  C   -0.254115  -0.256704
    16  H   -0.579893   0.735916
    17  H   -0.043703   0.210817
    18  H   -0.250740   0.424955
    19  H    0.627374  -0.498243
    20  H    0.131124  -0.030977
    21  H    0.018156   0.167889
    22  H    0.034535   0.116494
    23  H   -0.214383   0.352880
    24  H   -0.011084   0.165467
    25  H   -0.039777   0.189535
    26  H    0.127485   0.057196
    27  H   -0.052469   0.209411
    28  H    0.006008   0.139026
    29  H   -0.429904   0.574694
    30  H   -0.136703   0.287778
    31  H    0.029014   0.114932
    32  H    0.003034   0.138473
    33  H   -0.086162   0.238401
    34  H   -0.414737   0.561869
    35  H   -0.102167   0.237449
    36  H   -0.126862   0.262495
    37  H   -0.323797   0.492108
 Sum of Mulliken charges =  -1.00000   1.00000

 Dipole moment (field-independent basis, Debye):
    X=              2.2979    Y=             -3.3679    Z=             -0.7210  Tot=              4.1404
 Quadrupole moment (field-independent basis, Debye-Ang):
   XX=           -177.4330   YY=           -147.8187   ZZ=           -129.3594
   XY=             -2.5631   XZ=              0.0496   YZ=              1.2507

 Summary of Natural Population Analysis:

                                       Natural Population
                Natural  -----------------------------------------------
    Atom  No    Charge         Core      Valence    Rydberg      Total
 -----------------------------------------------------------------------
      C    1   -0.29580      0.99963     2.28986    0.00630     3.29580
      C    2   -0.00441      0.99948     1.99458    0.01035     3.00441
      C    3   -0.10252      0.99946     2.09388    0.00918     3.10252
      C    4    0.00402      0.99948     1.98462    0.01188     2.99598
      C    5   -0.10691      0.99946     2.09967    0.00778     3.10691
      C    6    0.00126      0.99948     1.99021    0.00905     2.99874
      C    7   -0.04500      0.99941     2.03574    0.00984     3.04500
      C    8   -0.01936      0.99954     2.00670    0.01312     3.01936
      O    9   -0.30012      0.99989     3.29048    0.00974     4.30012
      C   10   -0.10151      0.99961     2.09220    0.00970     3.10151
      C   11   -0.29742      0.99963     2.29294    0.00485     3.29742
      C   12   -0.05386      0.99956     2.04214    0.01216     3.05386
      C   13   -0.27935      0.99963     2.27267    0.00706     3.27935
      C   14   -0.27933      0.99963     2.27265    0.00706     3.27933
      C   15   -0.28693      0.99964     2.27976    0.00753     3.28693
      H   16    0.10556      0.00000     0.39315    0.00130     0.39444
      H   17    0.10478      0.00000     0.39370    0.00152     0.39522
      H   18    0.10374      0.00000     0.39508    0.00118     0.39626
      H   19    0.10013      0.00000     0.39794    0.00193     0.39987
      H   20    0.10053      0.00000     0.39785    0.00162     0.39947
      H   21    0.09392      0.00000     0.40460    0.00148     0.40608
      H   22    0.08701      0.00000     0.41154    0.00145     0.41299
      H   23    0.07795      0.00000     0.42056    0.00149     0.42205
      H   24    0.08507      0.00000     0.41355    0.00138     0.41493
      H   25    0.08858      0.00000     0.41045    0.00098     0.41142
      H   26    0.11289      0.00000     0.38550    0.00161     0.38711
      H   27    0.10045      0.00000     0.39864    0.00091     0.39955
      H   28    0.10112      0.00000     0.39762    0.00126     0.39888
      H   29    0.10166      0.00000     0.39709    0.00125     0.39834
      H   30    0.09842      0.00000     0.40052    0.00106     0.40158
      H   31    0.10109      0.00000     0.39790    0.00101     0.39891
      H   32    0.10068      0.00000     0.39838    0.00094     0.39932
      H   33    0.09845      0.00000     0.40053    0.00102     0.40155
      H   34    0.10155      0.00000     0.39725    0.00121     0.39845
      H   35    0.10077      0.00000     0.39816    0.00107     0.39923
      H   36    0.10109      0.00000     0.39783    0.00108     0.39891
      H   37    0.10179      0.00000     0.39723    0.00098     0.39821
 =======================================================================
   * Total *    0.00000     14.99354    41.84316    0.16330    57.00000

 Normal termination of Gaussian 16 at Thu Dec 10 18:22:38 2020.
