 Gaussian 16, Revision A.03,

 -----------------------------------------------------------
 # opt freq B3LYP/6-31G(d) empiricaldispersion=gd3bj scf=xqc
 -----------------------------------------------------------

 -------------------------------
 CID_119801433_JID_8865_neutraal
 -------------------------------
 Symbolic Z-matrix:
 Charge =  0 Multiplicity = 1

 SCF Done:  E(RB3LYP) =  -1129.73117709     A.U. after   15 cycles
 SCF Done:  E(RB3LYP) =  -1129.73831741     A.U. after   13 cycles
 SCF Done:  E(RB3LYP) =  -1129.73873776     A.U. after   13 cycles
 SCF Done:  E(RB3LYP) =  -1129.74172530     A.U. after   12 cycles
 SCF Done:  E(RB3LYP) =  -1129.74333346     A.U. after   13 cycles
 SCF Done:  E(RB3LYP) =  -1129.74376814     A.U. after   13 cycles
 SCF Done:  E(RB3LYP) =  -1129.74464143     A.U. after   12 cycles
 SCF Done:  E(RB3LYP) =  -1129.74436601     A.U. after   13 cycles
 SCF Done:  E(RB3LYP) =  -1129.74546209     A.U. after   11 cycles
 SCF Done:  E(RB3LYP) =  -1129.74560334     A.U. after   11 cycles
 SCF Done:  E(RB3LYP) =  -1129.74605754     A.U. after    9 cycles
 SCF Done:  E(RB3LYP) =  -1129.74605844     A.U. after    8 cycles
 SCF Done:  E(RB3LYP) =  -1129.74605861     A.U. after    7 cycles
 SCF Done:  E(RB3LYP) =  -1129.74605867     A.U. after    7 cycles
 SCF Done:  E(RB3LYP) =  -1129.74605869     A.U. after    6 cycles
 Optimization completed.
    -- Stationary point found.
 Normal termination of Gaussian 16 at Fri Dec 11 22:26:50 2020.

 --------------------------------------------------------------------
 #N Geom=AllCheck Guess=TCheck SCRF=Check GenChk RB3LYP/6-31G(d) Freq
 --------------------------------------------------------------------

 Structure from the checkpoint file:  "JID_8865.chk"
 -------------------------------
 CID_119801433_JID_8865_neutraal
 -------------------------------
 Charge =  0 Multiplicity = 1

 SCF Done:  E(RB3LYP) =  -1129.74605869     A.U. after    1 cycles

  Exact polarizability: 230.423  -3.938 169.726  -9.660  12.267 145.417
 Approx polarizability: 319.934 -18.619 270.995 -21.095  29.685 220.083

                      1                      2                      3
                      A                      A                      A
 Frequencies --     17.9091                26.7719                32.7398
 Red. masses --      3.9184                 4.0705                 3.3926
 Frc consts  --      0.0007                 0.0017                 0.0021
 IR Inten    --      0.1387                 0.5509                 1.4854

                      4                      5                      6
                      A                      A                      A
 Frequencies --     51.2456                74.0376                74.9913
 Red. masses --      3.5648                 3.9579                 3.3513
 Frc consts  --      0.0055                 0.0128                 0.0111
 IR Inten    --      1.2810                 1.8047                 1.6338

                      7                      8                      9
                      A                      A                      A
 Frequencies --    102.6699               126.0727               137.4454
 Red. masses --      3.9474                 1.6883                 1.7244
 Frc consts  --      0.0245                 0.0158                 0.0192
 IR Inten    --      2.7398                 0.3754                 2.9863

                     10                     11                     12
                      A                      A                      A
 Frequencies --    152.8209               160.8111               192.3276
 Red. masses --      2.3211                 3.3989                 3.9504
 Frc consts  --      0.0319                 0.0518                 0.0861
 IR Inten    --      0.7602                 1.5801                 1.1552

                     13                     14                     15
                      A                      A                      A
 Frequencies --    210.2111               245.2376               251.6180
 Red. masses --      3.2040                 1.1444                 1.5639
 Frc consts  --      0.0834                 0.0406                 0.0583
 IR Inten    --      1.0035                 0.2217                 0.0424

                     16                     17                     18
                      A                      A                      A
 Frequencies --    252.8207               279.4125               300.1221
 Red. masses --      1.3422                 2.1237                 2.3681
 Frc consts  --      0.0505                 0.0977                 0.1257
 IR Inten    --      1.6136                 0.1882                 4.1222

                     19                     20                     21
                      A                      A                      A
 Frequencies --    314.8631               332.9407               343.4012
 Red. masses --      2.9483                 3.5430                 4.2855
 Frc consts  --      0.1722                 0.2314                 0.2978
 IR Inten    --      7.7359                 4.3319                 1.5831

                     22                     23                     24
                      A                      A                      A
 Frequencies --    350.1861               356.7616               419.9715
 Red. masses --      2.4780                 2.6759                 3.5869
 Frc consts  --      0.1790                 0.2007                 0.3727
 IR Inten    --      0.6935                 0.7697                 3.4610

                     25                     26                     27
                      A                      A                      A
 Frequencies --    446.6332               482.9825               505.3247
 Red. masses --      2.5891                 3.4611                 4.1230
 Frc consts  --      0.3043                 0.4757                 0.6203
 IR Inten    --      0.1211                 4.4435                 0.5902

                     28                     29                     30
                      A                      A                      A
 Frequencies --    530.8787               538.3673               571.6212
 Red. masses --      3.8945                 3.6338                 2.1195
 Frc consts  --      0.6467                 0.6205                 0.4080
 IR Inten    --      1.3272                 1.4355                23.9905

                     31                     32                     33
                      A                      A                      A
 Frequencies --    597.7393               610.0809               651.2160
 Red. masses --      3.0386                 2.5134                 5.5271
 Frc consts  --      0.6397                 0.5512                 1.3810
 IR Inten    --      5.5619                34.4830                 2.5536

                     34                     35                     36
                      A                      A                      A
 Frequencies --    702.8270               720.8802               746.0541
 Red. masses --      3.7786                 4.1185                 2.9155
 Frc consts  --      1.0997                 1.2610                 0.9561
 IR Inten    --     21.3490                46.2026                 9.6787

                     37                     38                     39
                      A                      A                      A
 Frequencies --    785.4202               822.0193               833.0993
 Red. masses --      3.4435                 1.6935                 3.9729
 Frc consts  --      1.2516                 0.6742                 1.6246
 IR Inten    --      3.6908                17.0035                 3.2084

                     40                     41                     42
                      A                      A                      A
 Frequencies --    839.7652               880.5297               892.1189
 Red. masses --      1.3385                 2.7935                 2.5177
 Frc consts  --      0.5562                 1.2761                 1.1806
 IR Inten    --     78.6350                 6.1782                 8.3250

                     43                     44                     45
                      A                      A                      A
 Frequencies --    906.0274               943.3870               947.4045
 Red. masses --      2.2951                 1.1582                 1.3576
 Frc consts  --      1.1100                 0.6073                 0.7179
 IR Inten    --      0.6195                 0.8535                 0.7579

                     46                     47                     48
                      A                      A                      A
 Frequencies --    957.3363               967.4720               993.8585
 Red. masses --      2.0715                 1.4477                 1.7689
 Frc consts  --      1.1186                 0.7984                 1.0295
 IR Inten    --      6.2490                 0.0475                 3.6979

                     49                     50                     51
                      A                      A                      A
 Frequencies --   1002.1395              1023.5237              1066.8894
 Red. masses --      1.4149                 1.4769                 1.4913
 Frc consts  --      0.8372                 0.9116                 1.0001
 IR Inten    --      1.6489                46.3352                 4.3361

                     52                     53                     54
                      A                      A                      A
 Frequencies --   1086.5241              1098.7650              1116.7856
 Red. masses --      1.6383                 1.5407                 2.2849
 Frc consts  --      1.1395                 1.0959                 1.6790
 IR Inten    --     12.2013                12.9936                 7.4060

                     55                     56                     57
                      A                      A                      A
 Frequencies --   1140.7291              1149.2307              1161.5826
 Red. masses --      2.2644                 2.4691                 1.4589
 Frc consts  --      1.7361                 1.9213                 1.1598
 IR Inten    --      1.6203                21.9537                21.1204

                     58                     59                     60
                      A                      A                      A
 Frequencies --   1193.2069              1194.7379              1203.0589
 Red. masses --      1.4454                 1.7394                 1.6082
 Frc consts  --      1.2125                 1.4628                 1.3714
 IR Inten    --      3.4330                 8.6388                 4.3436

                     61                     62                     63
                      A                      A                      A
 Frequencies --   1212.2200              1225.7462              1269.1827
 Red. masses --      1.3156                 2.0832                 2.3871
 Frc consts  --      1.1390                 1.8441                 2.2656
 IR Inten    --      0.5073                 1.1081                 9.3470

                     64                     65                     66
                      A                      A                      A
 Frequencies --   1281.4307              1292.8798              1319.6827
 Red. masses --      1.4788                 1.4625                 1.7987
 Frc consts  --      1.4307                 1.4403                 1.8456
 IR Inten    --     23.9557                 3.6870                17.8561

                     67                     68                     69
                      A                      A                      A
 Frequencies --   1322.9992              1348.5429              1351.9780
 Red. masses --      1.2779                 1.7757                 1.3411
 Frc consts  --      1.3179                 1.9026                 1.4443
 IR Inten    --      7.7964               140.1829                 5.3896

                     70                     71                     72
                      A                      A                      A
 Frequencies --   1356.9479              1425.0398              1427.9459
 Red. masses --      4.2094                 1.9877                 1.2457
 Frc consts  --      4.5667                 2.3782                 1.4966
 IR Inten    --     45.1735               142.3334                 4.9686

                     73                     74                     75
                      A                      A                      A
 Frequencies --   1444.3005              1446.8916              1452.9890
 Red. masses --      1.2309                 1.2288                 2.0425
 Frc consts  --      1.5129                 1.5157                 2.5405
 IR Inten    --      2.2065                 1.5594                18.0115

                     76                     77                     78
                      A                      A                      A
 Frequencies --   1482.0584              1496.2755              1510.5490
 Red. masses --      1.1834                 1.1426                 1.2582
 Frc consts  --      1.5315                 1.5071                 1.6915
 IR Inten    --     11.7146                 5.7908                 9.0023

                     79                     80                     81
                      A                      A                      A
 Frequencies --   1511.6897              1513.5158              1518.7664
 Red. masses --      1.5105                 1.0562                 1.1800
 Frc consts  --      2.0337                 1.4255                 1.6037
 IR Inten    --      5.4639                 1.2543                19.1118

                     82                     83                     84
                      A                      A                      A
 Frequencies --   1519.8921              1524.4501              1526.3361
 Red. masses --      1.0772                 1.2393                 1.3603
 Frc consts  --      1.4662                 1.6969                 1.8671
 IR Inten    --      7.6113                21.3828                41.7273

                     85                     86                     87
                      A                      A                      A
 Frequencies --   1529.8777              1537.0029              1537.6967
 Red. masses --      1.1130                 1.1493                 1.0970
 Frc consts  --      1.5348                 1.5996                 1.5283
 IR Inten    --      9.0474                36.2900                16.6186

                     88                     89                     90
                      A                      A                      A
 Frequencies --   1546.8723              1547.0369              1644.2028
 Red. masses --      1.0707                 1.2718                 5.5592
 Frc consts  --      1.5095                 1.7933                 8.8547
 IR Inten    --      1.8183                 7.9575                31.8031

                     91                     92                     93
                      A                      A                      A
 Frequencies --   1657.4388              1785.0096              2966.6205
 Red. masses --      5.5621                 7.9509                 1.0591
 Frc consts  --      9.0025                14.9262                 5.4915
 IR Inten    --      4.8828               488.4068                81.4957

                     94                     95                     96
                      A                      A                      A
 Frequencies --   2974.7285              3032.6569              3046.2696
 Red. masses --      1.0716                 1.0541                 1.0475
 Frc consts  --      5.5871                 5.7119                 5.7272
 IR Inten    --     75.5187                25.7467                19.9139

                     97                     98                     99
                      A                      A                      A
 Frequencies --   3050.8851              3055.5697              3072.8727
 Red. masses --      1.0686                 1.0505                 1.0709
 Frc consts  --      5.8600                 5.7789                 5.9581
 IR Inten    --     12.8099                31.2161                10.8376

                    100                    101                    102
                      A                      A                      A
 Frequencies --   3077.9893              3098.7458              3109.9286
 Red. masses --      1.0764                 1.0878                 1.0891
 Frc consts  --      6.0082                 6.1540                 6.2059
 IR Inten    --     28.9335                12.6547                20.4582

                    103                    104                    105
                      A                      A                      A
 Frequencies --   3117.2008              3123.5180              3126.6779
 Red. masses --      1.0962                 1.0930                 1.1021
 Frc consts  --      6.2758                 6.2829                 6.3477
 IR Inten    --     14.2011                28.3015                33.6112

                    106                    107                    108
                      A                      A                      A
 Frequencies --   3141.3653              3154.1359              3155.0283
 Red. masses --      1.1028                 1.1019                 1.0965
 Frc consts  --      6.4121                 6.4588                 6.4306
 IR Inten    --     24.0197                 9.5982                18.7430

                    109                    110                    111
                      A                      A                      A
 Frequencies --   3175.7796              3188.4644              3198.9842
 Red. masses --      1.0905                 1.0883                 1.0920
 Frc consts  --      6.4800                 6.5190                 6.5839
 IR Inten    --     20.9626                15.6955                 2.6945

                    112                    113                    114
                      A                      A                      A
 Frequencies --   3211.6362              3493.8319              3567.1854
 Red. masses --      1.0958                 1.0740                 1.0750
 Frc consts  --      6.6594                 7.7241                 8.0592
 IR Inten    --     13.6393                 1.9169                17.7423

 - Thermochemistry -
 -------------------
 Temperature   298.150 Kelvin.  Pressure   1.00000 Atm.
 Atom     1 has atomic number  6 and mass  12.00000

 Molecular mass:   266.14529 amu.
 Principal axes and moments of inertia in atomic units:
                           1         2         3
     Eigenvalues --  2799.590919425.021209827.90105
           X            0.99969   0.02445   0.00528
           Y           -0.02422   0.99889  -0.04028
           Z           -0.00626   0.04014   0.99917
 This molecule is an asymmetric top.
 Rotational symmetry number  1.
 Warning -- assumption of classical behavior for rotation
           may cause significant error
 Rotational temperatures (Kelvin)      0.03094     0.00919     0.00881
 Rotational constants (GHZ):           0.64464     0.19148     0.18363
 Zero-point vibrational energy     908115.9 (Joules/Mol)
                                  217.04492 (Kcal/Mol)
 Warning -- explicit consideration of  32 degrees of freedom as
           vibrations may cause significant error
 Vibrational temperatures:     25.77    38.52    47.11    73.73   106.52
          (Kelvin)            107.90   147.72   181.39   197.75   219.88
                              231.37   276.72   302.45   352.84   362.02
                              363.75   402.01   431.81   453.02   479.03
                              494.08   503.84   513.30   604.25   642.61
                              694.90   727.05   763.82   774.59   822.44
                              860.01   877.77   936.95  1011.21  1037.19
                             1073.41  1130.04  1182.70  1198.64  1208.23
                             1266.89  1283.56  1303.57  1357.32  1363.10
                             1377.39  1391.98  1429.94  1441.86  1472.62
                             1535.02  1563.27  1580.88  1606.81  1641.25
                             1653.49  1671.26  1716.76  1718.96  1730.93
                             1744.11  1763.58  1826.07  1843.69  1860.17
                             1898.73  1903.50  1940.25  1945.19  1952.35
                             2050.31  2054.50  2078.03  2081.75  2090.53
                             2132.35  2152.81  2173.34  2174.98  2177.61
                             2185.17  2186.79  2193.34  2196.06  2201.15
                             2211.40  2212.40  2225.60  2225.84  2365.64
                             2384.68  2568.23  4268.31  4279.97  4363.32
                             4382.90  4389.54  4396.28  4421.18  4428.54
                             4458.40  4474.49  4484.96  4494.05  4498.59
                             4519.72  4538.10  4539.38  4569.24  4587.49
                             4602.62  4620.83  5026.84  5132.38

 Zero-point correction=                           0.345883 (Hartree/Particle)
 Thermal correction to Energy=                    0.365957
 Thermal correction to Enthalpy=                  0.366901
 Thermal correction to Gibbs Free Energy=         0.295333
 Sum of electronic and zero-point Energies=          -1129.400176
 Sum of electronic and thermal Energies=             -1129.380102
 Sum of electronic and thermal Enthalpies=           -1129.379158
 Sum of electronic and thermal Free Energies=        -1129.450726

                     E (Thermal)             CV                S
                      KCal/Mol        Cal/Mol-Kelvin    Cal/Mol-Kelvin
 Total                  229.641             74.211            150.627
 Electronic               0.000              0.000              0.000
 Translational            0.889              2.981             42.636
 Rotational               0.889              2.981             33.916
 Vibrational            227.864             68.250             74.075
 Vibration     1          0.593              1.986              6.853
 Vibration     2          0.593              1.984              6.055
 Vibration     3          0.594              1.983              5.656
 Vibration     4          0.596              1.977              4.769
 Vibration     5          0.599              1.966              4.043
 Vibration     6          0.599              1.966              4.018
 Vibration     7          0.605              1.947              3.403
 Vibration     8          0.611              1.927              3.005
 Vibration     9          0.614              1.916              2.839
 Vibration    10          0.619              1.900              2.637
 Vibration    11          0.622              1.890              2.540
 Vibration    12          0.634              1.850              2.205
 Vibration    13          0.642              1.825              2.042
 Vibration    14          0.660              1.771              1.765
 Vibration    15          0.664              1.760              1.719
 Vibration    16          0.664              1.758              1.711
 Vibration    17          0.680              1.712              1.537
 Vibration    18          0.693              1.673              1.416
 Vibration    19          0.702              1.645              1.337
 Vibration    20          0.715              1.610              1.246
 Vibration    21          0.722              1.589              1.196
 Vibration    22          0.727              1.575              1.165
 Vibration    23          0.732              1.561              1.136
 Vibration    24          0.783              1.427              0.892
 Vibration    25          0.806              1.368              0.806
 Vibration    26          0.839              1.288              0.702
 Vibration    27          0.861              1.238              0.645
 Vibration    28          0.886              1.182              0.585
 Vibration    29          0.893              1.165              0.569
 Vibration    30          0.928              1.093              0.501
 Vibration    31          0.956              1.037              0.454
 Vibration    32          0.969              1.010              0.433

                           ! Non-Optimized Parameters !
 Normal termination of Gaussian 16 at Fri Dec 11 22:45:43 2020.

 ----------------------------------------------------------------------
 # B3LYP/6-311++G(d,p) empiricaldispersion=gd3bj scf=xqc pop=npa geom=c
 heck
 ----------------------------------------------------------------------

 ---------------------------------------
 CID_119801433_JID_8865_Energie_neutraal
 ---------------------------------------
 Structure from the checkpoint file:  "JID_8865.chk"
 Charge =  0 Multiplicity = 1

 SCF Done:  E(RB3LYP) =  -1129.98023548     A.U. after   15 cycles
 Normal termination of Gaussian 16 at Fri Dec 11 22:55:06 2020.

 ----------------------------------------------------------------------
 # B3LYP/6-311++G(d,p) empiricaldispersion=gd3bj scf=xqc pop=npa geom=c
 heck
 ----------------------------------------------------------------------

 -------------------------------------
 CID_119801433_JID_8865_Energie_kation
 -------------------------------------
 Structure from the checkpoint file:  "JID_8865.chk"
 Charge =  1 Multiplicity = 2

 SCF Done:  E(UB3LYP) =  -1129.69606737     A.U. after   29 cycles
 Normal termination of Gaussian 16 at Fri Dec 11 23:21:15 2020.
 Gaussian 16:  ES64L-G16RevA.03 25-Dec-2016

 ----------------------------------------------------------------------
 # B3LYP/6-311++G(d,p) empiricaldispersion=gd3bj scf=xqc pop=npa geom=c
 heck
 ----------------------------------------------------------------------

 ------------------------------------
 CID_119801433_JID_8865_Energie_anion
 ------------------------------------
 Structure from the checkpoint file:  "JID_8865.chk"
 Charge = -1 Multiplicity = 2

                         Standard orientation:
 ---------------------------------------------------------------------
 Center     Atomic      Atomic             Coordinates (Angstroms)
 Number     Number       Type             X           Y           Z
 ---------------------------------------------------------------------
      1          6           0        0.633258    2.431564   -0.069789
      2          6           0        0.386099    1.070053   -0.677347
      3          6           0        1.403533    0.230920   -1.169459
      4          6           0        1.068112   -1.013223   -1.723466
      5          6           0       -0.251690   -1.436026   -1.797748
      6          6           0       -1.274147   -0.615716   -1.325997
      7          6           0       -0.951941    0.619233   -0.760013
      8          7           0       -1.980122    1.472747   -0.281439
      9          6           0       -3.147459    1.154032    0.370931
     10          8           0       -4.046591    1.977746    0.488394
     11          6           0       -3.296828   -0.238693    0.969605
     12          7           0       -4.230922   -0.993298    0.137319
     13          6           0       -4.553700   -2.297995    0.702564
     14          6           0        2.870160    0.606029   -1.121477
     15         16           0        3.988811   -0.626211   -0.327736
     16          6           0        3.449257   -0.670302    1.443734
     17          6           0        3.462513    0.709283    2.102412
     18          6           0        2.123985   -1.404884    1.667190
     19          1           0        0.044132    2.557793    0.844625
     20          1           0        1.679266    2.603774    0.181583
     21          1           0        0.337613    3.239031   -0.754985
     22          1           0        1.867823   -1.657124   -2.075913
     23          1           0       -0.492803   -2.399511   -2.237347
     24          1           0       -2.316027   -0.916018   -1.392612
     25          1           0       -1.958116    2.444002   -0.573181
     26          1           0       -2.345484   -0.776203    1.011126
     27          1           0       -3.655019   -0.096558    2.004441
     28          1           0       -5.078191   -0.434963    0.044049
     29          1           0       -4.932138   -2.256402    1.740094
     30          1           0       -5.306260   -2.788449    0.077567
     31          1           0       -3.654262   -2.924628    0.700512
     32          1           0        3.272743    0.668167   -2.138991
     33          1           0        3.039363    1.580388   -0.666073
     34          1           0        4.257476   -1.269841    1.881350
     35          1           0        2.656318    1.339752    1.714670
     36          1           0        3.303013    0.608737    3.183042
     37          1           0        4.414562    1.222854    1.939358
     38          1           0        2.128361   -2.385325    1.183604
     39          1           0        1.959430   -1.547986    2.743111
     40          1           0        1.280355   -0.835864    1.268587
 ---------------------------------------------------------------------

 SCF Done:  E(UB3LYP) =  -1129.96998236     A.U. after   33 cycles
 SCF Done:  E(UB3LYP) =  -1129.96998236     a.u. after    1 cycles

 The electronic state is 2-A.
 Alpha  occ. eigenvalues --  -88.74116 -19.00333 -14.25724 -14.22001 -10.18568
 Alpha  occ. eigenvalues --  -10.11923 -10.11376 -10.11248 -10.10942 -10.10230
 Alpha  occ. eigenvalues --  -10.09600 -10.09114 -10.08375 -10.07882 -10.07444
 Alpha  occ. eigenvalues --  -10.07290 -10.06952 -10.06511  -7.82735  -5.79139
 Alpha  occ. eigenvalues --   -5.78759  -5.78093  -0.95569  -0.84942  -0.82379
 Alpha  occ. eigenvalues --   -0.76531  -0.72625  -0.69081  -0.67809  -0.64193
 Alpha  occ. eigenvalues --   -0.63116  -0.60147  -0.59690  -0.56626  -0.55843
 Alpha  occ. eigenvalues --   -0.52856  -0.49982  -0.48032  -0.46477  -0.43123
 Alpha  occ. eigenvalues --   -0.42494  -0.40180  -0.38546  -0.37770  -0.37238
 Alpha  occ. eigenvalues --   -0.36032  -0.35637  -0.34969  -0.34007  -0.33538
 Alpha  occ. eigenvalues --   -0.32499  -0.32172  -0.31760  -0.31382  -0.31040
 Alpha  occ. eigenvalues --   -0.30056  -0.29824  -0.29609  -0.28382  -0.28203
 Alpha  occ. eigenvalues --   -0.26699  -0.26372  -0.25946  -0.25212  -0.24094
 Alpha  occ. eigenvalues --   -0.20855  -0.20296  -0.17479  -0.15389  -0.15062
 Alpha  occ. eigenvalues --   -0.14122  -0.12847   0.04030
 Alpha virt. eigenvalues --    0.05660   0.05889   0.06362   0.07246   0.07521
 Alpha virt. eigenvalues --    0.07965   0.08415   0.08576   0.08882   0.09325
 Alpha virt. eigenvalues --    0.09954   0.10247   0.10379   0.10733   0.11151

  Beta  occ. eigenvalues --  -88.74114 -19.00291 -14.25737 -14.21991 -10.18519
  Beta  occ. eigenvalues --  -10.11837 -10.11366 -10.11240 -10.10930 -10.10195
  Beta  occ. eigenvalues --  -10.09608 -10.09093 -10.08352 -10.07888 -10.07413
  Beta  occ. eigenvalues --  -10.07259 -10.06859 -10.06491  -7.82731  -5.79137
  Beta  occ. eigenvalues --   -5.78757  -5.78089  -0.95493  -0.84884  -0.82354
  Beta  occ. eigenvalues --   -0.76453  -0.72591  -0.69020  -0.67736  -0.64142
  Beta  occ. eigenvalues --   -0.63016  -0.60086  -0.59638  -0.56547  -0.55783
  Beta  occ. eigenvalues --   -0.52755  -0.49927  -0.47967  -0.46429  -0.43065
  Beta  occ. eigenvalues --   -0.42449  -0.40137  -0.38469  -0.37706  -0.37179
  Beta  occ. eigenvalues --   -0.35998  -0.35582  -0.34928  -0.33949  -0.33484
  Beta  occ. eigenvalues --   -0.32463  -0.32129  -0.31700  -0.31322  -0.30989
  Beta  occ. eigenvalues --   -0.29979  -0.29784  -0.29561  -0.28337  -0.28152
  Beta  occ. eigenvalues --   -0.26535  -0.26309  -0.25918  -0.25165  -0.23993
  Beta  occ. eigenvalues --   -0.20803  -0.20138  -0.17438  -0.15239  -0.15019
  Beta  occ. eigenvalues --   -0.13914  -0.12697
  Beta virt. eigenvalues --    0.05963   0.06346   0.06546   0.06968   0.07509
  Beta virt. eigenvalues --    0.07687   0.08276   0.08580   0.08812   0.09170
  Beta virt. eigenvalues --    0.09564   0.10238   0.10477   0.10530   0.10903

 Mulliken charges and spin densities:
               1          2
     1  C   -0.107080  -0.657349
     2  C    0.159151   0.035903
     3  C    1.091180  -0.153133
     4  C   -0.930155   0.325382
     5  C   -0.789515   0.276689
     6  C    0.110597  -0.073551
     7  C   -0.577294   0.433882
     8  N   -0.133917   0.019745
     9  C   -0.199575   0.084286
    10  O   -0.324189   0.015398
    11  C   -0.256704  -0.145986
    12  N   -0.223058   0.135676
    13  C    0.506064  -0.841124
    14  C    0.474662  -0.987345
    15  S    0.484721  -0.373365
    16  C   -0.778671   0.948370
    17  C    0.262892  -1.006011
    18  C    0.039550  -0.728132
    19  H    0.074099   0.130985
    20  H   -0.151009   0.210106
    21  H   -0.172469   0.342798
    22  H   -0.023389   0.149888
    23  H   -0.032238   0.188491
    24  H    0.346488  -0.068860
    25  H    0.279214   0.034130
    26  H    0.268652  -0.091028
    27  H    0.015719   0.145911
    28  H    0.214717   0.032680
    29  H   -0.166261   0.281716
    30  H   -0.228318   0.357946
    31  H   -0.178714   0.328801
    32  H   -0.077916   0.301462
    33  H    0.181576   0.000861
    34  H   -0.059166   0.300272
    35  H    0.169629  -0.007845
    36  H   -0.194612   0.331967
    37  H   -0.153116   0.303469
    38  H    0.017499   0.103756
    39  H   -0.158675   0.311635
    40  H    0.219628   0.001521
 Sum of Mulliken charges =  -1.00000   1.00000

 Dipole moment (field-independent basis, Debye):
    X=              0.6166    Y=              0.9794    Z=             -2.3169  Tot=              2.5899
 Quadrupole moment (field-independent basis, Debye-Ang):
   XX=           -214.0615   YY=           -163.9435   ZZ=           -159.7246
   XY=             -3.3218   XZ=              0.4131   YZ=              1.2794

 Summary of Natural Population Analysis:

                                       Natural Population
                Natural  -----------------------------------------------
    Atom  No    Charge         Core      Valence    Rydberg      Total
 -----------------------------------------------------------------------
      C    1   -0.29870      0.99963     2.29309    0.00598     3.29870
      C    2   -0.02532      0.99944     2.01654    0.00935     3.02532
      C    3   -0.02366      0.99946     2.01291    0.01129     3.02366
      C    4   -0.08175      0.99951     2.07351    0.00874     3.08175
      C    5   -0.09878      0.99956     2.09000    0.00923     3.09878
      C    6   -0.10944      0.99952     2.10182    0.00810     3.10944
      C    7    0.08430      0.99943     1.90589    0.01038     2.91570
      N    8   -0.31260      0.99964     2.80394    0.00902     3.81260
      C    9    0.35164      0.99968     1.62677    0.02191     2.64836
      O   10   -0.32222      0.99988     3.31636    0.00598     4.32222
      C   11   -0.13032      0.99959     2.12029    0.01044     3.13032
      N   12   -0.33746      0.99975     2.82689    0.01082     3.83746
      C   13   -0.17952      0.99967     2.17135    0.00851     3.17952
      C   14   -0.25697      0.99953     2.24593    0.01150     3.25697
      S   15    0.08683      4.99962     2.89727    0.01628     7.91317
      C   16   -0.16731      0.99959     2.15491    0.01281     3.16731
      C   17   -0.29074      0.99963     2.28459    0.00652     3.29074
      C   18   -0.29023      0.99963     2.28333    0.00728     3.29023
      H   19    0.10804      0.00000     0.39081    0.00115     0.39196
      H   20    0.10404      0.00000     0.39499    0.00097     0.39596
      H   21    0.10344      0.00000     0.39530    0.00126     0.39656
      H   22    0.10344      0.00000     0.39525    0.00131     0.39656
      H   23    0.09971      0.00000     0.39948    0.00081     0.40029
      H   24    0.11484      0.00000     0.38297    0.00219     0.38516
      H   25    0.19716      0.00000     0.30028    0.00256     0.30284
      H   26    0.10267      0.00000     0.39534    0.00199     0.39733
      H   27    0.09226      0.00000     0.40645    0.00129     0.40774
      H   28    0.17553      0.00000     0.32157    0.00290     0.32447
      H   29    0.08000      0.00000     0.41849    0.00151     0.42000
      H   30    0.09585      0.00000     0.40317    0.00099     0.40415
      H   31    0.09441      0.00000     0.40419    0.00140     0.40559
      H   32    0.11438      0.00000     0.38427    0.00135     0.38562
      H   33    0.10491      0.00000     0.39355    0.00155     0.39509
      H   34    0.10121      0.00000     0.39764    0.00115     0.39879
      H   35    0.09825      0.00000     0.40034    0.00141     0.40175
      H   36    0.10283      0.00000     0.39586    0.00131     0.39717
      H   37    0.10262      0.00000     0.39611    0.00128     0.39738
      H   38    0.10320      0.00000     0.39554    0.00126     0.39680
      H   39    0.09904      0.00000     0.39980    0.00116     0.40096
      H   40    0.10445      0.00000     0.39370    0.00186     0.39555
 =======================================================================
   * Total *    0.00000     21.99274    49.79045    0.21680    72.00000

 Normal termination of Gaussian 16 at Fri Dec 11 23:50:32 2020.
