 Gaussian 16, Revision A.03,

 -----------------------------------------------------------
 # opt freq B3LYP/6-31G(d) empiricaldispersion=gd3bj scf=xqc
 -----------------------------------------------------------

 ------------------------------
 CID_150126960_JID_726_neutraal
 ------------------------------
 Symbolic Z-matrix:
 Charge =  0 Multiplicity = 1

 SCF Done:  E(RB3LYP) =  -426.427556569     A.U. after   12 cycles
 SCF Done:  E(RB3LYP) =  -426.436442585     A.U. after   11 cycles
 SCF Done:  E(RB3LYP) =  -426.437635119     A.U. after   10 cycles
 SCF Done:  E(RB3LYP) =  -426.437618137     A.U. after   11 cycles
 SCF Done:  E(RB3LYP) =  -426.438294728     A.U. after   11 cycles
 SCF Done:  E(RB3LYP) =  -426.438416485     A.U. after   10 cycles
 SCF Done:  E(RB3LYP) =  -426.438441869     A.U. after   10 cycles
 SCF Done:  E(RB3LYP) =  -426.438464209     A.U. after    9 cycles
 SCF Done:  E(RB3LYP) =  -426.438466024     A.U. after    7 cycles
 SCF Done:  E(RB3LYP) =  -426.438465893     A.U. after    7 cycles
 SCF Done:  E(RB3LYP) =  -426.438466675     A.U. after    6 cycles
 SCF Done:  E(RB3LYP) =  -426.438466763     A.U. after    7 cycles
 SCF Done:  E(RB3LYP) =  -426.438466933     A.U. after    7 cycles
 SCF Done:  E(RB3LYP) =  -426.438467084     A.U. after    7 cycles
 SCF Done:  E(RB3LYP) =  -426.438467233     A.U. after    7 cycles
 SCF Done:  E(RB3LYP) =  -426.438467286     A.U. after    6 cycles
 Optimization completed.
    -- Stationary point found.

 1\1\GINC-NODE202\FOpt\RB3LYP\6-31G(d)\C8H20N2\VSC10255\08-Dec-2020\0\\
 # opt freq B3LYP/6-31G(d) empiricaldispersion=gd3bj scf=xqc\\CID_15012
 6960_JID_726_neutraal\\0,1\C,1.0609960217,-0.0227992987,0.0460224638\C
 ,0.6750920286,0.575885681,-1.3097165191\C,1.1828327846,-0.2340066574,-
 2.5132609225\C,0.6642526817,-1.6841524391,-2.5977519648\C,-0.879642233
 6,-1.7565778381,-2.5875286458\C,-1.6640589698,-0.8708584119,-3.5712490
 594\C,-1.4846184776,-1.1977488927,-5.058229042\C,1.3286346587,-2.44604
 94811,-3.7706546652\N,2.757524931,-2.652952453,-3.4551131457\N,0.67669

 Normal termination of Gaussian 16 at Tue Dec  8 12:40:48 2020.

 --------------------------------------------------------------------
 #N Geom=AllCheck Guess=TCheck SCRF=Check GenChk RB3LYP/6-31G(d) Freq
 --------------------------------------------------------------------

 Structure from the checkpoint file:  "JID_726.chk"
 ------------------------------
 CID_150126960_JID_726_neutraal
 ------------------------------
 Charge =  0 Multiplicity = 1

 SCF Done:  E(RB3LYP) =  -426.438467286     A.U. after    1 cycles

  Exact polarizability: 108.384   0.589 101.543  -0.482   1.312  87.063
 Approx polarizability: 136.334   0.743 134.771  -2.089   1.776 130.540

                      1                      2                      3
                      A                      A                      A
 Frequencies --     29.1211                54.9013                78.7327
 Red. masses --      2.6916                 2.5692                 3.1137
 Frc consts  --      0.0013                 0.0046                 0.0114
 IR Inten    --      3.2206                 0.4398                 0.0828

                      4                      5                      6
                      A                      A                      A
 Frequencies --    117.5886               125.2573               196.0839
 Red. masses --      2.0874                 2.3599                 1.7792
 Frc consts  --      0.0170                 0.0218                 0.0403
 IR Inten    --      0.4396                 0.2545                 2.0592

                      7                      8                      9
                      A                      A                      A
 Frequencies --    221.7992               240.4034               248.0660
 Red. masses --      1.3885                 1.9715                 1.3232
 Frc consts  --      0.0402                 0.0671                 0.0480
 IR Inten    --     13.6559                17.8051                 7.4722

                     10                     11                     12
                      A                      A                      A
 Frequencies --    267.5710               287.9502               319.6074
 Red. masses --      1.2694                 1.1835                 2.6833
 Frc consts  --      0.0535                 0.0578                 0.1615
 IR Inten    --      2.3689                47.3186                 1.3590

                     13                     14                     15
                      A                      A                      A
 Frequencies --    328.3674               388.7920               398.7194
 Red. masses --      1.8057                 2.2795                 2.4706
 Frc consts  --      0.1147                 0.2030                 0.2314
 IR Inten    --      1.1354                 9.3574                 0.1639

                     16                     17                     18
                      A                      A                      A
 Frequencies --    433.6046               503.1405               511.7310
 Red. masses --      2.6555                 2.2322                 2.3295
 Frc consts  --      0.2942                 0.3329                 0.3594
 IR Inten    --     11.4013                13.1676                12.1018

                     19                     20                     21
                      A                      A                      A
 Frequencies --    597.3764               733.3105               789.1304
 Red. masses --      2.2400                 1.6701                 1.3332
 Frc consts  --      0.4710                 0.5291                 0.4892
 IR Inten    --      4.5795                 6.1716                10.4020

                     22                     23                     24
                      A                      A                      A
 Frequencies --    799.5074               860.1217               880.0319
 Red. masses --      1.5506                 2.2004                 1.6355
 Frc consts  --      0.5840                 0.9591                 0.7463
 IR Inten    --      4.7527                 1.7627                 1.7132

                     25                     26                     27
                      A                      A                      A
 Frequencies --    894.5185               900.8818               909.5267
 Red. masses --      1.5789                 1.5611                 1.9666
 Frc consts  --      0.7444                 0.7465                 0.9585
 IR Inten    --     45.9903                49.1456               104.0616

                     28                     29                     30
                      A                      A                      A
 Frequencies --    952.4521               997.5466              1012.0577
 Red. masses --      1.6190                 1.6819                 1.8533
 Frc consts  --      0.8653                 0.9861                 1.1184
 IR Inten    --     20.6319                18.7814                 7.4786

                     31                     32                     33
                      A                      A                      A
 Frequencies --   1050.3987              1067.2137              1080.7608
 Red. masses --      1.9160                 1.7266                 1.9834
 Frc consts  --      1.2455                 1.1587                 1.3649
 IR Inten    --     43.5330                 2.1494                15.5509

                     34                     35                     36
                      A                      A                      A
 Frequencies --   1086.6081              1100.0005              1114.2662
 Red. masses --      1.7841                 1.8728                 1.5407
 Frc consts  --      1.2411                 1.3352                 1.1270
 IR Inten    --      2.6413                 0.9880                11.7807

                     37                     38                     39
                      A                      A                      A
 Frequencies --   1149.8598              1189.7641              1223.0100
 Red. masses --      1.7833                 1.9922                 1.5985
 Frc consts  --      1.3892                 1.6615                 1.4087
 IR Inten    --      5.9991                 3.5110                 1.1407

                     40                     41                     42
                      A                      A                      A
 Frequencies --   1263.7181              1279.7180              1304.5814
 Red. masses --      1.4098                 1.4400                 1.2389
 Frc consts  --      1.3265                 1.3895                 1.2423
 IR Inten    --      2.7526                 3.9586                 1.9063

                     43                     44                     45
                      A                      A                      A
 Frequencies --   1317.0810              1319.3719              1352.9216
 Red. masses --      1.2626                 1.2396                 1.1999
 Frc consts  --      1.2905                 1.2713                 1.2940
 IR Inten    --      2.6597                 3.5145                 3.0608

                     46                     47                     48
                      A                      A                      A
 Frequencies --   1373.4701              1394.5147              1402.9797
 Red. masses --      1.3260                 1.3458                 1.3401
 Frc consts  --      1.4737                 1.5420                 1.5542
 IR Inten    --      2.9002                12.8878                 4.1151

                     49                     50                     51
                      A                      A                      A
 Frequencies --   1406.2174              1417.6592              1432.9448
 Red. masses --      1.3254                 1.3277                 1.4139
 Frc consts  --      1.5442                 1.5722                 1.7105
 IR Inten    --      2.8389                 2.8301                 1.5418

                     52                     53                     54
                      A                      A                      A
 Frequencies --   1444.5823              1445.5998              1467.9016
 Red. masses --      1.2744                 1.2568                 1.4904
 Frc consts  --      1.5669                 1.5474                 1.8921
 IR Inten    --      2.9898                 7.9683                15.2756

                     55                     56                     57
                      A                      A                      A
 Frequencies --   1506.1885              1511.4407              1525.6297
 Red. masses --      1.0833                 1.0857                 1.0492
 Frc consts  --      1.4480                 1.4614                 1.4388
 IR Inten    --      0.6885                 1.9277                 0.4611

                     58                     59                     60
                      A                      A                      A
 Frequencies --   1526.7603              1531.2619              1534.2225
 Red. masses --      1.0602                 1.0528                 1.0560
 Frc consts  --      1.4561                 1.4545                 1.4646
 IR Inten    --      0.3833                12.2744                 1.4080

                     61                     62                     63
                      A                      A                      A
 Frequencies --   1540.5224              1544.2359              1689.8340
 Red. masses --      1.0746                 1.0648                 1.0915
 Frc consts  --      1.5025                 1.4960                 1.8364
 IR Inten    --      7.9049                10.0529                46.0643

                     64                     65                     66
                      A                      A                      A
 Frequencies --   1698.7919              3006.5453              3021.7637
 Red. masses --      1.0931                 1.0803                 1.0774
 Frc consts  --      1.8586                 5.7533                 5.7964
 IR Inten    --     24.0450                29.5714                24.1964

                     67                     68                     69
                      A                      A                      A
 Frequencies --   3026.7680              3030.4607              3041.3691
 Red. masses --      1.0642                 1.0657                 1.0644
 Frc consts  --      5.7444                 5.7665                 5.8010
 IR Inten    --     32.3778                18.4442                35.6320

                     70                     71                     72
                      A                      A                      A
 Frequencies --   3045.6691              3048.0237              3051.7071
 Red. masses --      1.0429                 1.0611                 1.0408
 Frc consts  --      5.6998                 5.8082                 5.7107
 IR Inten    --     12.8301                82.1679                18.2597

                     73                     74                     75
                      A                      A                      A
 Frequencies --   3058.0292              3063.4864              3081.0420
 Red. masses --      1.1013                 1.0990                 1.0973
 Frc consts  --      6.0682                 6.0767                 6.1371
 IR Inten    --     45.2351                56.0016                35.4994

                     76                     77                     78
                      A                      A                      A
 Frequencies --   3110.3128              3111.4346              3111.9633
 Red. masses --      1.0989                 1.0983                 1.0968
 Frc consts  --      6.2633                 6.2644                 6.2582
 IR Inten    --     22.4276                77.7033                27.2562

                     79                     80                     81
                      A                      A                      A
 Frequencies --   3119.0539              3129.8877              3446.3703
 Red. masses --      1.1019                 1.1021                 1.0495
 Frc consts  --      6.3159                 6.3612                 7.3441
 IR Inten    --     49.2619                38.4418                 2.3828

                     82                     83                     84
                      A                      A                      A
 Frequencies --   3455.6464              3531.8205              3541.0705
 Red. masses --      1.0506                 1.0915                 1.0903
 Frc consts  --      7.3918                 8.0219                 8.0550
 IR Inten    --      6.0715                 1.5598                 2.8387

 - Thermochemistry -
 -------------------
 Temperature   298.150 Kelvin.  Pressure   1.00000 Atm.
 Atom     1 has atomic number  6 and mass  12.00000

 Molecular mass:   144.16265 amu.
 Principal axes and moments of inertia in atomic units:
                           1         2         3
     Eigenvalues --  1364.125021848.102682694.00884
           X            0.99956  -0.02761   0.01081
           Y            0.02762   0.99962  -0.00053
           Z           -0.01079   0.00083   0.99994
 This molecule is an asymmetric top.
 Rotational symmetry number  1.
 Warning -- assumption of classical behavior for rotation
           may cause significant error
 Rotational temperatures (Kelvin)      0.06349     0.04687     0.03215
 Rotational constants (GHZ):           1.32300     0.97654     0.66991
 Zero-point vibrational energy     744103.3 (Joules/Mol)
                                  177.84495 (Kcal/Mol)
 Warning -- explicit consideration of  19 degrees of freedom as
           vibrations may cause significant error
 Vibrational temperatures:     41.90    78.99   113.28   169.18   180.22
          (Kelvin)            282.12   319.12   345.89   356.91   384.97
                              414.30   459.84   472.45   559.38   573.67
                              623.86   723.91   736.27   859.49  1055.07
                             1135.38  1150.31  1237.52  1266.17  1287.01
                             1296.17  1308.61  1370.37  1435.25  1456.13
                             1511.29  1535.48  1554.97  1563.39  1582.66
                             1603.18  1654.39  1711.81  1759.64  1818.21
                             1841.23  1877.00  1894.99  1898.28  1946.55
                             1976.12  2006.40  2018.57  2023.23  2039.70
                             2061.69  2078.43  2079.90  2111.98  2167.07
                             2174.63  2195.04  2196.67  2203.14  2207.40
                             2216.47  2221.81  2431.29  2444.18  4325.75
                             4347.64  4354.84  4360.16  4375.85  4382.04
                             4385.43  4390.73  4399.82  4407.67  4432.93
                             4475.05  4476.66  4477.42  4487.62  4503.21
                             4958.56  4971.90  5081.50  5094.81

 Zero-point correction=                           0.283414 (Hartree/Particle)
 Thermal correction to Energy=                    0.296426
 Thermal correction to Enthalpy=                  0.297370
 Thermal correction to Gibbs Free Energy=         0.244035
 Sum of electronic and zero-point Energies=           -426.155053
 Sum of electronic and thermal Energies=              -426.142041
 Sum of electronic and thermal Enthalpies=            -426.141097
 Sum of electronic and thermal Free Energies=         -426.194432

                     E (Thermal)             CV                S
                      KCal/Mol        Cal/Mol-Kelvin    Cal/Mol-Kelvin
 Total                  186.010             48.139            112.254
 Electronic               0.000              0.000              0.000
 Translational            0.889              2.981             40.808
 Rotational               0.889              2.981             30.297
 Vibrational            184.233             42.177             41.148
 Vibration     1          0.593              1.984              5.888
 Vibration     2          0.596              1.976              4.633
 Vibration     3          0.600              1.963              3.922
 Vibration     4          0.608              1.935              3.140
 Vibration     5          0.610              1.928              3.018
 Vibration     6          0.636              1.845              2.170
 Vibration     7          0.648              1.808              1.944
 Vibration     8          0.657              1.779              1.800
 Vibration     9          0.662              1.766              1.744
 Vibration    10          0.673              1.733              1.612
 Vibration    11          0.685              1.696              1.486
 Vibration    12          0.706              1.636              1.312
 Vibration    13          0.712              1.619              1.268
 Vibration    14          0.757              1.494              1.005
 Vibration    15          0.765              1.473              0.967
 Vibration    16          0.794              1.397              0.847
 Vibration    17          0.858              1.243              0.650
 Vibration    18          0.867              1.224              0.629
 Vibration    19          0.955              1.037              0.454

 Optimization completed.
    -- Stationary point found.

 1\1\GINC-NODE202\Freq\RB3LYP\6-31G(d)\C8H20N2\VSC10255\08-Dec-2020\0\\
 #N Geom=AllCheck Guess=TCheck SCRF=Check GenChk RB3LYP/6-31G(d) Freq\\
 CID_150126960_JID_726_neutraal\\0,1\C,1.0609960217,-0.0227992987,0.046
 0224638\C,0.6750920286,0.575885681,-1.3097165191\C,1.1828327846,-0.234
 0066574,-2.5132609225\C,0.6642526817,-1.6841524391,-2.5977519648\C,-0.
 8796422336,-1.7565778381,-2.5875286458\C,-1.6640589698,-0.8708584119,-
 3.5712490594\C,-1.4846184776,-1.1977488927,-5.058229042\C,1.3286346587
 ,-2.4460494811,-3.7706546652\N,2.757524931,-2.652952453,-3.4551131457\

 Normal termination of Gaussian 16 at Tue Dec  8 13:04:03 2020.

 ----------------------------------------------------------------------
 # B3LYP/6-311++G(d,p) empiricaldispersion=gd3bj scf=xqc pop=npa geom=c
 heck
 ----------------------------------------------------------------------

 --------------------------------------
 CID_150126960_JID_726_Energie_neutraal
 --------------------------------------
 Structure from the checkpoint file:  "JID_726.chk"
 Charge =  0 Multiplicity = 1

 SCF Done:  E(RB3LYP) =  -426.576276792     A.U. after   13 cycles
 Normal termination of Gaussian 16 at Tue Dec  8 13:08:59 2020.

 ----------------------------------------------------------------------
 # B3LYP/6-311++G(d,p) empiricaldispersion=gd3bj scf=xqc pop=npa geom=c
 heck
 ----------------------------------------------------------------------

 ------------------------------------
 CID_150126960_JID_726_Energie_kation
 ------------------------------------
 Structure from the checkpoint file:  "JID_726.chk"
 Charge =  1 Multiplicity = 2

 SCF Done:  E(UB3LYP) =  -426.249325995     A.U. after   23 cycles
 Normal termination of Gaussian 16 at Tue Dec  8 13:17:21 2020.
 Gaussian 16:  ES64L-G16RevA.03 25-Dec-2016

 -----------------------------------
 CID_150126960_JID_726_Energie_anion
 -----------------------------------
 Structure from the checkpoint file:  "JID_726.chk"
 Charge = -1 Multiplicity = 2

                         Standard orientation:
 ---------------------------------------------------------------------
 Center     Atomic      Atomic             Coordinates (Angstroms)
 Number     Number       Type             X           Y           Z
 ---------------------------------------------------------------------
      1          6           0        3.233406   -0.332159    0.591932
      2          6           0        2.459100    0.443648   -0.477623
      3          6           0        1.121611   -0.204749   -0.868710
      4          6           0        0.101587   -0.354701    0.278483
      5          6           0       -0.202941    0.992360    0.972494
      6          6           0       -0.584138    2.200235    0.098857
      7          6           0       -1.913703    2.089302   -0.656204
      8          6           0       -1.155961   -1.126324   -0.191367
      9          7           0       -0.782276   -2.532489   -0.450525
     10          7           0       -2.209596   -1.069017    0.816328
     11          1           0        2.696798   -0.351679    1.546625
     12          1           0        4.214552    0.120323    0.773898
     13          1           0        3.395960   -1.372521    0.283854
     14          1           0        2.292259    1.471482   -0.134087
     15          1           0        3.077611    0.523973   -1.381305
     16          1           0        0.664985    0.377214   -1.680883
     17          1           0        1.351187   -1.190917   -1.294651
     18          1           0        0.550148   -1.004203    1.044153
     19          1           0       -1.000251    0.824586    1.702176
     20          1           0        0.690550    1.271388    1.546389
     21          1           0       -0.636746    3.071384    0.765895
     22          1           0        0.220653    2.424606   -0.613587
     23          1           0       -2.711208    1.734515    0.004654
     24          1           0       -2.209514    3.061976   -1.066729
     25          1           0       -1.848258    1.389284   -1.495642
     26          1           0       -1.564152   -0.634574   -1.086968
     27          1           0       -1.580650   -3.014416   -0.864233
     28          1           0       -0.040155   -2.584123   -1.147048
     29          1           0       -3.055877   -1.501186    0.447000
     30          1           0       -1.918551   -1.652244    1.602700
 ---------------------------------------------------------------------

 SCF Done:  E(UB3LYP) =  -426.560619494     A.U. after   26 cycles

 The electronic state is 2-A.
 Alpha  occ. eigenvalues --  -14.18064 -14.17776 -10.10838 -10.06123 -10.06025
 Alpha  occ. eigenvalues --  -10.05995 -10.05691 -10.05595 -10.05168 -10.04936
 Alpha  occ. eigenvalues --   -0.80862  -0.72380  -0.70610  -0.66969  -0.62803
 Alpha  occ. eigenvalues --   -0.57456  -0.54946  -0.49129  -0.48171  -0.43565
 Alpha  occ. eigenvalues --   -0.39452  -0.37413  -0.36540  -0.35374  -0.33407
 Alpha  occ. eigenvalues --   -0.33149  -0.32506  -0.30375  -0.29485  -0.29121
 Alpha  occ. eigenvalues --   -0.27618  -0.25720  -0.25161  -0.23707  -0.23612
 Alpha  occ. eigenvalues --   -0.23299  -0.20580  -0.20347  -0.20012  -0.14621
 Alpha  occ. eigenvalues --   -0.13479   0.04733
 Alpha virt. eigenvalues --    0.06635   0.07437   0.07986   0.09291   0.09441
 Alpha virt. eigenvalues --    0.09764   0.10625   0.10881   0.12019   0.12302
 Alpha virt. eigenvalues --    0.12460   0.13235   0.13702   0.14059   0.14588

  Beta  occ. eigenvalues --  -14.18030 -14.17726 -10.10821 -10.06107 -10.06021
  Beta  occ. eigenvalues --  -10.05985 -10.05669 -10.05571 -10.05161 -10.04916
  Beta  occ. eigenvalues --   -0.80799  -0.72287  -0.70578  -0.66940  -0.62767
  Beta  occ. eigenvalues --   -0.57412  -0.54884  -0.49059  -0.48114  -0.43520
  Beta  occ. eigenvalues --   -0.39397  -0.37364  -0.36495  -0.35318  -0.33367
  Beta  occ. eigenvalues --   -0.33114  -0.32467  -0.30327  -0.29448  -0.29090
  Beta  occ. eigenvalues --   -0.27578  -0.25683  -0.25135  -0.23677  -0.23576
  Beta  occ. eigenvalues --   -0.23272  -0.20551  -0.20321  -0.19982  -0.14576
  Beta  occ. eigenvalues --   -0.13426
  Beta virt. eigenvalues --    0.06886   0.07775   0.08032   0.08447   0.09627
  Beta virt. eigenvalues --    0.10002   0.10452   0.10996   0.11091   0.12470
  Beta virt. eigenvalues --    0.12603   0.13051   0.13478   0.13988   0.14231

 Mulliken charges and spin densities:
               1          2
     1  C    0.710175  -1.301244
     2  C   -0.809633   0.583660
     3  C    0.305900  -0.671356
     4  C   -0.714543   1.157241
     5  C    0.177178  -0.430442
     6  C   -0.647882   0.348377
     7  C    0.299522  -0.916256
     8  C    2.054615  -2.749870
     9  N   -0.422603   0.181835
    10  N   -0.531552   0.119959
    11  H   -0.038538   0.173289
    12  H   -0.359174   0.502523
    13  H    0.028517   0.106299
    14  H    0.136443  -0.032136
    15  H   -0.538578   0.699796
    16  H    0.068485   0.085623
    17  H   -0.098398   0.208543
    18  H    0.211301   0.006241
    19  H    0.186555  -0.039346
    20  H   -0.013687   0.177482
    21  H   -0.040062   0.172450
    22  H   -0.017847   0.140220
    23  H    0.069377   0.088761
    24  H   -0.124114   0.255064
    25  H   -0.036843   0.171002
    26  H   -0.287527   0.466439
    27  H   -0.298816   0.534310
    28  H   -0.070374   0.284303
    29  H   -0.160458   0.406650
    30  H   -0.037439   0.270581
 Sum of Mulliken charges =  -1.00000   1.00000

 Dipole moment (field-independent basis, Debye):
    X=              0.8864    Y=              3.6696    Z=              2.5356  Tot=              4.5476
 Quadrupole moment (field-independent basis, Debye-Ang):
   XX=           -129.2804   YY=           -113.8634   ZZ=            -98.2995
   XY=             -6.3848   XZ=             -0.5240   YZ=             -3.7951

 Summary of Natural Population Analysis:

                                       Natural Population
                Natural  -----------------------------------------------
    Atom  No    Charge         Core      Valence    Rydberg      Total
 -----------------------------------------------------------------------
      C    1   -0.28701      0.99967     2.28174    0.00560     3.28701
      C    2   -0.19032      0.99964     2.18210    0.00859     3.19032
      C    3   -0.18886      0.99961     2.17967    0.00958     3.18886
      C    4   -0.11792      0.99956     2.10565    0.01271     3.11792
      C    5   -0.19036      0.99960     2.18267    0.00809     3.19036
      C    6   -0.19007      0.99963     2.18328    0.00716     3.19007
      C    7   -0.28682      0.99966     2.28255    0.00461     3.28682
      C    8    0.07676      0.99961     1.90909    0.01454     2.92324
      N    9   -0.43231      0.99976     2.92187    0.01068     3.93231
      N   10   -0.42254      0.99976     2.91201    0.01077     3.92254
      H   11    0.09526      0.00000     0.40379    0.00096     0.40474
      H   12    0.09766      0.00000     0.40139    0.00095     0.40234
      H   13    0.09711      0.00000     0.40185    0.00103     0.40289
      H   14    0.09251      0.00000     0.40618    0.00131     0.40749
      H   15    0.09621      0.00000     0.40248    0.00131     0.40379
      H   16    0.09781      0.00000     0.40072    0.00147     0.40219
      H   17    0.09550      0.00000     0.40293    0.00158     0.40450
      H   18    0.09921      0.00000     0.39862    0.00217     0.40079
      H   19    0.10813      0.00000     0.39036    0.00151     0.39187
      H   20    0.09447      0.00000     0.40440    0.00112     0.40553
      H   21    0.09152      0.00000     0.40736    0.00112     0.40848
      H   22    0.09162      0.00000     0.40694    0.00144     0.40838
      H   23    0.10274      0.00000     0.39592    0.00134     0.39726
      H   24    0.09288      0.00000     0.40615    0.00097     0.40712
      H   25    0.09565      0.00000     0.40294    0.00141     0.40435
      H   26    0.07711      0.00000     0.41921    0.00368     0.42289
      H   27    0.17737      0.00000     0.31766    0.00497     0.32263
      H   28    0.17633      0.00000     0.32106    0.00261     0.32367
      H   29    0.17738      0.00000     0.31991    0.00271     0.32262
      H   30    0.17297      0.00000     0.32498    0.00205     0.32703
 =======================================================================
   * Total *    0.00000      9.99651    30.87547    0.12802    41.00000

 Normal termination of Gaussian 16 at Tue Dec  8 13:26:53 2020.
