 Gaussian 16, Revision A.03,

 -----------------------------------------------------------
 # opt freq B3LYP/6-31G(d) empiricaldispersion=gd3bj scf=xqc
 -----------------------------------------------------------

 -------------------------------
 CID_147138149_JID_4797_neutraal
 -------------------------------
 Symbolic Z-matrix:
 Charge =  0 Multiplicity = 1

 SCF Done:  E(RB3LYP) =  -576.407782667     A.U. after   15 cycles
 SCF Done:  E(RB3LYP) =  -576.413111588     A.U. after   13 cycles
 SCF Done:  E(RB3LYP) =  -576.413640791     A.U. after   12 cycles
 SCF Done:  E(RB3LYP) =  -576.413866837     A.U. after   12 cycles
 SCF Done:  E(RB3LYP) =  -576.414149846     A.U. after   12 cycles
 SCF Done:  E(RB3LYP) =  -576.414428367     A.U. after   13 cycles
 SCF Done:  E(RB3LYP) =  -576.414759713     A.U. after   11 cycles
 SCF Done:  E(RB3LYP) =  -576.414964461     A.U. after   12 cycles
 SCF Done:  E(RB3LYP) =  -576.414984181     A.U. after   11 cycles
 SCF Done:  E(RB3LYP) =  -576.414991393     A.U. after    8 cycles
 SCF Done:  E(RB3LYP) =  -576.414993295     A.U. after    8 cycles
 SCF Done:  E(RB3LYP) =  -576.414993502     A.U. after    8 cycles
 Optimization completed.
    -- Stationary point found.
 Normal termination of Gaussian 16 at Thu Dec 10 10:40:46 2020.

 --------------------------------------------------------------------
 #N Geom=AllCheck Guess=TCheck SCRF=Check GenChk RB3LYP/6-31G(d) Freq
 --------------------------------------------------------------------

 Structure from the checkpoint file:  "JID_4797.chk"
 -------------------------------
 CID_147138149_JID_4797_neutraal
 -------------------------------
 Charge =  0 Multiplicity = 1

 SCF Done:  E(RB3LYP) =  -576.414993502     A.U. after    1 cycles

  Exact polarizability: 198.764   3.201 129.238 -18.644   6.366  90.512
 Approx polarizability: 301.114  -2.369 216.763 -45.858  16.530 138.229

                      1                      2                      3
                      A                      A                      A
 Frequencies --     40.2678                55.7459               104.0195
 Red. masses --      3.8241                 2.3669                 3.5687
 Frc consts  --      0.0037                 0.0043                 0.0228
 IR Inten    --      0.0737                 0.0056                 0.5759

                      4                      5                      6
                      A                      A                      A
 Frequencies --    174.4959               206.5271               231.7492
 Red. masses --      5.0437                 1.0300                 1.5021
 Frc consts  --      0.0905                 0.0259                 0.0475
 IR Inten    --      1.9410                 0.0137                 0.1418

                      7                      8                      9
                      A                      A                      A
 Frequencies --    241.8734               249.8707               281.9473
 Red. masses --      2.3350                 1.4277                 1.7783
 Frc consts  --      0.0805                 0.0525                 0.0833
 IR Inten    --      0.2341                 0.5551                 0.7292

                     10                     11                     12
                      A                      A                      A
 Frequencies --    287.0159               332.8950               339.8350
 Red. masses --      2.1652                 3.2279                 2.7269
 Frc consts  --      0.1051                 0.2108                 0.1855
 IR Inten    --      0.5641                 1.4901                 0.4981

                     13                     14                     15
                      A                      A                      A
 Frequencies --    389.3910               398.9074               431.6589
 Red. masses --      3.1748                 3.1326                 2.6086
 Frc consts  --      0.2836                 0.2937                 0.2864
 IR Inten    --      6.7228                 3.3283                 4.2590

                     16                     17                     18
                      A                      A                      A
 Frequencies --    475.1743               519.5061               530.9763
 Red. masses --      3.2189                 5.9246                 3.4853
 Frc consts  --      0.4282                 0.9421                 0.5790
 IR Inten    --      4.1354                 4.1955                 4.2414

                     19                     20                     21
                      A                      A                      A
 Frequencies --    561.7519               591.9816               636.6910
 Red. masses --      3.5471                 4.1409                 6.4171
 Frc consts  --      0.6595                 0.8550                 1.5327
 IR Inten    --      1.6259                 2.9669                 1.6013

                     22                     23                     24
                      A                      A                      A
 Frequencies --    680.5747               693.0635               718.7065
 Red. masses --      3.1365                 3.8767                 1.5023
 Frc consts  --      0.8560                 1.0971                 0.4572
 IR Inten    --      4.1792                 3.6262                 2.7784

                     25                     26                     27
                      A                      A                      A
 Frequencies --    751.0156               756.9715               808.0161
 Red. masses --      1.5234                 3.6108                 2.3453
 Frc consts  --      0.5062                 1.2190                 0.9022
 IR Inten    --     48.6804                 7.8429                 2.5283

                     28                     29                     30
                      A                      A                      A
 Frequencies --    827.5787               895.0572               909.1563
 Red. masses --      1.7171                 2.5927                 1.7849
 Frc consts  --      0.6929                 1.2238                 0.8693
 IR Inten    --     21.1125                 5.5933                 5.7730

                     31                     32                     33
                      A                      A                      A
 Frequencies --    919.6895               926.9474               932.3452
 Red. masses --      2.8600                 1.7874                 1.3109
 Frc consts  --      1.4253                 0.9048                 0.6714
 IR Inten    --     26.9593                 4.8137                 1.4462

                     34                     35                     36
                      A                      A                      A
 Frequencies --    941.5033               970.7173               977.8095
 Red. masses --      1.2122                 1.5359                 1.2628
 Frc consts  --      0.6331                 0.8527                 0.7114
 IR Inten    --      0.4082                 0.7197                 0.1630

                     37                     38                     39
                      A                      A                      A
 Frequencies --    986.0361              1025.8236              1047.9458
 Red. masses --      1.5563                 2.3887                 1.9860
 Frc consts  --      0.8915                 1.4810                 1.2850
 IR Inten    --      0.4756                10.1267                 2.7275

                     40                     41                     42
                      A                      A                      A
 Frequencies --   1132.6138              1135.2294              1157.3310
 Red. masses --      2.8793                 2.3668                 1.8780
 Frc consts  --      2.1762                 1.7972                 1.4820
 IR Inten    --      4.6334                 0.9414                21.9269

                     43                     44                     45
                      A                      A                      A
 Frequencies --   1170.9091              1192.8495              1199.6733
 Red. masses --      1.6589                 1.6822                 1.4165
 Frc consts  --      1.3400                 1.4103                 1.2011
 IR Inten    --      4.6062                27.0118                10.4932

                     46                     47                     48
                      A                      A                      A
 Frequencies --   1217.1575              1250.4687              1282.4975
 Red. masses --      2.0389                 2.2323                 2.3739
 Frc consts  --      1.7797                 2.0566                 2.3005
 IR Inten    --      1.0885                17.1316                 3.5447

                     49                     50                     51
                      A                      A                      A
 Frequencies --   1313.4731              1370.6669              1373.6834
 Red. masses --      1.6949                 1.3378                 1.3531
 Frc consts  --      1.7228                 1.4808                 1.5044
 IR Inten    --     16.8338                 3.4517                 6.0545

                     52                     53                     54
                      A                      A                      A
 Frequencies --   1385.5477              1394.8802              1424.4524
 Red. masses --      2.4249                 1.4710                 1.3187
 Frc consts  --      2.7428                 1.6863                 1.5764
 IR Inten    --     27.7595                 9.8328                15.4736

                     55                     56                     57
                      A                      A                      A
 Frequencies --   1430.1236              1434.7850              1448.2425
 Red. masses --      1.5251                 1.4465                 1.2233
 Frc consts  --      1.8378                 1.7544                 1.5116
 IR Inten    --      9.0873                 6.0142                 7.6725

                     58                     59                     60
                      A                      A                      A
 Frequencies --   1495.3081              1516.9760              1522.9744
 Red. masses --      2.3421                 1.0497                 1.0439
 Frc consts  --      3.0854                 1.4232                 1.4265
 IR Inten    --     26.4135                 2.5794                 5.0978

                     61                     62                     63
                      A                      A                      A
 Frequencies --   1524.2243              1539.9032              1540.9157
 Red. masses --      1.0482                 1.0527                 1.0523
 Frc consts  --      1.4348                 1.4707                 1.4722
 IR Inten    --      1.5490                 0.6081                 1.2106

                     64                     65                     66
                      A                      A                      A
 Frequencies --   1542.7021              1605.9370              1646.4052
 Red. masses --      1.0443                 6.6278                 6.8771
 Frc consts  --      1.4643                10.0710                10.9833
 IR Inten    --      9.0333                37.8262                45.2332

                     67                     68                     69
                      A                      A                      A
 Frequencies --   1697.6223              1718.6572              3031.4443
 Red. masses --      8.5571                 6.4493                 1.0840
 Frc consts  --     14.5298                11.2239                 5.8694
 IR Inten    --     14.8339               145.8551                11.4765

                     70                     71                     72
                      A                      A                      A
 Frequencies --   3046.0636              3049.2500              3058.7561
 Red. masses --      1.0355                 1.0359                 1.0354
 Frc consts  --      5.6607                 5.6748                 5.7076
 IR Inten    --     20.2289                23.3529                32.3682

                     73                     74                     75
                      A                      A                      A
 Frequencies --   3105.7051              3112.2964              3116.5281
 Red. masses --      1.1022                 1.1012                 1.1016
 Frc consts  --      6.2638                 6.2844                 6.3039
 IR Inten    --      1.6334                70.8520                29.8463

                     76                     77                     78
                      A                      A                      A
 Frequencies --   3123.7058              3126.4783              3131.2367
 Red. masses --      1.1014                 1.1021                 1.1018
 Frc consts  --      6.3320                 6.3471                 6.3650
 IR Inten    --     17.6314                39.8001                18.5649

                     79                     80                     81
                      A                      A                      A
 Frequencies --   3164.2192              3195.5753              3202.5626
 Red. masses --      1.0892                 1.0859                 1.0901
 Frc consts  --      6.4254                 6.5337                 6.5876
 IR Inten    --     18.8014                 5.0812                 3.1782

                     82                     83                     84
                      A                      A                      A
 Frequencies --   3213.8830              3234.7139              3257.3575
 Red. masses --      1.0954                 1.0898                 1.0973
 Frc consts  --      6.6662                 6.7185                 6.8596
 IR Inten    --     23.8914                 2.9131                 6.4706

 - Thermochemistry -
 -------------------
 Temperature   298.150 Kelvin.  Pressure   1.00000 Atm.
 Atom     1 has atomic number  6 and mass  12.00000

 Molecular mass:   188.13135 amu.
 Principal axes and moments of inertia in atomic units:
                           1         2         3
     Eigenvalues --  1286.229683821.535804158.85651
           X            1.00000  -0.00062   0.00117
           Y            0.00060   0.99979   0.02065
           Z           -0.00119  -0.02065   0.99979
 This molecule is an asymmetric top.
 Rotational symmetry number  1.
 Warning -- assumption of classical behavior for rotation
           may cause significant error
 Rotational temperatures (Kelvin)      0.06734     0.02266     0.02083
 Rotational constants (GHZ):           1.40313     0.47226     0.43395
 Zero-point vibrational energy     680000.6 (Joules/Mol)
                                  162.52405 (Kcal/Mol)
 Warning -- explicit consideration of  20 degrees of freedom as
           vibrations may cause significant error
 Vibrational temperatures:     57.94    80.21   149.66   251.06   297.15
          (Kelvin)            333.44   348.00   359.51   405.66   412.95
                              478.96   488.95   560.25   573.94   621.06
                              683.67   747.45   763.96   808.24   851.73
                              916.06   979.20   997.16  1034.06  1080.54
                             1089.11  1162.55  1190.70  1287.79  1308.07
                             1323.23  1333.67  1341.44  1354.61  1396.65
                             1406.85  1418.69  1475.93  1507.76  1629.58
                             1633.34  1665.14  1684.68  1716.24  1726.06
                             1751.22  1799.15  1845.23  1889.79  1972.08
                             1976.42  1993.49  2006.92  2049.47  2057.63
                             2064.34  2083.70  2151.41  2182.59  2191.22
                             2193.02  2215.58  2217.03  2219.60  2310.59
                             2368.81  2442.50  2472.76  4361.57  4382.61
                             4387.19  4400.87  4468.42  4477.90  4483.99
                             4494.32  4498.30  4505.15  4552.61  4597.72
                             4607.77  4624.06  4654.03  4686.61

 Zero-point correction=                           0.258999 (Hartree/Particle)
 Thermal correction to Energy=                    0.271997
 Thermal correction to Enthalpy=                  0.272942
 Thermal correction to Gibbs Free Energy=         0.220031
 Sum of electronic and zero-point Energies=           -576.155995
 Sum of electronic and thermal Energies=              -576.142996
 Sum of electronic and thermal Enthalpies=            -576.142052
 Sum of electronic and thermal Free Energies=         -576.194963

                     E (Thermal)             CV                S
                      KCal/Mol        Cal/Mol-Kelvin    Cal/Mol-Kelvin
 Total                  170.681             52.134            111.361
 Electronic               0.000              0.000              0.000
 Translational            0.889              2.981             41.602
 Rotational               0.889              2.981             31.392
 Vibrational            168.903             46.172             38.367
 Vibration     1          0.594              1.981              5.246
 Vibration     2          0.596              1.975              4.602
 Vibration     3          0.605              1.946              3.378
 Vibration     4          0.627              1.874              2.386
 Vibration     5          0.641              1.831              2.074
 Vibration     6          0.653              1.792              1.865
 Vibration     7          0.658              1.776              1.789
 Vibration     8          0.663              1.763              1.731
 Vibration     9          0.681              1.707              1.522
 Vibration    10          0.684              1.698              1.491
 Vibration    11          0.715              1.610              1.246
 Vibration    12          0.720              1.596              1.213
 Vibration    13          0.757              1.493              1.002
 Vibration    14          0.765              1.472              0.967
 Vibration    15          0.793              1.401              0.853
 Vibration    16          0.832              1.305              0.723
 Vibration    17          0.874              1.207              0.611
 Vibration    18          0.886              1.181              0.585
 Vibration    19          0.917              1.114              0.520
 Vibration    20          0.949              1.049              0.464

                           ! Non-Optimized Parameters !
 Normal termination of Gaussian 16 at Thu Dec 10 10:50:45 2020.

 ----------------------------------------------------------------------
 # B3LYP/6-311++G(d,p) empiricaldispersion=gd3bj scf=xqc pop=npa geom=c
 heck
 ----------------------------------------------------------------------

 ---------------------------------------
 CID_147138149_JID_4797_Energie_neutraal
 ---------------------------------------
 Structure from the checkpoint file:  "JID_4797.chk"
 Charge =  0 Multiplicity = 1

 SCF Done:  E(RB3LYP) =  -576.566730818     A.U. after   16 cycles
 Normal termination of Gaussian 16 at Thu Dec 10 10:56:02 2020.

 ----------------------------------------------------------------------
 # B3LYP/6-311++G(d,p) empiricaldispersion=gd3bj scf=xqc pop=npa geom=c
 heck
 ----------------------------------------------------------------------

 -------------------------------------
 CID_147138149_JID_4797_Energie_kation
 -------------------------------------
 Structure from the checkpoint file:  "JID_4797.chk"
 Charge =  1 Multiplicity = 2

 SCF Done:  E(UB3LYP) =  -576.324712105     A.U. after   21 cycles
 Normal termination of Gaussian 16 at Thu Dec 10 11:06:33 2020.
 Gaussian 16:  ES64L-G16RevA.03 25-Dec-2016

 ----------------------------------------------------------------------
 # B3LYP/6-311++G(d,p) empiricaldispersion=gd3bj scf=xqc pop=npa geom=c
 heck
 ----------------------------------------------------------------------

 ------------------------------------
 CID_147138149_JID_4797_Energie_anion
 ------------------------------------
 Structure from the checkpoint file:  "JID_4797.chk"
 Charge = -1 Multiplicity = 2

                         Standard orientation:
 ---------------------------------------------------------------------
 Center     Atomic      Atomic             Coordinates (Angstroms)
 Number     Number       Type             X           Y           Z
 ---------------------------------------------------------------------
      1          6           0       -3.074207   -0.898850   -1.151784
      2          6           0       -1.990303    0.148084   -0.862857
      3          6           0       -2.516697    1.561807   -1.131559
      4          6           0       -1.351724    0.012878    0.572872
      5          6           0       -0.186658    0.958931    0.728142
      6          6           0        1.061175    0.600392    0.339180
      7          6           0        2.215694    1.471013    0.270929
      8          6           0        3.414352    1.035495   -0.190190
      9          6           0        3.586121   -0.337742   -0.586143
     10          6           0        2.540167   -1.187475   -0.449614
     11          7           0        1.309362   -0.752020   -0.007756
     12          7           0        0.428159   -1.744244    0.368024
     13          6           0       -0.757075   -1.376336    0.701675
     14          6           0       -2.391705    0.231135    1.687033
     15          1           0       -3.959605   -0.749155   -0.523119
     16          1           0       -2.711874   -1.920062   -0.991276
     17          1           0       -3.400508   -0.826684   -2.195514
     18          1           0       -1.160149   -0.032230   -1.559337
     19          1           0       -3.395431    1.789339   -0.516810
     20          1           0       -1.750719    2.317223   -0.929146
     21          1           0       -2.817528    1.662055   -2.180615
     22          1           0       -0.352659    1.961895    1.106839
     23          1           0        2.067618    2.501046    0.579790
     24          1           0        4.255029    1.719878   -0.254264
     25          1           0        4.534017   -0.702260   -0.962160
     26          1           0        2.572013   -2.248461   -0.661617
     27          1           0       -1.383744   -2.185362    1.074530
     28          1           0       -2.807101    1.242672    1.641927
     29          1           0       -3.222806   -0.478314    1.613943
     30          1           0       -1.924042    0.106278    2.668838
 ---------------------------------------------------------------------

 SCF Done:  E(UB3LYP) =  -576.558116128     A.U. after   33 cycles
 SCF Done:  E(UB3LYP) =  -576.558116128     a.u. after    1 cycles

 The electronic state is 2-A.
 Alpha  occ. eigenvalues --  -14.24791 -14.20810 -10.07515 -10.06537 -10.06383
 Alpha  occ. eigenvalues --  -10.06010 -10.05417 -10.04482 -10.04452 -10.03976
 Alpha  occ. eigenvalues --  -10.02910 -10.02851 -10.02283 -10.01094  -0.89703
 Alpha  occ. eigenvalues --   -0.74751  -0.70940  -0.65955  -0.64956  -0.62436
 Alpha  occ. eigenvalues --   -0.57134  -0.56607  -0.51203  -0.51193  -0.49490
 Alpha  occ. eigenvalues --   -0.45174  -0.40782  -0.38554  -0.36946  -0.35352
 Alpha  occ. eigenvalues --   -0.33431  -0.33249  -0.31497  -0.31079  -0.29751
 Alpha  occ. eigenvalues --   -0.29156  -0.28159  -0.27623  -0.26670  -0.26295
 Alpha  occ. eigenvalues --   -0.25577  -0.23496  -0.23002  -0.22085  -0.21239
 Alpha  occ. eigenvalues --   -0.20165  -0.19464  -0.15474  -0.14981  -0.12826
 Alpha  occ. eigenvalues --   -0.04271   0.05453
 Alpha virt. eigenvalues --    0.07214   0.08760   0.08925   0.09135   0.10334
 Alpha virt. eigenvalues --    0.10469   0.11376   0.11623   0.12191   0.12528
 Alpha virt. eigenvalues --    0.12788   0.13034   0.14326   0.14616   0.14679

  Beta  occ. eigenvalues --  -14.24739 -14.20795 -10.07536 -10.06556 -10.06157
  Beta  occ. eigenvalues --  -10.05682 -10.05412 -10.04472 -10.04444 -10.03929
  Beta  occ. eigenvalues --  -10.02971 -10.02644 -10.02087 -10.00958  -0.89514
  Beta  occ. eigenvalues --   -0.74507  -0.70831  -0.65714  -0.64667  -0.62266
  Beta  occ. eigenvalues --   -0.57064  -0.56400  -0.51125  -0.50804  -0.49110
  Beta  occ. eigenvalues --   -0.45012  -0.40574  -0.38384  -0.36761  -0.35217
  Beta  occ. eigenvalues --   -0.33242  -0.33161  -0.31271  -0.30897  -0.29431
  Beta  occ. eigenvalues --   -0.29089  -0.28079  -0.27591  -0.26559  -0.26233
  Beta  occ. eigenvalues --   -0.25487  -0.23386  -0.22859  -0.21996  -0.20785
  Beta  occ. eigenvalues --   -0.20012  -0.18986  -0.15030  -0.14278  -0.11905
  Beta  occ. eigenvalues --   -0.03408
  Beta virt. eigenvalues --    0.07624   0.08743   0.09098   0.09205   0.10227
  Beta virt. eigenvalues --    0.10416   0.10703   0.11496   0.11635   0.12615
  Beta virt. eigenvalues --    0.12750   0.12925   0.13536   0.14455   0.14594

 Mulliken charges and spin densities:
               1          2
     1  C    0.818664  -1.460016
     2  C   -0.866901   1.075716
     3  C   -0.501438  -0.228991
     4  C    0.849257  -0.052534
     5  C   -0.422775   0.138973
     6  C   -0.622764   0.043923
     7  C   -0.256527   0.139443
     8  C   -0.246568   0.177482
     9  C   -0.506801  -0.039322
    10  C    0.107317   0.261022
    11  N    0.274272  -0.006557
    12  N    0.011428  -0.009932
    13  C   -0.359084   0.072629
    14  C    0.040406  -0.597934
    15  H   -0.260025   0.391860
    16  H   -0.119679   0.290574
    17  H   -0.295435   0.432058
    18  H    0.204306  -0.022354
    19  H    0.048334   0.078984
    20  H    0.129899   0.010499
    21  H    0.033091   0.102561
    22  H    0.153109  -0.011332
    23  H    0.098473  -0.010426
    24  H    0.118587  -0.015428
    25  H    0.101576   0.008547
    26  H    0.149497  -0.011047
    27  H    0.104672   0.063219
    28  H    0.072868   0.045319
    29  H   -0.033326   0.160424
    30  H    0.175566  -0.027360
 Sum of Mulliken charges =  -1.00000   1.00000

 Dipole moment (field-independent basis, Debye):
    X=              1.1401    Y=              2.0668    Z=              1.0985  Tot=              2.6035
 Quadrupole moment (field-independent basis, Debye-Ang):
   XX=           -141.9205   YY=           -106.5255   ZZ=           -107.4651
   XY=             -6.6493   XZ=             -7.4887   YZ=             -0.2487

 Summary of Natural Population Analysis:

                                       Natural Population
                Natural  -----------------------------------------------
    Atom  No    Charge         Core      Valence    Rydberg      Total
 -----------------------------------------------------------------------
      C    1   -0.28860      0.99965     2.28256    0.00639     3.28860
      C    2   -0.10633      0.99958     2.09575    0.01100     3.10633
      C    3   -0.28749      0.99964     2.28192    0.00592     3.28749
      C    4   -0.07762      0.99953     2.06593    0.01216     3.07762
      C    5   -0.13161      0.99949     2.12163    0.01048     3.13161
      C    6    0.07151      0.99946     1.91876    0.01028     2.92849
      C    7   -0.08787      0.99953     2.07907    0.00927     3.08787
      C    8   -0.06317      0.99956     2.05369    0.00992     3.06317
      C    9   -0.17807      0.99957     2.16777    0.01072     3.17807
      C   10    0.08903      0.99956     1.90015    0.01127     2.91097
      N   11   -0.12414      0.99960     2.61299    0.01155     3.62414
      N   12   -0.14712      0.99968     2.63463    0.01281     3.64712
      C   13    0.08673      0.99961     1.89439    0.01926     2.91327
      C   14   -0.28392      0.99964     2.27611    0.00816     3.28392
      H   15    0.09443      0.00000     0.40419    0.00138     0.40557
      H   16    0.10269      0.00000     0.39607    0.00124     0.39731
      H   17    0.09786      0.00000     0.40097    0.00117     0.40214
      H   18    0.09686      0.00000     0.40118    0.00196     0.40314
      H   19    0.09222      0.00000     0.40698    0.00080     0.40778
      H   20    0.10339      0.00000     0.39571    0.00089     0.39661
      H   21    0.09625      0.00000     0.40303    0.00072     0.40375
      H   22    0.09403      0.00000     0.40461    0.00136     0.40597
      H   23    0.09141      0.00000     0.40713    0.00147     0.40859
      H   24    0.08861      0.00000     0.41042    0.00097     0.41139
      H   25    0.09598      0.00000     0.40306    0.00096     0.40402
      H   26    0.09486      0.00000     0.40419    0.00095     0.40514
      H   27    0.08535      0.00000     0.41313    0.00152     0.41465
      H   28    0.09642      0.00000     0.40273    0.00086     0.40358
      H   29    0.09752      0.00000     0.40142    0.00107     0.40248
      H   30    0.10080      0.00000     0.39810    0.00111     0.39920
 =======================================================================
   * Total *    0.00000     13.99410    36.83828    0.16761    51.00000

 Normal termination of Gaussian 16 at Thu Dec 10 11:20:44 2020.
