 Gaussian 16, Revision A.03,

 -----------------------------------------------------------
 # opt freq B3LYP/6-31G(d) empiricaldispersion=gd3bj scf=xqc
 -----------------------------------------------------------

 ------------------------------
 CID_13901593_JID_1110_neutraal
 ------------------------------
 Symbolic Z-matrix:
 Charge =  0 Multiplicity = 1

 SCF Done:  E(RB3LYP) =  -500.620920774     A.U. after   14 cycles
 SCF Done:  E(RB3LYP) =  -500.623239068     A.U. after   12 cycles
 SCF Done:  E(RB3LYP) =  -500.623533481     A.U. after   13 cycles
 SCF Done:  E(RB3LYP) =  -500.623635444     A.U. after   12 cycles
 SCF Done:  E(RB3LYP) =  -500.623744725     A.U. after   11 cycles
 SCF Done:  E(RB3LYP) =  -500.623767872     A.U. after    9 cycles
 SCF Done:  E(RB3LYP) =  -500.623772462     A.U. after   10 cycles
 SCF Done:  E(RB3LYP) =  -500.623773795     A.U. after    8 cycles
 SCF Done:  E(RB3LYP) =  -500.623774663     A.U. after    8 cycles
 SCF Done:  E(RB3LYP) =  -500.623774843     A.U. after    8 cycles
 SCF Done:  E(RB3LYP) =  -500.623774900     A.U. after    7 cycles
 Optimization completed.
    -- Stationary point found.

 1\1\GINC-NODE120\FOpt\RB3LYP\6-31G(d)\C9H12O2\VSC10255\08-Dec-2020\0\\
 # opt freq B3LYP/6-31G(d) empiricaldispersion=gd3bj scf=xqc\\CID_13901
 593_JID_1110_neutraal\\0,1\C,1.1922551166,0.0744469262,-0.0472795015\C
 ,0.7195132122,0.3810647603,-1.4393376539\C,0.471267413,-0.5943440493,-
 2.3300507058\C,0.0901645822,-0.337764307,-3.7321810399\O,-0.1807713615
 ,-1.2492282225,-4.5086074647\C,0.0948816599,1.0778181664,-4.1610737617
 \C,0.3276549799,2.0625284567,-3.2880981719\C,0.5161710015,1.8479436603
 ,-1.8056408604\C,-0.7665261124,2.3691850427,-1.1158291582\O,1.70140308

 Normal termination of Gaussian 16 at Tue Dec  8 19:13:41 2020.

 --------------------------------------------------------------------
 #N Geom=AllCheck Guess=TCheck SCRF=Check GenChk RB3LYP/6-31G(d) Freq
 --------------------------------------------------------------------

 Structure from the checkpoint file:  "JID_1110.chk"
 ------------------------------
 CID_13901593_JID_1110_neutraal
 ------------------------------
 Charge =  0 Multiplicity = 1

 SCF Done:  E(RB3LYP) =  -500.623774900     A.U. after    1 cycles

  Exact polarizability: 138.956   0.648  92.243  -2.945   0.560  62.029
 Approx polarizability: 233.398   7.810 126.518  -5.179   2.188  92.414

                      1                      2                      3
                      A                      A                      A
 Frequencies --     58.2111               104.4516               164.4430
 Red. masses --      4.7732                 2.5519                 2.9101
 Frc consts  --      0.0095                 0.0164                 0.0464
 IR Inten    --      1.9214                 2.5007                 0.7995

                      4                      5                      6
                      A                      A                      A
 Frequencies --    189.3090               224.8645               239.1876
 Red. masses --      1.2714                 3.0084                 1.3665
 Frc consts  --      0.0268                 0.0896                 0.0461
 IR Inten    --      0.0394                 4.0333                 0.2355

                      7                      8                      9
                      A                      A                      A
 Frequencies --    256.9023               284.4264               303.4627
 Red. masses --      2.0928                 2.6106                 1.0842
 Frc consts  --      0.0814                 0.1244                 0.0588
 IR Inten    --      3.4863                 0.2060                 0.0650

                     10                     11                     12
                      A                      A                      A
 Frequencies --    316.4300               354.0746               373.5010
 Red. masses --      3.0433                 3.6668                 5.2218
 Frc consts  --      0.1795                 0.2709                 0.4292
 IR Inten    --      0.4144                 2.1780                14.0608

                     13                     14                     15
                      A                      A                      A
 Frequencies --    446.8059               489.0229               536.1123
 Red. masses --      2.4786                 4.3888                 4.4752
 Frc consts  --      0.2915                 0.6184                 0.7578
 IR Inten    --      1.8054                 5.0854                 2.0109

                     16                     17                     18
                      A                      A                      A
 Frequencies --    546.4540               578.1075               673.8962
 Red. masses --      3.6957                 3.3281                 4.7444
 Frc consts  --      0.6502                 0.6553                 1.2695
 IR Inten    --      1.0939                 1.2556                 2.4776

                     19                     20                     21
                      A                      A                      A
 Frequencies --    707.3396               719.9370               822.1249
 Red. masses --      3.0320                 4.2329                 1.5278
 Frc consts  --      0.8938                 1.2926                 0.6084
 IR Inten    --      0.4168                 5.2706                14.1091

                     22                     23                     24
                      A                      A                      A
 Frequencies --    881.5568               907.5792               914.1907
 Red. masses --      2.4111                 1.6422                 2.7319
 Frc consts  --      1.1040                 0.7970                 1.3452
 IR Inten    --     11.8054                31.2923                 1.7750

                     25                     26                     27
                      A                      A                      A
 Frequencies --    969.3378              1011.4973              1039.3059
 Red. masses --      1.8266                 1.2813                 1.4885
 Frc consts  --      1.0112                 0.7724                 0.9473
 IR Inten    --      1.9389                 1.5913                 6.7209

                     28                     29                     30
                      A                      A                      A
 Frequencies --   1063.6681              1089.1065              1106.7691
 Red. masses --      2.0865                 2.3866                 3.5289
 Frc consts  --      1.3908                 1.6679                 2.5469
 IR Inten    --     23.5152                 6.5670                73.8444

                     31                     32                     33
                      A                      A                      A
 Frequencies --   1138.0477              1166.0499              1183.8437
 Red. masses --      1.6715                 2.1642                 1.2812
 Frc consts  --      1.2755                 1.7337                 1.0579
 IR Inten    --     32.2229                 7.6694                 4.0104

                     34                     35                     36
                      A                      A                      A
 Frequencies --   1200.5685              1233.9388              1262.9703
 Red. masses --      2.5475                 1.5376                 1.5933
 Frc consts  --      2.1634                 1.3793                 1.4974
 IR Inten    --    146.6130                 5.1454                 7.9370

                     37                     38                     39
                      A                      A                      A
 Frequencies --   1314.6635              1378.6770              1414.6574
 Red. masses --      2.8954                 2.2730                 1.7234
 Frc consts  --      2.9484                 2.5455                 2.0321
 IR Inten    --     58.2384                 4.9996                13.3651

                     40                     41                     42
                      A                      A                      A
 Frequencies --   1427.1591              1437.9702              1498.9542
 Red. masses --      1.2952                 1.3114                 1.1033
 Frc consts  --      1.5542                 1.5977                 1.4605
 IR Inten    --      7.5784                10.7675                 1.6417

                     43                     44                     45
                      A                      A                      A
 Frequencies --   1509.8555              1513.8813              1516.5493
 Red. masses --      1.0683                 1.0596                 1.0613
 Frc consts  --      1.4348                 1.4308                 1.4381
 IR Inten    --     11.3706                 1.8492                 1.0138

                     46                     47                     48
                      A                      A                      A
 Frequencies --   1530.4400              1535.3259              1546.0853
 Red. masses --      1.0614                 1.0544                 1.0551
 Frc consts  --      1.4647                 1.4644                 1.4859
 IR Inten    --     10.0152                 8.0841                11.6055

                     49                     50                     51
                      A                      A                      A
 Frequencies --   1686.6218              1723.4687              1764.2988
 Red. masses --      7.6684                 8.5610                 9.1514
 Frc consts  --     12.8526                14.9824                16.7834
 IR Inten    --     15.7606                11.4742               280.1915

                     52                     53                     54
                      A                      A                      A
 Frequencies --   3026.6068              3047.3222              3068.8680
 Red. masses --      1.0340                 1.0388                 1.0360
 Frc consts  --      5.5804                 5.6835                 5.7487
 IR Inten    --     53.7564                18.6944                21.2705

                     55                     56                     57
                      A                      A                      A
 Frequencies --   3081.5280              3102.3250              3137.3021
 Red. masses --      1.1038                 1.0977                 1.0998
 Frc consts  --      6.1757                 6.2248                 6.3780
 IR Inten    --     49.6962                14.0507                31.2353

                     58                     59                     60
                      A                      A                      A
 Frequencies --   3139.8794              3141.4326              3153.1276
 Red. masses --      1.1017                 1.1022                 1.1025
 Frc consts  --      6.3996                 6.4085                 6.4582
 IR Inten    --     24.1113                 8.5709                15.3103

                     61                     62                     63
                      A                      A                      A
 Frequencies --   3183.5857              3192.9545              3214.0903
 Red. masses --      1.0876                 1.0912                 1.0968
 Frc consts  --      6.4948                 6.5547                 6.6757
 IR Inten    --     10.5031                10.1151                10.0306

 - Thermochemistry -
 -------------------
 Temperature   298.150 Kelvin.  Pressure   1.00000 Atm.
 Atom     1 has atomic number  6 and mass  12.00000

 Molecular mass:   152.08373 amu.
 Principal axes and moments of inertia in atomic units:
                           1         2         3
     Eigenvalues --   882.738432188.844722628.94075
           X            0.99993  -0.00950  -0.00650
           Y            0.00941   0.99985  -0.01431
           Z            0.00663   0.01425   0.99988
 This molecule is an asymmetric top.
 Rotational symmetry number  1.
 Warning -- assumption of classical behavior for rotation
           may cause significant error
 Rotational temperatures (Kelvin)      0.09812     0.03957     0.03295
 Rotational constants (GHZ):           2.04448     0.82452     0.68649
 Zero-point vibrational energy     507486.5 (Joules/Mol)
                                  121.29219 (Kcal/Mol)
 Warning -- explicit consideration of  17 degrees of freedom as
           vibrations may cause significant error
 Vibrational temperatures:     83.75   150.28   236.60   272.37   323.53
          (Kelvin)            344.14   369.63   409.23   436.62   455.27
                              509.43   537.38   642.85   703.59   771.35
                              786.23   831.77   969.59  1017.70  1035.83
                             1182.85  1268.36  1305.80  1315.32  1394.66
                             1455.32  1495.33  1530.38  1566.98  1592.39
                             1637.40  1677.69  1703.29  1727.35  1775.36
                             1817.13  1891.51  1983.61  2035.38  2053.36
                             2068.92  2156.66  2172.35  2178.14  2181.98
                             2201.96  2208.99  2224.47  2426.67  2479.69
                             2538.43  4354.61  4384.42  4415.42  4433.63
                             4463.55  4513.88  4517.59  4519.82  4536.65
                             4580.47  4593.95  4624.36

 Zero-point correction=                           0.193291 (Hartree/Particle)
 Thermal correction to Energy=                    0.204315
 Thermal correction to Enthalpy=                  0.205259
 Thermal correction to Gibbs Free Energy=         0.157272
 Sum of electronic and zero-point Energies=           -500.430483
 Sum of electronic and thermal Energies=              -500.419460
 Sum of electronic and thermal Enthalpies=            -500.418516
 Sum of electronic and thermal Free Energies=         -500.466502

                     E (Thermal)             CV                S
                      KCal/Mol        Cal/Mol-Kelvin    Cal/Mol-Kelvin
 Total                  128.209             42.070            100.996
 Electronic               0.000              0.000              0.000
 Translational            0.889              2.981             40.968
 Rotational               0.889              2.981             30.008
 Vibrational            126.432             36.109             30.020
 Vibration     1          0.596              1.974              4.517
 Vibration     2          0.605              1.946              3.370
 Vibration     3          0.623              1.886              2.498
 Vibration     4          0.633              1.855              2.235
 Vibration     5          0.650              1.803              1.920
 Vibration     6          0.657              1.781              1.809
 Vibration     7          0.666              1.751              1.683
 Vibration     8          0.683              1.703              1.507
 Vibration     9          0.695              1.667              1.398
 Vibration    10          0.703              1.642              1.328
 Vibration    11          0.730              1.567              1.148
 Vibration    12          0.745              1.527              1.065
 Vibration    13          0.806              1.368              0.805
 Vibration    14          0.845              1.274              0.686
 Vibration    15          0.891              1.170              0.574
 Vibration    16          0.902              1.147              0.552
 Vibration    17          0.935              1.079              0.489

 Optimization completed.
    -- Stationary point found.

 1\1\GINC-NODE120\Freq\RB3LYP\6-31G(d)\C9H12O2\VSC10255\08-Dec-2020\0\\
 #N Geom=AllCheck Guess=TCheck SCRF=Check GenChk RB3LYP/6-31G(d) Freq\\
 CID_13901593_JID_1110_neutraal\\0,1\C,1.1922551166,0.0744469262,-0.047
 2795015\C,0.7195132122,0.3810647603,-1.4393376539\C,0.471267413,-0.594
 3440493,-2.3300507058\C,0.0901645822,-0.337764307,-3.7321810399\O,-0.1
 807713615,-1.2492282225,-4.5086074647\C,0.0948816599,1.0778181664,-4.1
 610737617\C,0.3276549799,2.0625284567,-3.2880981719\C,0.5161710015,1.8
 479436603,-1.8056408604\C,-0.7665261124,2.3691850427,-1.1158291582\O,1

 Normal termination of Gaussian 16 at Tue Dec  8 19:18:42 2020.

 ----------------------------------------------------------------------
 # B3LYP/6-311++G(d,p) empiricaldispersion=gd3bj scf=xqc pop=npa geom=c
 heck
 ----------------------------------------------------------------------

 --------------------------------------
 CID_13901593_JID_1110_Energie_neutraal
 --------------------------------------
 Structure from the checkpoint file:  "JID_1110.chk"
 Charge =  0 Multiplicity = 1

 SCF Done:  E(RB3LYP) =  -500.767449455     A.U. after   15 cycles
 Normal termination of Gaussian 16 at Tue Dec  8 19:20:51 2020.

 ----------------------------------------------------------------------
 # B3LYP/6-311++G(d,p) empiricaldispersion=gd3bj scf=xqc pop=npa geom=c
 heck
 ----------------------------------------------------------------------

 ------------------------------------
 CID_13901593_JID_1110_Energie_kation
 ------------------------------------
 Structure from the checkpoint file:  "JID_1110.chk"
 Charge =  1 Multiplicity = 2

 SCF Done:  E(UB3LYP) =  -500.441123171     A.U. after   27 cycles
 Normal termination of Gaussian 16 at Tue Dec  8 19:26:24 2020.
 Gaussian 16:  ES64L-G16RevA.03 25-Dec-2016

 -----------------------------------
 CID_13901593_JID_1110_Energie_anion
 -----------------------------------
 Structure from the checkpoint file:  "JID_1110.chk"
 Charge = -1 Multiplicity = 2

                         Standard orientation:
 ---------------------------------------------------------------------
 Center     Atomic      Atomic             Coordinates (Angstroms)
 Number     Number       Type             X           Y           Z
 ---------------------------------------------------------------------
      1          6           0       -0.916002    2.186441    0.006609
      2          6           0       -0.000901    0.995838    0.026082
      3          6           0        1.334916    1.132824   -0.030876
      4          6           0        2.267307   -0.008482   -0.102364
      5          8           0        3.485044    0.146846   -0.101135
      6          6           0        1.651162   -1.348108   -0.219034
      7          6           0        0.325813   -1.506173   -0.152770
      8          6           0       -0.644183   -0.383723    0.127370
      9          6           0       -1.163135   -0.596026    1.569057
     10          8           0       -1.666028   -0.514613   -0.882104
     11          6           0       -3.025709   -0.333082   -0.527859
     12          1           0       -0.344026    3.117665   -0.017065
     13          1           0       -1.575944    2.214158    0.882641
     14          1           0       -1.558464    2.152276   -0.880728
     15          1           0        1.798688    2.115500   -0.061734
     16          1           0        2.330129   -2.181029   -0.375748
     17          1           0       -0.138640   -2.484094   -0.256430
     18          1           0       -1.908238    0.153035    1.850825
     19          1           0       -1.608919   -1.589627    1.677059
     20          1           0       -0.321372   -0.519719    2.261763
     21          1           0       -3.375767   -1.076827    0.199549
     22          1           0       -3.238302    0.669839   -0.135220
     23          1           0       -3.586874   -0.466099   -1.456287
 ---------------------------------------------------------------------

 SCF Done:  E(UB3LYP) =  -500.780594561     A.U. after   27 cycles

 The electronic state is 2-A.
 Alpha  occ. eigenvalues --  -18.99338 -18.90497 -10.09864 -10.09559 -10.05330
 Alpha  occ. eigenvalues --  -10.04136 -10.03862 -10.02591 -10.01429 -10.00800
 Alpha  occ. eigenvalues --  -10.00710  -0.90425  -0.84519  -0.69604  -0.63174
 Alpha  occ. eigenvalues --   -0.60752  -0.57810  -0.55626  -0.49312  -0.44686
 Alpha  occ. eigenvalues --   -0.41993  -0.37791  -0.35136  -0.33687  -0.31768
 Alpha  occ. eigenvalues --   -0.31032  -0.30240  -0.29244  -0.27358  -0.27077
 Alpha  occ. eigenvalues --   -0.26684  -0.25358  -0.23571  -0.23046  -0.21444
 Alpha  occ. eigenvalues --   -0.20268  -0.18488  -0.13878  -0.11891  -0.10660
 Alpha  occ. eigenvalues --   -0.07114   0.04463
 Alpha virt. eigenvalues --    0.07394   0.09379   0.09620   0.10509   0.11774
 Alpha virt. eigenvalues --    0.12185   0.12488   0.13201   0.14230   0.14516
 Alpha virt. eigenvalues --    0.14976   0.15490   0.16114   0.17690   0.18062

  Beta  occ. eigenvalues --  -18.99255 -18.89862 -10.09899 -10.09526 -10.05091
  Beta  occ. eigenvalues --  -10.04157 -10.03771 -10.02268 -10.01131 -10.00799
  Beta  occ. eigenvalues --  -10.00740  -0.90242  -0.83413  -0.69175  -0.62850
  Beta  occ. eigenvalues --   -0.60432  -0.57677  -0.55451  -0.48904  -0.44279
  Beta  occ. eigenvalues --   -0.41471  -0.37644  -0.34994  -0.33494  -0.31648
  Beta  occ. eigenvalues --   -0.30888  -0.29900  -0.29006  -0.27174  -0.26938
  Beta  occ. eigenvalues --   -0.26553  -0.25219  -0.23064  -0.21601  -0.20585
  Beta  occ. eigenvalues --   -0.20058  -0.18187  -0.13489  -0.09996  -0.09524
  Beta  occ. eigenvalues --   -0.06568
  Beta virt. eigenvalues --    0.07406   0.09369   0.09683   0.10471   0.11024
  Beta virt. eigenvalues --    0.11804   0.12166   0.12628   0.13272   0.14354
  Beta virt. eigenvalues --    0.14529   0.15363   0.15796   0.16543   0.17702

 Mulliken charges and spin densities:
               1          2
     1  C   -0.611964  -0.115495
     2  C    0.227415   0.284002
     3  C   -0.181817  -0.047027
     4  C   -0.562203   0.207972
     5  O   -0.430210   0.211832
     6  C   -0.047773   0.000711
     7  C    0.063210   0.246557
     8  C   -0.093139   0.088940
     9  C   -0.255457  -0.339460
    10  O   -0.060821   0.012536
    11  C    0.040414  -0.272141
    12  H    0.133069   0.001290
    13  H    0.140335  -0.006638
    14  H    0.118724   0.054353
    15  H    0.119855  -0.000189
    16  H    0.121587  -0.000698
    17  H    0.142934  -0.010872
    18  H   -0.039874   0.164269
    19  H   -0.020241   0.155806
    20  H    0.173643  -0.008172
    21  H   -0.064530   0.193394
    22  H    0.014525   0.109924
    23  H    0.072319   0.069104
 Sum of Mulliken charges =  -1.00000   1.00000

 Dipole moment (field-independent basis, Debye):
    X=             -5.4896    Y=              0.7795    Z=              0.6281  Tot=              5.5801
 Quadrupole moment (field-independent basis, Debye-Ang):
   XX=           -117.7372   YY=            -77.9957   ZZ=            -80.1489
   XY=             -3.0748   XZ=              2.0914   YZ=              1.0168

 Summary of Natural Population Analysis:

                                       Natural Population
                Natural  -----------------------------------------------
    Atom  No    Charge         Core      Valence    Rydberg      Total
 -----------------------------------------------------------------------
      C    1   -0.30068      0.99963     2.29568    0.00538     3.30068
      C    2    0.05988      0.99946     1.92781    0.01285     2.94012
      C    3   -0.14476      0.99944     2.13646    0.00887     3.14476
      C    4    0.25784      0.99961     1.72196    0.02059     2.74216
      O    5   -0.24462      0.99988     3.23730    0.00744     4.24462
      C    6   -0.13684      0.99949     2.12793    0.00941     3.13684
      C    7   -0.01909      0.99951     2.00861    0.01096     3.01909
      C    8    0.10883      0.99944     1.87576    0.01597     2.89117
      C    9   -0.28742      0.99962     2.28156    0.00624     3.28742
      O   10   -0.30227      0.99987     3.29129    0.01111     4.30227
      C   11   -0.09912      0.99960     2.08919    0.01034     3.09912
      H   12    0.09789      0.00000     0.40101    0.00111     0.40211
      H   13    0.09498      0.00000     0.40354    0.00148     0.40502
      H   14    0.10344      0.00000     0.39480    0.00176     0.39656
      H   15    0.09097      0.00000     0.40691    0.00212     0.40903
      H   16    0.09313      0.00000     0.40458    0.00229     0.40687
      H   17    0.08660      0.00000     0.41195    0.00145     0.41340
      H   18    0.09504      0.00000     0.40391    0.00105     0.40496
      H   19    0.09737      0.00000     0.40139    0.00124     0.40263
      H   20    0.10899      0.00000     0.39024    0.00077     0.39101
      H   21    0.07781      0.00000     0.42076    0.00143     0.42219
      H   22    0.07577      0.00000     0.42284    0.00139     0.42423
      H   23    0.08625      0.00000     0.41294    0.00081     0.41375
 =======================================================================
   * Total *    0.00000     10.99556    29.86840    0.13604    41.00000

 Normal termination of Gaussian 16 at Tue Dec  8 19:31:58 2020.
