 Gaussian 16, Revision A.03,

 -----------------------------------------------------------
 # opt freq B3LYP/6-31G(d) empiricaldispersion=gd3bj scf=xqc
 -----------------------------------------------------------

 -------------------------------
 CID_103180036_JID_6355_neutraal
 -------------------------------
 Symbolic Z-matrix:
 Charge =  0 Multiplicity = 1

 SCF Done:  E(RB3LYP) =  -784.792340591     A.U. after   14 cycles
 SCF Done:  E(RB3LYP) =  -784.798283242     A.U. after   12 cycles
 SCF Done:  E(RB3LYP) =  -784.799575149     A.U. after   12 cycles
 SCF Done:  E(RB3LYP) =  -784.800337045     A.U. after   12 cycles
 SCF Done:  E(RB3LYP) =  -784.796806925     A.U. after   12 cycles
 SCF Done:  E(RB3LYP) =  -784.800362942     A.U. after   12 cycles
 SCF Done:  E(RB3LYP) =  -784.800892306     A.U. after   12 cycles
 SCF Done:  E(RB3LYP) =  -784.801109422     A.U. after   11 cycles
 SCF Done:  E(RB3LYP) =  -784.801265770     A.U. after   11 cycles
 SCF Done:  E(RB3LYP) =  -784.801293646     A.U. after   11 cycles
 SCF Done:  E(RB3LYP) =  -784.801337774     A.U. after    7 cycles
 SCF Done:  E(RB3LYP) =  -784.801337830     A.U. after    7 cycles
 SCF Done:  E(RB3LYP) =  -784.801337864     A.U. after    7 cycles
 SCF Done:  E(RB3LYP) =  -784.801337894     A.U. after    6 cycles
 SCF Done:  E(RB3LYP) =  -784.801337909     A.U. after    6 cycles
 Optimization completed.
    -- Stationary point found.
 Normal termination of Gaussian 16 at Thu Dec 10 22:32:28 2020.

 --------------------------------------------------------------------
 #N Geom=AllCheck Guess=TCheck SCRF=Check GenChk RB3LYP/6-31G(d) Freq
 --------------------------------------------------------------------

 Structure from the checkpoint file:  "JID_6355.chk"
 -------------------------------
 CID_103180036_JID_6355_neutraal
 -------------------------------
 Charge =  0 Multiplicity = 1

 SCF Done:  E(RB3LYP) =  -784.801337909     A.U. after    1 cycles

  Exact polarizability: 168.524   1.469 132.544  -8.856   3.533 117.993
 Approx polarizability: 211.289   5.997 187.290 -16.508   1.570 171.576

                      1                      2                      3
                      A                      A                      A
 Frequencies --     17.5916                21.3622                50.6273
 Red. masses --      4.1806                 5.0259                 3.6797
 Frc consts  --      0.0008                 0.0014                 0.0056
 IR Inten    --      0.2210                 0.0840                 0.2442

                      4                      5                      6
                      A                      A                      A
 Frequencies --     58.3357                59.9709                82.8066
 Red. masses --      3.3828                 2.9820                 4.2232
 Frc consts  --      0.0068                 0.0063                 0.0171
 IR Inten    --      0.0912                 0.0957                 0.7339

                      7                      8                      9
                      A                      A                      A
 Frequencies --     99.4191               111.9702               127.3614
 Red. masses --      2.3793                 3.3969                 2.2996
 Frc consts  --      0.0139                 0.0251                 0.0220
 IR Inten    --      1.1721                13.2901                 2.2402

                     10                     11                     12
                      A                      A                      A
 Frequencies --    161.3541               180.7537               196.8064
 Red. masses --      2.2154                 3.6333                 2.0958
 Frc consts  --      0.0340                 0.0699                 0.0478
 IR Inten    --      1.3828                 0.1385                 0.9807

                     13                     14                     15
                      A                      A                      A
 Frequencies --    221.8577               245.7109               253.5147
 Red. masses --      1.9227                 2.1138                 2.1424
 Frc consts  --      0.0558                 0.0752                 0.0811
 IR Inten    --      1.8993                 1.2373                21.1508

                     16                     17                     18
                      A                      A                      A
 Frequencies --    269.4113               278.0958               313.8764
 Red. masses --      2.2302                 2.0435                 2.7679
 Frc consts  --      0.0954                 0.0931                 0.1607
 IR Inten    --     10.6736                 8.5051                 1.6241

                     19                     20                     21
                      A                      A                      A
 Frequencies --    320.7059               323.2868               362.2722
 Red. masses --      1.4604                 2.1980                 3.1938
 Frc consts  --      0.0885                 0.1353                 0.2470
 IR Inten    --    100.6922                 7.0634                 7.1104

                     22                     23                     24
                      A                      A                      A
 Frequencies --    373.5954               428.6491               460.5131
 Red. masses --      2.3110                 2.8425                 2.1183
 Frc consts  --      0.1900                 0.3077                 0.2647
 IR Inten    --      4.3409                 1.3159                 5.7131

                     25                     26                     27
                      A                      A                      A
 Frequencies --    465.6654               469.1495               527.8542
 Red. masses --      2.3681                 2.2286                 2.1066
 Frc consts  --      0.3025                 0.2890                 0.3458
 IR Inten    --      9.4356                 7.8436                 5.8495

                     28                     29                     30
                      A                      A                      A
 Frequencies --    555.1009               580.7395               612.5231
 Red. masses --      2.1555                 2.9312                 2.1692
 Frc consts  --      0.3913                 0.5824                 0.4795
 IR Inten    --     18.3690                 3.6541                59.7127

                     31                     32                     33
                      A                      A                      A
 Frequencies --    627.6999               697.5565               782.6438
 Red. masses --      3.6617                 1.1582                 1.5848
 Frc consts  --      0.8500                 0.3320                 0.5719
 IR Inten    --     25.1769               226.2485                 2.1305

                     34                     35                     36
                      A                      A                      A
 Frequencies --    805.7018               815.6262               840.2218
 Red. masses --      2.7258                 1.1722                 2.5473
 Frc consts  --      1.0425                 0.4595                 1.0595
 IR Inten    --      7.4597                 3.1084                 5.2101

                     37                     38                     39
                      A                      A                      A
 Frequencies --    860.1881               890.3215               930.9403
 Red. masses --      3.4413                 2.7147                 2.0152
 Frc consts  --      1.5002                 1.2678                 1.0290
 IR Inten    --      3.8459                 2.0794                15.9106

                     40                     41                     42
                      A                      A                      A
 Frequencies --    948.4704               964.2304               971.9935
 Red. masses --      2.1945                 4.7588                 2.2897
 Frc consts  --      1.1631                 2.6068                 1.2746
 IR Inten    --     13.2092               124.2562                20.3992

                     43                     44                     45
                      A                      A                      A
 Frequencies --   1010.7250              1022.3846              1060.6905
 Red. masses --      2.1248                 2.5108                 2.0589
 Frc consts  --      1.2789                 1.5463                 1.3648
 IR Inten    --      1.9436                13.2965                 5.0950

                     46                     47                     48
                      A                      A                      A
 Frequencies --   1084.4140              1100.1384              1108.3559
 Red. masses --      2.1357                 2.2532                 1.9762
 Frc consts  --      1.4797                 1.6067                 1.4303
 IR Inten    --     43.4295                17.4080                 5.5538

                     49                     50                     51
                      A                      A                      A
 Frequencies --   1129.0400              1134.2200              1152.5620
 Red. masses --      2.1176                 2.0836                 2.9262
 Frc consts  --      1.5904                 1.5793                 2.2902
 IR Inten    --     18.3856                17.9666               150.0763

                     52                     53                     54
                      A                      A                      A
 Frequencies --   1158.4645              1167.4269              1194.0298
 Red. masses --      1.8100                 4.8196                 1.2866
 Frc consts  --      1.4312                 3.8701                 1.0808
 IR Inten    --     39.7363               134.2093                 4.0217

                     55                     56                     57
                      A                      A                      A
 Frequencies --   1201.2541              1231.5416              1247.0663
 Red. masses --      1.9147                 1.5961                 2.1696
 Frc consts  --      1.6279                 1.4263                 1.9880
 IR Inten    --     25.2104                27.4462                11.5217

                     58                     59                     60
                      A                      A                      A
 Frequencies --   1266.2134              1285.6764              1310.7746
 Red. masses --      1.2267                 1.2326                 1.2764
 Frc consts  --      1.1588                 1.2004                 1.2920
 IR Inten    --     11.1681                 3.4598                16.2305

                     61                     62                     63
                      A                      A                      A
 Frequencies --   1316.1097              1329.6161              1340.0247
 Red. masses --      1.2087                 1.2000                 1.2281
 Frc consts  --      1.2335                 1.2499                 1.2993
 IR Inten    --      7.7105                18.7229                31.2838

                     64                     65                     66
                      A                      A                      A
 Frequencies --   1347.4870              1355.8446              1398.6680
 Red. masses --      1.2003                 1.3889                 1.2320
 Frc consts  --      1.2841                 1.5044                 1.4200
 IR Inten    --      5.5181                90.7960                23.7531

                     67                     68                     69
                      A                      A                      A
 Frequencies --   1412.0491              1414.9435              1422.6923
 Red. masses --      1.4669                 1.5460                 1.3726
 Frc consts  --      1.7232                 1.8237                 1.6369
 IR Inten    --      7.6748                12.8696                 7.2927

                     70                     71                     72
                      A                      A                      A
 Frequencies --   1431.0496              1444.1446              1447.4897
 Red. masses --      1.3542                 1.3376                 1.3412
 Frc consts  --      1.6340                 1.6436                 1.6556
 IR Inten    --      8.1933                15.3483                23.9667

                     73                     74                     75
                      A                      A                      A
 Frequencies --   1451.6243              1454.6709              1496.5795
 Red. masses --      2.0579                 1.3125                 1.0991
 Frc consts  --      2.5549                 1.6364                 1.4504
 IR Inten    --      1.8561                 2.8782                 3.6698

                     76                     77                     78
                      A                      A                      A
 Frequencies --   1503.2966              1505.0278              1515.1351
 Red. masses --      1.1646                 1.0929                 1.0490
 Frc consts  --      1.5506                 1.4586                 1.4189
 IR Inten    --      2.3201                 0.9834                 3.4834

                     79                     80                     81
                      A                      A                      A
 Frequencies --   1518.7788              1522.0188              1526.0893
 Red. masses --      1.0777                 1.0642                 1.0925
 Frc consts  --      1.4647                 1.4526                 1.4991
 IR Inten    --      5.3947                 0.7219                 1.7993

                     82                     83                     84
                      A                      A                      A
 Frequencies --   1530.2417              1532.8462              1540.4409
 Red. masses --      1.0542                 1.0585                 1.0805
 Frc consts  --      1.4544                 1.4653                 1.5106
 IR Inten    --      5.9974                 9.0425                 1.7901

                     85                     86                     87
                      A                      A                      A
 Frequencies --   1551.3323              1560.7966              1680.1110
 Red. masses --      1.0880                 1.0867                 1.2434
 Frc consts  --      1.5427                 1.5597                 2.0679
 IR Inten    --      3.0761                 3.2075                47.7772

                     88                     89                     90
                      A                      A                      A
 Frequencies --   1728.9069              2939.5522              2945.9933
 Red. masses --      5.1390                 1.0740                 1.0736
 Frc consts  --      9.0506                 5.4679                 5.4900
 IR Inten    --    122.0080                27.2548               106.4658

                     91                     92                     93
                      A                      A                      A
 Frequencies --   2964.7031              2984.7254              2996.3991
 Red. masses --      1.0746                 1.0470                 1.0463
 Frc consts  --      5.5649                 5.4953                 5.5346
 IR Inten    --     62.5058                26.9731                90.1795

                     94                     95                     96
                      A                      A                      A
 Frequencies --   3018.4156              3036.2698              3047.7803
 Red. masses --      1.1035                 1.1047                 1.0593
 Frc consts  --      5.9235                 6.0004                 5.7973
 IR Inten    --     56.6348                62.0579                53.2234

                     97                     98                     99
                      A                      A                      A
 Frequencies --   3050.6149              3057.2848              3066.0035
 Red. masses --      1.0631                 1.0357                 1.0649
 Frc consts  --      5.8291                 5.7038                 5.8981
 IR Inten    --     36.2696                18.2256                33.8552

                    100                    101                    102
                      A                      A                      A
 Frequencies --   3082.3093              3093.0299              3094.4764
 Red. masses --      1.0890                 1.1034                 1.1024
 Frc consts  --      6.0961                 6.2196                 6.2196
 IR Inten    --     27.6263                30.7093                 0.7582

                    103                    104                    105
                      A                      A                      A
 Frequencies --   3122.0885              3124.2030              3129.4978
 Red. masses --      1.0925                 1.1000                 1.1010
 Frc consts  --      6.2740                 6.3260                 6.3532
 IR Inten    --      4.5809                45.8083                47.2011

                    106                    107                    108
                      A                      A                      A
 Frequencies --   3132.3919              3137.1631              3148.2241
 Red. masses --      1.1015                 1.0970                 1.0862
 Frc consts  --      6.3676                 6.3608                 6.3427
 IR Inten    --     21.7444                28.8497                 6.6767

                    109                    110                    111
                      A                      A                      A
 Frequencies --   3498.3548              3631.3626              3779.4546
 Red. masses --      1.0522                 1.0959                 1.0678
 Frc consts  --      7.5872                 8.5149                 8.9865
 IR Inten    --    229.5619                83.4308                56.0776

 - Thermochemistry -
 -------------------
 Temperature   298.150 Kelvin.  Pressure   1.00000 Atm.
 Atom     1 has atomic number  6 and mass  12.00000

 Molecular mass:   233.17394 amu.
 Principal axes and moments of inertia in atomic units:
                           1         2         3
     Eigenvalues --  1948.784607352.243968074.48217
           X            0.99998   0.00574  -0.00256
           Y           -0.00572   0.99997   0.00590
           Z            0.00259  -0.00589   0.99998
 This molecule is an asymmetric top.
 Rotational symmetry number  1.
 Warning -- assumption of classical behavior for rotation
           may cause significant error
 Rotational temperatures (Kelvin)      0.04445     0.01178     0.01073
 Rotational constants (GHZ):           0.92609     0.24547     0.22351
 Zero-point vibrational energy     912689.5 (Joules/Mol)
                                  218.13802 (Kcal/Mol)
 Warning -- explicit consideration of  30 degrees of freedom as
           vibrations may cause significant error
 Vibrational temperatures:     25.31    30.74    72.84    83.93    86.28
          (Kelvin)            119.14   143.04   161.10   183.24   232.15
                              260.06   283.16   319.20   353.52   364.75
                              387.62   400.12   451.60   461.42   465.14
                              521.23   537.52   616.73   662.58   669.99
                              675.00   759.46   798.67   835.55   881.28
                              903.12  1003.63  1126.05  1159.23  1173.50
                             1208.89  1237.62  1280.97  1339.42  1364.64
                             1387.31  1398.48  1454.21  1470.98  1526.10
                             1560.23  1582.85  1594.68  1624.44  1631.89
                             1658.28  1666.77  1679.67  1717.94  1728.34
                             1771.91  1794.25  1821.80  1849.80  1885.91
                             1893.59  1913.02  1928.00  1938.73  1950.76
                             2012.37  2031.62  2035.79  2046.94  2058.96
                             2077.80  2082.61  2088.56  2092.95  2153.24
                             2162.91  2165.40  2179.94  2185.18  2189.85
                             2195.70  2201.68  2205.42  2216.35  2232.02
                             2245.64  2417.31  2487.51  4229.36  4238.63
                             4265.55  4294.35  4311.15  4342.83  4368.52
                             4385.08  4389.15  4398.75  4411.30  4434.76
                             4450.18  4452.26  4491.99  4495.03  4502.65
                             4506.81  4513.68  4529.59  5033.35  5224.72
                             5437.79

 Zero-point correction=                           0.347625 (Hartree/Particle)
 Thermal correction to Energy=                    0.366834
 Thermal correction to Enthalpy=                  0.367778
 Thermal correction to Gibbs Free Energy=         0.298186
 Sum of electronic and zero-point Energies=           -784.453713
 Sum of electronic and thermal Energies=              -784.434504
 Sum of electronic and thermal Enthalpies=            -784.433560
 Sum of electronic and thermal Free Energies=         -784.503152

                     E (Thermal)             CV                S
                      KCal/Mol        Cal/Mol-Kelvin    Cal/Mol-Kelvin
 Total                  230.192             69.655            146.469
 Electronic               0.000              0.000              0.000
 Translational            0.889              2.981             42.242
 Rotational               0.889              2.981             33.114
 Vibrational            228.414             63.693             71.113
 Vibration     1          0.593              1.986              6.889
 Vibration     2          0.593              1.985              6.503
 Vibration     3          0.595              1.977              4.793
 Vibration     4          0.596              1.974              4.513
 Vibration     5          0.597              1.973              4.458
 Vibration     6          0.600              1.961              3.823
 Vibration     7          0.604              1.950              3.466
 Vibration     8          0.607              1.940              3.234
 Vibration     9          0.611              1.926              2.986
 Vibration    10          0.622              1.890              2.534
 Vibration    11          0.630              1.866              2.321
 Vibration    12          0.636              1.844              2.163
 Vibration    13          0.648              1.808              1.944
 Vibration    14          0.660              1.770              1.761
 Vibration    15          0.665              1.757              1.706
 Vibration    16          0.674              1.729              1.600
 Vibration    17          0.679              1.714              1.545
 Vibration    18          0.702              1.647              1.342
 Vibration    19          0.706              1.634              1.307
 Vibration    20          0.708              1.629              1.293
 Vibration    21          0.736              1.550              1.112
 Vibration    22          0.745              1.526              1.065
 Vibration    23          0.790              1.408              0.863
 Vibration    24          0.818              1.338              0.765
 Vibration    25          0.823              1.326              0.750
 Vibration    26          0.826              1.318              0.740
 Vibration    27          0.883              1.188              0.592
 Vibration    28          0.911              1.129              0.534
 Vibration    29          0.937              1.073              0.484
 Vibration    30          0.972              1.005              0.429

 Optimization completed.
    -- Stationary point found.
 Normal termination of Gaussian 16 at Thu Dec 10 22:45:38 2020.

 ----------------------------------------------------------------------
 # B3LYP/6-311++G(d,p) empiricaldispersion=gd3bj scf=xqc pop=npa geom=c
 heck
 ----------------------------------------------------------------------

 ---------------------------------------
 CID_103180036_JID_6355_Energie_neutraal
 ---------------------------------------
 Structure from the checkpoint file:  "JID_6355.chk"
 Charge =  0 Multiplicity = 1

 SCF Done:  E(RB3LYP) =  -785.047080530     A.U. after   13 cycles
 Normal termination of Gaussian 16 at Thu Dec 10 22:52:11 2020.

 ----------------------------------------------------------------------
 # B3LYP/6-311++G(d,p) empiricaldispersion=gd3bj scf=xqc pop=npa geom=c
 heck
 ----------------------------------------------------------------------

 -------------------------------------
 CID_103180036_JID_6355_Energie_kation
 -------------------------------------
 Structure from the checkpoint file:  "JID_6355.chk"
 Charge =  1 Multiplicity = 2

 SCF Done:  E(UB3LYP) =  -784.771168342     A.U. after   24 cycles
 Normal termination of Gaussian 16 at Thu Dec 10 23:08:03 2020.
 Gaussian 16:  ES64L-G16RevA.03 25-Dec-2016

 ----------------------------------------------------------------------
 # B3LYP/6-311++G(d,p) empiricaldispersion=gd3bj scf=xqc pop=npa geom=c
 heck
 ----------------------------------------------------------------------

 ------------------------------------
 CID_103180036_JID_6355_Energie_anion
 ------------------------------------
 Structure from the checkpoint file:  "JID_6355.chk"
 Charge = -1 Multiplicity = 2

                         Standard orientation:
 ---------------------------------------------------------------------
 Center     Atomic      Atomic             Coordinates (Angstroms)
 Number     Number       Type             X           Y           Z
 ---------------------------------------------------------------------
      1          6           0        0.775676    2.415353   -1.423539
      2          6           0        0.603363    2.130015    0.066985
      3          7           0        1.029184    0.779994    0.442630
      4          6           0        0.385640    0.308989    1.669131
      5          6           0       -1.001383   -0.269204    1.389971
      6          8           0       -0.930344   -1.340005    0.447459
      7          6           0       -1.314993   -1.009939   -0.889546
      8          6           0       -2.723213   -1.511209   -1.205210
      9          6           0       -3.793097   -0.918380   -0.299778
     10          8           0       -3.746816    0.496961   -0.398380
     11          6           0       -4.704344    1.126507    0.425043
     12          6           0        2.481246    0.622706    0.451199
     13          6           0        2.943353   -0.761762    0.037005
     14          7           0        4.121793   -1.013624   -0.421901
     15          8           0        4.917122    0.180080   -0.424853
     16          7           0        2.081758   -1.820492    0.242399
     17          1           0        0.408499    3.419565   -1.662842
     18          1           0        0.213960    1.687248   -2.017414
     19          1           0        1.824023    2.363334   -1.734511
     20          1           0        1.128661    2.898276    0.666359
     21          1           0       -0.459287    2.220450    0.316397
     22          1           0        1.004277   -0.483106    2.098264
     23          1           0        0.303282    1.105438    2.433679
     24          1           0       -1.415632   -0.678195    2.320078
     25          1           0       -1.693452    0.498168    1.025693
     26          1           0       -1.249190    0.068929   -1.050210
     27          1           0       -0.589452   -1.487440   -1.558074
     28          1           0       -2.953151   -1.268798   -2.250902
     29          1           0       -2.753630   -2.603024   -1.104747
     30          1           0       -4.790452   -1.285012   -0.593321
     31          1           0       -3.621350   -1.231035    0.742688
     32          1           0       -5.729931    0.830259    0.153383
     33          1           0       -4.545889    0.885586    1.488617
     34          1           0       -4.596082    2.204872    0.283477
     35          1           0        2.930926    1.324083   -0.252225
     36          1           0        2.923142    0.864545    1.434768
     37          1           0        5.720453   -0.136044   -0.862617
     38          1           0        1.088027   -1.627404    0.142986
     39          1           0        2.389928   -2.686593   -0.182783
 ---------------------------------------------------------------------

 SCF Done:  E(UB3LYP) =  -785.033626319     A.U. after   33 cycles
 SCF Done:  E(UB3LYP) =  -785.033626319     a.u. after    1 cycles

 The electronic state is 2-A.
 Alpha  occ. eigenvalues --  -19.06822 -19.03584 -19.02987 -14.24796 -14.22902
 Alpha  occ. eigenvalues --  -14.22172 -10.15115 -10.12303 -10.12242 -10.11878
 Alpha  occ. eigenvalues --  -10.11779 -10.10902 -10.10794 -10.10450 -10.07637
 Alpha  occ. eigenvalues --  -10.07369  -0.97983  -0.94668  -0.94025  -0.85775
 Alpha  occ. eigenvalues --   -0.83027  -0.73257  -0.69827  -0.67293  -0.65920
 Alpha  occ. eigenvalues --   -0.61535  -0.59003  -0.55927  -0.53313  -0.50063
 Alpha  occ. eigenvalues --   -0.48946  -0.48564  -0.45267  -0.41679  -0.41315
 Alpha  occ. eigenvalues --   -0.40969  -0.39294  -0.38530  -0.38286  -0.37533
 Alpha  occ. eigenvalues --   -0.36392  -0.36081  -0.35564  -0.34641  -0.33744
 Alpha  occ. eigenvalues --   -0.33260  -0.32135  -0.30245  -0.30025  -0.28729
 Alpha  occ. eigenvalues --   -0.28255  -0.28115  -0.27170  -0.26830  -0.25735
 Alpha  occ. eigenvalues --   -0.25056  -0.23930  -0.23145  -0.22037  -0.19553
 Alpha  occ. eigenvalues --   -0.17348  -0.16722  -0.14018  -0.12753   0.04248
 Alpha virt. eigenvalues --    0.05754   0.06542   0.06939   0.07140   0.08154
 Alpha virt. eigenvalues --    0.08748   0.09053   0.09212   0.09946   0.10457
 Alpha virt. eigenvalues --    0.11142   0.11393   0.11752   0.11942   0.12050

  Beta  occ. eigenvalues --  -19.06812 -19.03581 -19.02975 -14.24791 -14.22899
  Beta  occ. eigenvalues --  -14.22163 -10.15114 -10.12299 -10.12224 -10.11855
  Beta  occ. eigenvalues --  -10.11770 -10.10849 -10.10778 -10.10439 -10.07624
  Beta  occ. eigenvalues --  -10.07355  -0.97965  -0.94657  -0.94010  -0.85763
  Beta  occ. eigenvalues --   -0.83012  -0.73240  -0.69800  -0.67268  -0.65896
  Beta  occ. eigenvalues --   -0.61500  -0.58956  -0.55858  -0.53264  -0.50021
  Beta  occ. eigenvalues --   -0.48920  -0.48521  -0.45251  -0.41662  -0.41285
  Beta  occ. eigenvalues --   -0.40945  -0.39235  -0.38510  -0.38266  -0.37501
  Beta  occ. eigenvalues --   -0.36373  -0.36062  -0.35533  -0.34608  -0.33720
  Beta  occ. eigenvalues --   -0.33230  -0.32120  -0.30224  -0.29996  -0.28702
  Beta  occ. eigenvalues --   -0.28231  -0.28087  -0.27141  -0.26802  -0.25715
  Beta  occ. eigenvalues --   -0.25025  -0.23917  -0.23094  -0.22001  -0.19534
  Beta  occ. eigenvalues --   -0.17336  -0.16695  -0.13976  -0.12732
  Beta virt. eigenvalues --    0.05899   0.06602   0.07117   0.07371   0.07671
  Beta virt. eigenvalues --    0.08610   0.09212   0.09310   0.09480   0.10325
  Beta virt. eigenvalues --    0.10835   0.11324   0.11603   0.11930   0.12272

 Mulliken charges and spin densities:
               1          2
     1  C    0.045830  -0.452578
     2  C   -0.078863  -0.171720
     3  N    0.271671   0.041524
     4  C    0.286128  -0.950810
     5  C   -0.520213   0.368661
     6  O   -0.002765  -0.003924
     7  C   -0.635023   0.378982
     8  C    0.551965  -0.997798
     9  C   -0.355024   0.038586
    10  O   -0.150923   0.044101
    11  C    1.239850  -1.490107
    12  C   -0.200776  -0.487462
    13  C    0.033757   0.210625
    14  N   -0.311897   0.013240
    15  O   -0.132559  -0.011774
    16  N   -0.395173  -0.022111
    17  H   -0.115489   0.254046
    18  H   -0.114346   0.248940
    19  H    0.039507   0.086352
    20  H   -0.099264   0.228906
    21  H   -0.080622   0.219167
    22  H    0.187929   0.006626
    23  H   -0.221177   0.364910
    24  H   -0.485327   0.632453
    25  H    0.518022  -0.359684
    26  H    0.509981  -0.399376
    27  H    0.021141   0.124413
    28  H    0.020332   0.147411
    29  H   -0.154732   0.307662
    30  H   -0.587856   0.752254
    31  H    0.210201  -0.044491
    32  H   -0.456003   0.588184
    33  H   -0.477102   0.610736
    34  H   -0.426224   0.566791
    35  H    0.213539   0.000856
    36  H    0.095283   0.074933
    37  H    0.160448   0.102189
    38  H    0.396978  -0.092764
    39  H    0.198796   0.072052
 Sum of Mulliken charges =  -1.00000   1.00000

 Dipole moment (field-independent basis, Debye):
    X=              8.2260    Y=             -2.1830    Z=             -1.8060  Tot=              8.7002
 Quadrupole moment (field-independent basis, Debye-Ang):
   XX=           -210.4298   YY=           -143.9567   ZZ=           -137.6068
   XY=              5.8741   XZ=              2.9999   YZ=             -1.3429

 Summary of Natural Population Analysis:

                                       Natural Population
                Natural  -----------------------------------------------
    Atom  No    Charge         Core      Valence    Rydberg      Total
 -----------------------------------------------------------------------
      C    1   -0.28932      0.99966     2.28415    0.00552     3.28932
      C    2   -0.08236      0.99962     2.07246    0.01028     3.08236
      N    3   -0.29404      0.99970     2.78064    0.01369     3.79404
      C    4   -0.09954      0.99960     2.08891    0.01103     3.09954
      C    5   -0.01660      0.99956     2.00403    0.01301     3.01660
      O    6   -0.31384      0.99989     3.30458    0.00937     4.31384
      C    7   -0.00997      0.99956     1.99722    0.01319     3.00997
      C    8   -0.20911      0.99962     2.19993    0.00957     3.20911
      C    9   -0.01079      0.99958     1.99862    0.01259     3.01079
      O   10   -0.30293      0.99988     3.29336    0.00968     4.30293
      C   11   -0.09730      0.99962     2.08813    0.00954     3.09730
      C   12   -0.11519      0.99956     2.10494    0.01069     3.11519
      C   13    0.20480      0.99963     1.77899    0.01658     2.79520
      N   14   -0.14391      0.99960     2.62996    0.01435     3.64391
      O   15   -0.29946      0.99990     3.29335    0.00621     4.29946
      N   16   -0.40372      0.99969     2.89610    0.00792     3.90372
      H   17    0.10091      0.00000     0.39833    0.00076     0.39909
      H   18    0.10051      0.00000     0.39830    0.00119     0.39949
      H   19    0.09568      0.00000     0.40333    0.00099     0.40432
      H   20    0.08131      0.00000     0.41742    0.00126     0.41869
      H   21    0.09895      0.00000     0.39892    0.00213     0.40105
      H   22    0.10156      0.00000     0.39680    0.00164     0.39844
      H   23    0.08973      0.00000     0.40875    0.00152     0.41027
      H   24    0.09056      0.00000     0.40803    0.00141     0.40944
      H   25    0.09200      0.00000     0.40515    0.00285     0.40800
      H   26    0.09049      0.00000     0.40700    0.00251     0.40951
      H   27    0.08479      0.00000     0.41391    0.00130     0.41521
      H   28    0.10032      0.00000     0.39856    0.00112     0.39968
      H   29    0.10030      0.00000     0.39862    0.00109     0.39970
      H   30    0.08410      0.00000     0.41405    0.00185     0.41590
      H   31    0.08082      0.00000     0.41736    0.00181     0.41918
      H   32    0.08034      0.00000     0.41719    0.00247     0.41966
      H   33    0.07980      0.00000     0.41772    0.00249     0.42020
      H   34    0.09208      0.00000     0.40627    0.00165     0.40792
      H   35    0.11575      0.00000     0.38250    0.00174     0.38425
      H   36    0.09843      0.00000     0.40025    0.00132     0.40157
      H   37    0.23154      0.00000     0.26491    0.00355     0.26846
      H   38    0.20559      0.00000     0.29134    0.00307     0.29441
      H   39    0.18772      0.00000     0.31013    0.00215     0.31228
 =======================================================================
   * Total *   -0.00000     15.99467    47.79025    0.21509    64.00000

 Normal termination of Gaussian 16 at Thu Dec 10 23:26:32 2020.
