 Gaussian 16, Revision A.03,

 -----------------------------------------------------------
 # opt freq B3LYP/6-31G(d) empiricaldispersion=gd3bj scf=xqc
 -----------------------------------------------------------

 -------------------------------
 CID_107780974_JID_6566_neutraal
 -------------------------------
 Symbolic Z-matrix:
 Charge =  0 Multiplicity = 1

 SCF Done:  E(RB3LYP) =  -1387.66249738     A.U. after   15 cycles
 SCF Done:  E(RB3LYP) =  -1387.66714142     A.U. after   12 cycles
 SCF Done:  E(RB3LYP) =  -1387.66810764     A.U. after   13 cycles
 SCF Done:  E(RB3LYP) =  -1387.66879685     A.U. after   14 cycles
 SCF Done:  E(RB3LYP) =  -1387.66929779     A.U. after   12 cycles
 SCF Done:  E(RB3LYP) =  -1387.67023646     A.U. after   12 cycles
 SCF Done:  E(RB3LYP) =  -1387.67078138     A.U. after   12 cycles
 SCF Done:  E(RB3LYP) =  -1387.67140670     A.U. after   14 cycles
 SCF Done:  E(RB3LYP) =  -1387.67221526     A.U. after   13 cycles
 SCF Done:  E(RB3LYP) =  -1387.67261301     A.U. after   14 cycles
 SCF Done:  E(RB3LYP) =  -1387.67291555     A.U. after   10 cycles
 SCF Done:  E(RB3LYP) =  -1387.67291903     A.U. after    9 cycles
 SCF Done:  E(RB3LYP) =  -1387.67292021     A.U. after    8 cycles
 SCF Done:  E(RB3LYP) =  -1387.67292060     A.U. after    8 cycles
 SCF Done:  E(RB3LYP) =  -1387.67292069     A.U. after    7 cycles
 Optimization completed.
    -- Stationary point found.
 Normal termination of Gaussian 16 at Thu Dec 10 23:41:01 2020.

 --------------------------------------------------------------------
 #N Geom=AllCheck Guess=TCheck SCRF=Check GenChk RB3LYP/6-31G(d) Freq
 --------------------------------------------------------------------

 Structure from the checkpoint file:  "JID_6566.chk"
 -------------------------------
 CID_107780974_JID_6566_neutraal
 -------------------------------
 Charge =  0 Multiplicity = 1

 SCF Done:  E(RB3LYP) =  -1387.67292069     A.U. after    1 cycles

  Exact polarizability: 250.940   7.525 158.610   8.696   4.568 107.701
 Approx polarizability: 337.935  14.433 263.301  24.059  12.372 187.750

                      1                      2                      3
                      A                      A                      A
 Frequencies --     26.5830                38.8874                43.9662
 Red. masses --      4.7296                 4.2151                 4.8198
 Frc consts  --      0.0020                 0.0038                 0.0055
 IR Inten    --      1.2052                 1.0393                 6.4904

                      4                      5                      6
                      A                      A                      A
 Frequencies --     57.4466                75.1362                91.3453
 Red. masses --      5.0513                 3.5881                 5.1042
 Frc consts  --      0.0098                 0.0119                 0.0251
 IR Inten    --      1.7028                 7.8318                 2.0506

                      7                      8                      9
                      A                      A                      A
 Frequencies --    159.1752               183.9104               190.6202
 Red. masses --      5.6859                 3.1090                 4.4963
 Frc consts  --      0.0849                 0.0620                 0.0963
 IR Inten    --      2.6688                 1.4337                 1.3917

                     10                     11                     12
                      A                      A                      A
 Frequencies --    236.4779               261.6646               267.6104
 Red. masses --      3.3146                 1.6768                 1.7486
 Frc consts  --      0.1092                 0.0676                 0.0738
 IR Inten    --      3.4860                 1.2584                 1.0918

                     13                     14                     15
                      A                      A                      A
 Frequencies --    289.4748               312.1340               321.6649
 Red. masses --      2.1758                 2.0976                 5.2683
 Frc consts  --      0.1074                 0.1204                 0.3212
 IR Inten    --     14.1431                20.0846                13.4987

                     16                     17                     18
                      A                      A                      A
 Frequencies --    349.5756               419.6903               434.8761
 Red. masses --      4.0227                 6.8329                 7.5899
 Frc consts  --      0.2896                 0.7091                 0.8457
 IR Inten    --     12.7718                 2.2102                 1.4619

                     19                     20                     21
                      A                      A                      A
 Frequencies --    482.9947               516.6546               541.8533
 Red. masses --      4.1429                 6.4309                 4.0199
 Frc consts  --      0.5694                 1.0114                 0.6954
 IR Inten    --      1.2089                 8.6730                 3.2172

                     22                     23                     24
                      A                      A                      A
 Frequencies --    544.3388               558.1573               617.8174
 Red. masses --      3.1623                 2.1714                 4.3300
 Frc consts  --      0.5521                 0.3986                 0.9738
 IR Inten    --     22.1192                47.8532                 3.7604

                     25                     26                     27
                      A                      A                      A
 Frequencies --    650.9154               710.3646               721.4241
 Red. masses --      2.6786                 2.4731                 5.5809
 Frc consts  --      0.6687                 0.7353                 1.7113
 IR Inten    --     17.5895                 4.4475                 5.7972

                     28                     29                     30
                      A                      A                      A
 Frequencies --    736.0786               741.3307               774.5841
 Red. masses --      1.7046                 2.8842                 4.1551
 Frc consts  --      0.5442                 0.9339                 1.4688
 IR Inten    --     29.7251                15.5274                37.2937

                     31                     32                     33
                      A                      A                      A
 Frequencies --    780.0384               810.3977               856.2254
 Red. masses --      1.8729                 3.4288                 1.2824
 Frc consts  --      0.6714                 1.3268                 0.5539
 IR Inten    --     23.3278                19.1623                 8.0525

                     34                     35                     36
                      A                      A                      A
 Frequencies --    862.2051               881.4964               930.6073
 Red. masses --      1.3759                 1.3426                 6.2440
 Frc consts  --      0.6026                 0.6147                 3.1860
 IR Inten    --    105.2005                 0.1244                 2.8123

                     37                     38                     39
                      A                      A                      A
 Frequencies --    965.6443               977.2098               989.7719
 Red. masses --      1.2717                 3.8030                 1.1911
 Frc consts  --      0.6987                 2.1397                 0.6875
 IR Inten    --      0.2960                 8.9105                 2.5450

                     40                     41                     42
                      A                      A                      A
 Frequencies --    998.9669              1003.9215              1059.7848
 Red. masses --      1.8038                 1.2992                 3.1360
 Frc consts  --      1.0606                 0.7715                 2.0752
 IR Inten    --      6.5220                 7.0888                 4.1359

                     43                     44                     45
                      A                      A                      A
 Frequencies --   1105.0715              1106.9413              1125.4168
 Red. masses --      3.2509                 1.8952                 2.4390
 Frc consts  --      2.3390                 1.3682                 1.8201
 IR Inten    --     26.6643                27.9645                 1.2088

                     46                     47                     48
                      A                      A                      A
 Frequencies --   1127.3244              1172.4747              1190.0843
 Red. masses --      1.7738                 1.3854                 2.1742
 Frc consts  --      1.3281                 1.1221                 1.8143
 IR Inten    --      0.2599                19.0824                 1.5571

                     49                     50                     51
                      A                      A                      A
 Frequencies --   1202.2703              1235.4809              1239.2782
 Red. masses --      1.2522                 4.2371                 2.2259
 Frc consts  --      1.0664                 3.8106                 2.0141
 IR Inten    --      1.1555                 9.8059                 2.0824

                     52                     53                     54
                      A                      A                      A
 Frequencies --   1250.9141              1308.9306              1361.9944
 Red. masses --      1.5945                 2.0448                 1.9643
 Frc consts  --      1.4701                 2.0642                 2.1468
 IR Inten    --      8.0724                 2.9338                 2.2426

                     55                     56                     57
                      A                      A                      A
 Frequencies --   1384.9130              1387.6152              1430.9135
 Red. masses --      4.0162                 1.1783                 3.0257
 Frc consts  --      4.5385                 1.3367                 3.6501
 IR Inten    --     15.4865                 2.8102                27.9879

                     58                     59                     60
                      A                      A                      A
 Frequencies --   1436.7596              1464.8202              1474.3148
 Red. masses --      1.3970                 3.5767                 3.0991
 Frc consts  --      1.6991                 4.5217                 3.9689
 IR Inten    --     22.5765                 7.8786                 5.3884

                     61                     62                     63
                      A                      A                      A
 Frequencies --   1490.7178              1499.8820              1519.9396
 Red. masses --      2.0170                 1.0580                 1.0698
 Frc consts  --      2.6409                 1.4023                 1.4562
 IR Inten    --     65.5028                11.9452                20.4221

                     64                     65                     66
                      A                      A                      A
 Frequencies --   1536.2207              1561.1221              1621.9596
 Red. masses --      1.0893                 3.2945                 6.1113
 Frc consts  --      1.5146                 4.7306                 9.4725
 IR Inten    --      7.0951                27.0076                78.7819

                     67                     68                     69
                      A                      A                      A
 Frequencies --   1629.3835              1687.2361              3024.5818
 Red. masses --      5.3572                 1.0959                 1.0655
 Frc consts  --      8.3798                 1.8381                 5.7428
 IR Inten    --      9.4328                25.5965                67.6897

                     70                     71                     72
                      A                      A                      A
 Frequencies --   3065.0217              3074.0067              3149.7554
 Red. masses --      1.0301                 1.0959                 1.1082
 Frc consts  --      5.7014                 6.1012                 6.4776
 IR Inten    --     23.3745                15.3919                 9.1986

                     73                     74                     75
                      A                      A                      A
 Frequencies --   3159.0794              3191.1362              3222.8585
 Red. masses --      1.1041                 1.0880                 1.0922
 Frc consts  --      6.4918                 6.5280                 6.6838
 IR Inten    --      5.3172                10.8729                 5.9009

                     76                     77                     78
                      A                      A                      A
 Frequencies --   3238.6537              3261.4791              3293.3081
 Red. masses --      1.0909                 1.0926                 1.1031
 Frc consts  --      6.7417                 6.8476                 7.0489
 IR Inten    --     11.1322                 9.6829                 4.3726

                     79                     80                     81
                      A                      A                      A
 Frequencies --   3469.7469              3561.3472              3651.2216
 Red. masses --      1.0490                 1.0939                 1.0813
 Frc consts  --      7.4408                 8.1746                 8.4932
 IR Inten    --      1.6172                 0.2537                56.1996

 - Thermochemistry -
 -------------------
 Temperature   298.150 Kelvin.  Pressure   1.00000 Atm.
 Atom     1 has atomic number  6 and mass  12.00000

 Molecular mass:   251.05509 amu.
 Principal axes and moments of inertia in atomic units:
                           1         2         3
     Eigenvalues --  1888.827797812.073509014.20792
           X            1.00000  -0.00067   0.00086
           Y            0.00067   0.99997   0.00720
           Z           -0.00086  -0.00720   0.99997
 This molecule is an asymmetric top.
 Rotational symmetry number  1.
 Warning -- assumption of classical behavior for rotation
           may cause significant error
 Rotational temperatures (Kelvin)      0.04586     0.01109     0.00961
 Rotational constants (GHZ):           0.95548     0.23102     0.20021
 Zero-point vibrational energy     600448.8 (Joules/Mol)
                                  143.51070 (Kcal/Mol)
 Warning -- explicit consideration of  24 degrees of freedom as
           vibrations may cause significant error
 Vibrational temperatures:     38.25    55.95    63.26    82.65   108.10
          (Kelvin)            131.43   229.02   264.61   274.26   340.24
                              376.48   385.03   416.49   449.09   462.80
                              502.96   603.84   625.69   694.92   743.35
                              779.61   783.18   803.06   888.90   936.52
                             1022.06  1037.97  1059.05  1066.61  1114.45
                             1122.30  1165.98  1231.92  1240.52  1268.28
                             1338.94  1389.35  1405.99  1424.06  1437.29
                             1444.42  1524.79  1589.95  1592.64  1619.22
                             1621.97  1686.93  1712.27  1729.80  1777.58
                             1783.04  1799.79  1883.26  1959.61  1992.58
                             1996.47  2058.77  2067.18  2107.55  2121.21
                             2144.81  2158.00  2186.85  2210.28  2246.11
                             2333.64  2344.32  2427.56  4351.70  4409.88
                             4422.81  4531.80  4545.21  4591.33  4636.97
                             4659.70  4692.54  4738.34  4992.19  5123.98
                             5253.29

 Zero-point correction=                           0.228699 (Hartree/Particle)
 Thermal correction to Energy=                    0.244561
 Thermal correction to Enthalpy=                  0.245505
 Thermal correction to Gibbs Free Energy=         0.183302
 Sum of electronic and zero-point Energies=          -1387.444222
 Sum of electronic and thermal Energies=             -1387.428360
 Sum of electronic and thermal Enthalpies=           -1387.427416
 Sum of electronic and thermal Free Energies=        -1387.489619

                     E (Thermal)             CV                S
                      KCal/Mol        Cal/Mol-Kelvin    Cal/Mol-Kelvin
 Total                  153.464             58.964            130.917
 Electronic               0.000              0.000              0.000
 Translational            0.889              2.981             42.462
 Rotational               0.889              2.981             33.253
 Vibrational            151.687             53.002             55.202
 Vibration     1          0.593              1.984              6.069
 Vibration     2          0.594              1.981              5.315
 Vibration     3          0.595              1.980              5.072
 Vibration     4          0.596              1.975              4.543
 Vibration     5          0.599              1.966              4.014
 Vibration     6          0.602              1.955              3.631
 Vibration     7          0.621              1.892              2.560
 Vibration     8          0.631              1.862              2.288
 Vibration     9          0.634              1.853              2.222
 Vibration    10          0.655              1.785              1.829
 Vibration    11          0.669              1.743              1.651
 Vibration    12          0.673              1.733              1.612
 Vibration    13          0.686              1.693              1.477
 Vibration    14          0.700              1.651              1.351
 Vibration    15          0.707              1.632              1.302
 Vibration    16          0.727              1.576              1.168
 Vibration    17          0.782              1.427              0.893
 Vibration    18          0.795              1.394              0.843
 Vibration    19          0.839              1.288              0.702
 Vibration    20          0.872              1.213              0.618
 Vibration    21          0.897              1.158              0.561
 Vibration    22          0.899              1.152              0.556
 Vibration    23          0.914              1.122              0.528
 Vibration    24          0.978              0.994              0.420

 Optimization completed.
    -- Stationary point found.
 Normal termination of Gaussian 16 at Thu Dec 10 23:49:24 2020.

 ----------------------------------------------------------------------
 # B3LYP/6-311++G(d,p) empiricaldispersion=gd3bj scf=xqc pop=npa geom=c
 heck
 ----------------------------------------------------------------------

 ---------------------------------------
 CID_107780974_JID_6566_Energie_neutraal
 ---------------------------------------
 Structure from the checkpoint file:  "JID_6566.chk"
 Charge =  0 Multiplicity = 1

 SCF Done:  E(RB3LYP) =  -1387.89259213     A.U. after   16 cycles
 Normal termination of Gaussian 16 at Thu Dec 10 23:53:15 2020.

 ----------------------------------------------------------------------
 # B3LYP/6-311++G(d,p) empiricaldispersion=gd3bj scf=xqc pop=npa geom=c
 heck
 ----------------------------------------------------------------------

 -------------------------------------
 CID_107780974_JID_6566_Energie_kation
 -------------------------------------
 Structure from the checkpoint file:  "JID_6566.chk"
 Charge =  1 Multiplicity = 2

 SCF Done:  E(UB3LYP) =  -1387.62172982     A.U. after   27 cycles
 Normal termination of Gaussian 16 at Fri Dec 11 00:01:58 2020.
 Gaussian 16:  ES64L-G16RevA.03 25-Dec-2016

 ----------------------------------------------------------------------
 # B3LYP/6-311++G(d,p) empiricaldispersion=gd3bj scf=xqc pop=npa geom=c
 heck
 ----------------------------------------------------------------------

 ------------------------------------
 CID_107780974_JID_6566_Energie_anion
 ------------------------------------
 Structure from the checkpoint file:  "JID_6566.chk"
 Charge = -1 Multiplicity = 2

                         Standard orientation:
 ---------------------------------------------------------------------
 Center     Atomic      Atomic             Coordinates (Angstroms)
 Number     Number       Type             X           Y           Z
 ---------------------------------------------------------------------
      1          6           0        4.854979   -1.315344    0.086968
      2         16           0        3.812793    0.125300    0.478060
      3          6           0        2.166837   -0.437069    0.039872
      4          6           0        1.111872    0.499373    0.090542
      5          6           0       -0.178231    0.078490   -0.276196
      6          6           0       -0.423723   -1.243230   -0.658508
      7          6           0        0.623695   -2.155322   -0.676273
      8          6           0        1.915675   -1.761406   -0.334786
      9         16           0       -1.514556    1.291432   -0.264964
     10          6           0       -2.875661    0.245080    0.152231
     11          7           0       -3.168131   -0.282466    1.327042
     12          6           0       -4.337173   -0.980749    1.139270
     13          6           0       -4.770397   -0.870079   -0.162346
     14          7           0       -3.825094   -0.087472   -0.784883
     15          6           0        1.331969    1.937855    0.499256
     16          7           0        1.022075    2.822508   -0.631248
     17          1           0        5.881377   -0.990221    0.273845
     18          1           0        4.758775   -1.606307   -0.962358
     19          1           0        4.631836   -2.166575    0.735398
     20          1           0       -1.425427   -1.556006   -0.929845
     21          1           0        0.437206   -3.185624   -0.966504
     22          1           0        2.713892   -2.492023   -0.362843
     23          1           0       -4.805227   -1.518358    1.952648
     24          1           0       -5.635014   -1.253868   -0.682373
     25          1           0       -3.811830    0.203297   -1.751943
     26          1           0        0.630346    2.182683    1.305935
     27          1           0        2.343834    2.072828    0.905684
     28          1           0        1.071797    3.796336   -0.337848
     29          1           0        1.715648    2.692555   -1.365889
 ---------------------------------------------------------------------

 SCF Done:  E(UB3LYP) =  -1387.88383618     A.U. after   33 cycles
 SCF Done:  E(UB3LYP) =  -1387.88383618     a.u. after    1 cycles

 The electronic state is 2-A.
 Alpha  occ. eigenvalues --  -88.76532 -88.76351 -14.27909 -14.21552 -14.20784
 Alpha  occ. eigenvalues --  -10.15434 -10.12197 -10.11602 -10.11406 -10.11281
 Alpha  occ. eigenvalues --  -10.10929 -10.09815 -10.09684 -10.08638 -10.08278
 Alpha  occ. eigenvalues --  -10.08163  -7.85081  -7.84946  -5.81498  -5.81350
 Alpha  occ. eigenvalues --   -5.81078  -5.80945  -5.80455  -5.80341  -0.92978
 Alpha  occ. eigenvalues --   -0.81231  -0.78486  -0.77651  -0.72488  -0.69877
 Alpha  occ. eigenvalues --   -0.67238  -0.65010  -0.60871  -0.58179  -0.56550
 Alpha  occ. eigenvalues --   -0.52357  -0.50712  -0.49446  -0.48892  -0.43728
 Alpha  occ. eigenvalues --   -0.42498  -0.40391  -0.39843  -0.36272  -0.35612
 Alpha  occ. eigenvalues --   -0.35478  -0.34981  -0.34575  -0.34444  -0.33603
 Alpha  occ. eigenvalues --   -0.32491  -0.31118  -0.30467  -0.28449  -0.28174
 Alpha  occ. eigenvalues --   -0.27300  -0.24230  -0.23103  -0.21037  -0.20008
 Alpha  occ. eigenvalues --   -0.18904  -0.18495  -0.16408  -0.15060  -0.13239
 Alpha  occ. eigenvalues --   -0.12140   0.03721
 Alpha virt. eigenvalues --    0.04907   0.05760   0.06901   0.07276   0.07640
 Alpha virt. eigenvalues --    0.08028   0.08527   0.08968   0.09070   0.09449
 Alpha virt. eigenvalues --    0.10069   0.10200   0.11240   0.11565   0.12019

  Beta  occ. eigenvalues --  -88.76532 -88.76344 -14.27862 -14.21538 -14.20782
  Beta  occ. eigenvalues --  -10.15431 -10.12204 -10.11558 -10.11406 -10.11256
  Beta  occ. eigenvalues --  -10.10870 -10.09814 -10.09671 -10.08624 -10.08240
  Beta  occ. eigenvalues --  -10.08162  -7.85081  -7.84940  -5.81498  -5.81337
  Beta  occ. eigenvalues --   -5.81077  -5.80932  -5.80457  -5.80337  -0.92940
  Beta  occ. eigenvalues --   -0.81196  -0.78434  -0.77609  -0.72442  -0.69838
  Beta  occ. eigenvalues --   -0.67192  -0.64953  -0.60830  -0.58142  -0.56486
  Beta  occ. eigenvalues --   -0.52267  -0.50672  -0.49392  -0.48841  -0.43677
  Beta  occ. eigenvalues --   -0.42466  -0.40363  -0.39813  -0.36239  -0.35575
  Beta  occ. eigenvalues --   -0.35430  -0.34938  -0.34518  -0.34407  -0.33567
  Beta  occ. eigenvalues --   -0.32466  -0.31078  -0.30424  -0.28383  -0.28133
  Beta  occ. eigenvalues --   -0.27254  -0.24196  -0.23053  -0.20964  -0.19976
  Beta  occ. eigenvalues --   -0.18883  -0.18422  -0.16380  -0.15014  -0.13180
  Beta  occ. eigenvalues --   -0.12078
  Beta virt. eigenvalues --    0.05726   0.06044   0.06581   0.07223   0.07555
  Beta virt. eigenvalues --    0.07922   0.08437   0.08728   0.09073   0.09510
  Beta virt. eigenvalues --    0.09897   0.10271   0.10468   0.11429   0.11703

 Mulliken charges and spin densities:
               1          2
     1  C    0.372922  -0.820554
     2  S   -0.338373  -0.507605
     3  C   -0.637961   1.132277
     4  C    0.539334   0.170051
     5  C    1.157098  -0.356393
     6  C   -0.224359  -0.185048
     7  C   -0.219107  -0.345849
     8  C    0.281010  -0.133903
     9  S    0.502149  -1.103500
    10  C    0.447591  -0.823163
    11  N   -0.020413   0.038678
    12  C    0.382363  -0.389607
    13  C    0.011481  -0.069107
    14  N   -0.040748   0.141907
    15  C   -1.236895   0.141616
    16  N   -0.230273  -0.058637
    17  H   -0.577725   0.766343
    18  H   -0.153145   0.334652
    19  H   -0.206530   0.397914
    20  H    0.220975  -0.039358
    21  H   -0.235983   0.417764
    22  H    0.134864  -0.001769
    23  H    0.070719   0.092522
    24  H   -1.087815   1.264652
    25  H   -0.423384   0.751286
    26  H    0.154883   0.039952
    27  H    0.031463   0.047536
    28  H    0.161711   0.046364
    29  H    0.164152   0.050980
 Sum of Mulliken charges =  -1.00000   1.00000

 Dipole moment (field-independent basis, Debye):
    X=              2.1937    Y=              3.2098    Z=              2.0693  Tot=              4.4042
 Quadrupole moment (field-independent basis, Debye-Ang):
   XX=           -228.6946   YY=           -137.0389   ZZ=           -144.4582
   XY=              7.8100   XZ=            -15.5272   YZ=             -0.4223

 Summary of Natural Population Analysis:

                                       Natural Population
                Natural  -----------------------------------------------
    Atom  No    Charge         Core      Valence    Rydberg      Total
 -----------------------------------------------------------------------
      C    1   -0.35395      0.99963     2.34763    0.00669     3.35395
      S    2    0.12193      4.99954     2.85827    0.02026     7.87807
      C    3   -0.07524      0.99937     2.06432    0.01155     3.07524
      C    4   -0.04433      0.99939     2.03358    0.01135     3.04433
      C    5   -0.05517      0.99935     2.04323    0.01259     3.05517
      C    6   -0.11425      0.99949     2.10451    0.01025     3.11425
      C    7   -0.08581      0.99956     2.07672    0.00953     3.08581
      C    8   -0.11966      0.99949     2.10964    0.01053     3.11966
      S    9    0.15287      4.99946     2.82660    0.02107     7.84713
      C   10    0.08975      0.99956     1.88560    0.02509     2.91025
      N   11   -0.25125      0.99967     2.74200    0.00957     3.75125
      C   12   -0.03681      0.99958     2.02339    0.01384     3.03681
      C   13   -0.03339      0.99956     2.02041    0.01341     3.03339
      N   14   -0.27234      0.99964     2.75957    0.01312     3.77234
      C   15   -0.10282      0.99959     2.09342    0.00981     3.10282
      N   16   -0.41567      0.99977     2.90676    0.00914     3.91567
      H   17    0.11319      0.00000     0.38519    0.00162     0.38681
      H   18    0.10562      0.00000     0.39248    0.00190     0.39438
      H   19    0.10479      0.00000     0.39330    0.00190     0.39521
      H   20    0.10710      0.00000     0.39128    0.00162     0.39290
      H   21    0.10133      0.00000     0.39785    0.00082     0.39867
      H   22    0.10307      0.00000     0.39519    0.00174     0.39693
      H   23    0.09640      0.00000     0.40269    0.00091     0.40360
      H   24    0.10830      0.00000     0.38865    0.00305     0.39170
      H   25    0.21476      0.00000     0.27367    0.01157     0.28524
      H   26    0.10270      0.00000     0.39596    0.00134     0.39730
      H   27    0.09031      0.00000     0.40755    0.00215     0.40969
      H   28    0.17327      0.00000     0.32512    0.00161     0.32673
      H   29    0.17530      0.00000     0.32294    0.00175     0.32470
 =======================================================================
   * Total *    0.00000     23.99267    41.76754    0.23979    66.00000

 Normal termination of Gaussian 16 at Fri Dec 11 00:12:35 2020.
