 Gaussian 16, Revision A.03,

 -----------------------------------------------------------
 # opt freq B3LYP/6-31G(d) empiricaldispersion=gd3bj scf=xqc
 -----------------------------------------------------------

 -------------------------------
 CID_131626235_JID_4014_neutraal
 -------------------------------
 Symbolic Z-matrix:
 Charge =  0 Multiplicity = 1

 SCF Done:  E(RB3LYP) =  -631.002363059     A.U. after   15 cycles
 SCF Done:  E(RB3LYP) =  -631.005948021     A.U. after   14 cycles
 SCF Done:  E(RB3LYP) =  -631.003923954     A.U. after   14 cycles
 SCF Done:  E(RB3LYP) =  -631.008294167     A.U. after   14 cycles
 SCF Done:  E(RB3LYP) =  -631.009182240     A.U. after   14 cycles
 SCF Done:  E(RB3LYP) =  -631.009419781     A.U. after   14 cycles
 SCF Done:  E(RB3LYP) =  -631.009442116     A.U. after   13 cycles
 SCF Done:  E(RB3LYP) =  -631.009445003     A.U. after   11 cycles
 SCF Done:  E(RB3LYP) =  -631.009445747     A.U. after    9 cycles
 SCF Done:  E(RB3LYP) =  -631.009445912     A.U. after    8 cycles
 Optimization completed.
    -- Stationary point found.
 Normal termination of Gaussian 16 at Thu Dec 10 09:13:44 2020.

 --------------------------------------------------------------------
 #N Geom=AllCheck Guess=TCheck SCRF=Check GenChk RB3LYP/6-31G(d) Freq
 --------------------------------------------------------------------

 Structure from the checkpoint file:  "JID_4014.chk"
 -------------------------------
 CID_131626235_JID_4014_neutraal
 -------------------------------
 Charge =  0 Multiplicity = 1

 SCF Done:  E(RB3LYP) =  -631.009445912     A.U. after    1 cycles

  Exact polarizability: 173.544   6.861 146.143  -4.855   2.671  63.517
 Approx polarizability: 265.592  11.117 252.469 -13.734   7.363  94.850

                      1                      2                      3
                      A                      A                      A
 Frequencies --     54.9995                69.2038                79.6742
 Red. masses --      5.2975                 3.3858                 3.0477
 Frc consts  --      0.0094                 0.0096                 0.0114
 IR Inten    --      0.9264                 0.3504                 0.4045

                      4                      5                      6
                      A                      A                      A
 Frequencies --    108.8380               128.6833               151.8157
 Red. masses --      4.2277                 3.4161                 8.2747
 Frc consts  --      0.0295                 0.0333                 0.1124
 IR Inten    --      0.4273                14.4985                 3.3543

                      7                      8                      9
                      A                      A                      A
 Frequencies --    184.5031               205.2150               210.4776
 Red. masses --      2.8420                 5.6233                 1.2948
 Frc consts  --      0.0570                 0.1395                 0.0338
 IR Inten    --      1.3460                 4.1990                 0.2354

                     10                     11                     12
                      A                      A                      A
 Frequencies --    252.7022               268.5718               279.1656
 Red. masses --      1.6831                 2.1528                 1.8622
 Frc consts  --      0.0633                 0.0915                 0.0855
 IR Inten    --      0.0102                 1.7719                 0.2389

                     13                     14                     15
                      A                      A                      A
 Frequencies --    361.3319               383.8770               393.0239
 Red. masses --      2.9699                 8.2617                 5.0982
 Frc consts  --      0.2285                 0.7173                 0.4640
 IR Inten    --      3.3883                 0.0509                 1.1343

                     16                     17                     18
                      A                      A                      A
 Frequencies --    423.7945               449.8639               469.5803
 Red. masses --      6.1532                 5.2893                 4.9552
 Frc consts  --      0.6511                 0.6307                 0.6438
 IR Inten    --      2.8763                 0.1816                 0.6519

                     19                     20                     21
                      A                      A                      A
 Frequencies --    541.0379               571.2800               619.2992
 Red. masses --      5.3561                 4.5643                 4.9712
 Frc consts  --      0.9237                 0.8777                 1.1233
 IR Inten    --     12.7141                 7.8059                 9.7955

                     22                     23                     24
                      A                      A                      A
 Frequencies --    658.7104               725.3390               763.6070
 Red. masses --      4.0442                 5.4104                 5.2986
 Frc consts  --      1.0339                 1.6771                 1.8203
 IR Inten    --      0.0532                 6.5795                 5.9857

                     25                     26                     27
                      A                      A                      A
 Frequencies --    779.3437               809.0805               843.0091
 Red. masses --      3.8659                 1.2965                 1.5302
 Frc consts  --      1.3834                 0.5000                 0.6407
 IR Inten    --     20.2857                10.3029                27.9433

                     28                     29                     30
                      A                      A                      A
 Frequencies --    882.6943               961.9338               968.1749
 Red. masses --      4.6694                 1.3309                 3.2737
 Frc consts  --      2.1436                 0.7256                 1.8080
 IR Inten    --      2.2511                 0.1112                13.3311

                     31                     32                     33
                      A                      A                      A
 Frequencies --   1017.4221              1023.8205              1095.8711
 Red. masses --      3.2523                 1.8219                 1.8022
 Frc consts  --      1.9836                 1.1252                 1.2752
 IR Inten    --     22.7272                 0.2084                15.3181

                     34                     35                     36
                      A                      A                      A
 Frequencies --   1104.2196              1131.0162              1183.4205
 Red. masses --      2.1563                 3.0990                 1.2700
 Frc consts  --      1.5491                 2.3357                 1.0480
 IR Inten    --     19.2199                60.9708                 0.8163

                     37                     38                     39
                      A                      A                      A
 Frequencies --   1206.1303              1228.7976              1235.6698
 Red. masses --      1.4597                 1.4068                 3.4321
 Frc consts  --      1.2511                 1.2515                 3.0876
 IR Inten    --      0.2341                37.5291                43.7954

                     40                     41                     42
                      A                      A                      A
 Frequencies --   1273.2552              1302.7749              1339.4988
 Red. masses --      1.9090                 1.6108                 4.2536
 Frc consts  --      1.8234                 1.6108                 4.4967
 IR Inten    --      8.8392                 1.4809               276.7203

                     43                     44                     45
                      A                      A                      A
 Frequencies --   1367.3790              1375.8363              1438.4691
 Red. masses --      4.0322                 1.5382                 1.2609
 Frc consts  --      4.4419                 1.7155                 1.5372
 IR Inten    --     14.6830                 0.7757                 2.4170

                     46                     47                     48
                      A                      A                      A
 Frequencies --   1440.3466              1475.9515              1494.6136
 Red. masses --      2.3232                 1.6184                 1.3196
 Frc consts  --      2.8397                 2.0772                 1.7368
 IR Inten    --     15.0935                36.0661                20.3266

                     49                     50                     51
                      A                      A                      A
 Frequencies --   1519.4663              1524.9254              1525.9235
 Red. masses --      1.0635                 1.0484                 1.4925
 Frc consts  --      1.4467                 1.4364                 2.0475
 IR Inten    --      1.6967                 7.5556                75.1122

                     52                     53                     54
                      A                      A                      A
 Frequencies --   1528.7246              1533.9881              1539.4233
 Red. masses --      1.0483                 1.2587                 1.1832
 Frc consts  --      1.4434                 1.7451                 1.6521
 IR Inten    --      5.6935                 6.4367                10.8108

                     55                     56                     57
                      A                      A                      A
 Frequencies --   1618.6635              1647.7930              1802.1130
 Red. masses --      5.8257                 6.2245                 9.8317
 Frc consts  --      8.9932                 9.9577                18.8124
 IR Inten    --     91.9587                41.8843               251.5505

                     58                     59                     60
                      A                      A                      A
 Frequencies --   2340.5314              2953.8336              3034.2342
 Red. masses --     12.6861                 1.0836                 1.0348
 Frc consts  --     40.9457                 5.5707                 5.6133
 IR Inten    --     19.6640                66.8141                51.1393

                     61                     62                     63
                      A                      A                      A
 Frequencies --   3056.2030              3060.4642              3097.9143
 Red. masses --      1.0365                 1.0595                 1.1031
 Frc consts  --      5.7038                 5.8469                 6.2372
 IR Inten    --     26.3478                24.3258                 4.1710

                     64                     65                     66
                      A                      A                      A
 Frequencies --   3097.9978              3126.7283              3137.1930
 Red. masses --      1.1072                 1.1031                 1.1032
 Frc consts  --      6.2608                 6.3541                 6.3970
 IR Inten    --     35.9493                33.6596                24.8266

                     67                     68                     69
                      A                      A                      A
 Frequencies --   3175.8160              3192.4957              3239.7181
 Red. masses --      1.1000                 1.0898                 1.0912
 Frc consts  --      6.5365                 6.5443                 6.7477
 IR Inten    --     15.6989                 9.5636                 6.9919

 - Thermochemistry -
 -------------------
 Temperature   298.150 Kelvin.  Pressure   1.00000 Atm.
 Atom     1 has atomic number  6 and mass  12.00000

 Molecular mass:   189.07898 amu.
 Principal axes and moments of inertia in atomic units:
                           1         2         3
     Eigenvalues --  1676.766023434.034774916.08152
           X            0.99998   0.00123   0.00638
           Y           -0.00122   1.00000  -0.00208
           Z           -0.00638   0.00207   0.99998
 This molecule is an asymmetric top.
 Rotational symmetry number  1.
 Warning -- assumption of classical behavior for rotation
           may cause significant error
 Rotational temperatures (Kelvin)      0.05166     0.02522     0.01762
 Rotational constants (GHZ):           1.07632     0.52555     0.36711
 Zero-point vibrational energy     520898.8 (Joules/Mol)
                                  124.49779 (Kcal/Mol)
 Warning -- explicit consideration of  21 degrees of freedom as
           vibrations may cause significant error
 Vibrational temperatures:     79.13    99.57   114.63   156.59   185.15
          (Kelvin)            218.43   265.46   295.26   302.83   363.58
                              386.41   401.66   519.88   552.31   565.47
                              609.75   647.25   675.62   778.43   821.94
                              891.03   947.74  1043.60  1098.66  1121.30
                             1164.09  1212.90  1270.00  1384.01  1392.99
                             1463.84  1473.05  1576.71  1588.73  1627.28
                             1702.68  1735.35  1767.97  1777.85  1831.93
                             1874.40  1927.24  1967.35  1979.52  2069.64
                             2072.34  2123.56  2150.42  2186.17  2194.03
                             2195.46  2199.49  2207.07  2214.89  2328.90
                             2370.81  2592.84  3367.50  4249.91  4365.59
                             4397.19  4403.33  4457.21  4457.33  4498.66
                             4513.72  4569.29  4593.29  4661.23

 Zero-point correction=                           0.198400 (Hartree/Particle)
 Thermal correction to Energy=                    0.212051
 Thermal correction to Enthalpy=                  0.212995
 Thermal correction to Gibbs Free Energy=         0.157959
 Sum of electronic and zero-point Energies=           -630.811046
 Sum of electronic and thermal Energies=              -630.797395
 Sum of electronic and thermal Enthalpies=            -630.796451
 Sum of electronic and thermal Free Energies=         -630.851487

                     E (Thermal)             CV                S
                      KCal/Mol        Cal/Mol-Kelvin    Cal/Mol-Kelvin
 Total                  133.064             49.760            115.834
 Electronic               0.000              0.000              0.000
 Translational            0.889              2.981             41.617
 Rotational               0.889              2.981             31.715
 Vibrational            131.287             43.798             42.502
 Vibration     1          0.596              1.976              4.629
 Vibration     2          0.598              1.969              4.176
 Vibration     3          0.600              1.963              3.899
 Vibration     4          0.606              1.942              3.290
 Vibration     5          0.611              1.925              2.966
 Vibration     6          0.619              1.901              2.649
 Vibration     7          0.631              1.861              2.282
 Vibration     8          0.640              1.832              2.086
 Vibration     9          0.643              1.825              2.040
 Vibration    10          0.664              1.758              1.712
 Vibration    11          0.673              1.731              1.605
 Vibration    12          0.679              1.712              1.539
 Vibration    13          0.736              1.552              1.116
 Vibration    14          0.753              1.505              1.024
 Vibration    15          0.760              1.485              0.989
 Vibration    16          0.786              1.418              0.879
 Vibration    17          0.809              1.361              0.796
 Vibration    18          0.827              1.318              0.739
 Vibration    19          0.896              1.159              0.563
 Vibration    20          0.927              1.093              0.502
 Vibration    21          0.979              0.991              0.418

                           ! Non-Optimized Parameters !
 Normal termination of Gaussian 16 at Thu Dec 10 09:20:12 2020.

 ----------------------------------------------------------------------
 # B3LYP/6-311++G(d,p) empiricaldispersion=gd3bj scf=xqc pop=npa geom=c
 heck
 ----------------------------------------------------------------------

 ---------------------------------------
 CID_131626235_JID_4014_Energie_neutraal
 ---------------------------------------
 Structure from the checkpoint file:  "JID_4014.chk"
 Charge =  0 Multiplicity = 1

 SCF Done:  E(RB3LYP) =  -631.180525474     A.U. after   16 cycles
 Normal termination of Gaussian 16 at Thu Dec 10 09:22:36 2020.

 ----------------------------------------------------------------------
 # B3LYP/6-311++G(d,p) empiricaldispersion=gd3bj scf=xqc pop=npa geom=c
 heck
 ----------------------------------------------------------------------

 -------------------------------------
 CID_131626235_JID_4014_Energie_kation
 -------------------------------------
 Structure from the checkpoint file:  "JID_4014.chk"
 Charge =  1 Multiplicity = 2

 SCF Done:  E(UB3LYP) =  -630.862272214     A.U. after   30 cycles
 Normal termination of Gaussian 16 at Thu Dec 10 09:28:40 2020.
 Gaussian 16:  ES64L-G16RevA.03 25-Dec-2016

 ----------------------------------------------------------------------
 # B3LYP/6-311++G(d,p) empiricaldispersion=gd3bj scf=xqc pop=npa geom=c
 heck
 ----------------------------------------------------------------------

 ------------------------------------
 CID_131626235_JID_4014_Energie_anion
 ------------------------------------
 Structure from the checkpoint file:  "JID_4014.chk"
 Charge = -1 Multiplicity = 2

                         Standard orientation:
 ---------------------------------------------------------------------
 Center     Atomic      Atomic             Coordinates (Angstroms)
 Number     Number       Type             X           Y           Z
 ---------------------------------------------------------------------
      1          6           0        3.557107   -0.988428    0.944839
      2          6           0        2.855354   -1.025165   -0.423538
      3          6           0        1.363095   -0.819615   -0.312772
      4          6           0        0.791288    0.460298   -0.184183
      5          6           0       -0.602256    0.663557   -0.041448
      6          6           0       -1.448906   -0.470789   -0.024175
      7          6           0       -0.887763   -1.749832   -0.150194
      8          6           0        0.486711   -1.906471   -0.290601
      9          8           0       -2.770689   -0.251976    0.112901
     10          6           0       -3.652582   -1.366329    0.131136
     11          6           0       -1.112195    2.052884    0.081418
     12          8           0       -2.274034    2.382257    0.207614
     13          6           0        1.683617    1.586452   -0.202729
     14          7           0        2.463241    2.449945   -0.222045
     15          1           0        3.423401   -0.014432    1.425505
     16          1           0        4.631892   -1.163713    0.830069
     17          1           0        3.152609   -1.756904    1.612639
     18          1           0        3.291449   -0.257466   -1.071987
     19          1           0        3.042121   -1.991421   -0.905845
     20          1           0       -1.520615   -2.628259   -0.142251
     21          1           0        0.894201   -2.909216   -0.388244
     22          1           0       -3.601965   -1.932262   -0.807381
     23          1           0       -3.436318   -2.034264    0.974226
     24          1           0       -4.650440   -0.943277    0.248142
     25          1           0       -0.312060    2.819988    0.048812
 ---------------------------------------------------------------------

 SCF Done:  E(UB3LYP) =  -631.213187560     A.U. after   25 cycles

 The electronic state is 2-A.
 Alpha  occ. eigenvalues --  -19.02888 -18.92859 -14.15870 -10.11775 -10.10225
 Alpha  occ. eigenvalues --  -10.07133 -10.06107 -10.05762 -10.05241 -10.04974
 Alpha  occ. eigenvalues --  -10.04924 -10.03317 -10.03143 -10.02631  -0.94982
 Alpha  occ. eigenvalues --   -0.86664  -0.76379  -0.72629  -0.66838  -0.63320
 Alpha  occ. eigenvalues --   -0.62503  -0.57918  -0.51820  -0.50944  -0.47966
 Alpha  occ. eigenvalues --   -0.42820  -0.40914  -0.37165  -0.35946  -0.35181
 Alpha  occ. eigenvalues --   -0.34581  -0.32474  -0.30931  -0.29908  -0.29031
 Alpha  occ. eigenvalues --   -0.27618  -0.26319  -0.25881  -0.25432  -0.23341
 Alpha  occ. eigenvalues --   -0.22836  -0.22377  -0.22025  -0.21929  -0.20650
 Alpha  occ. eigenvalues --   -0.19076  -0.18578  -0.12444  -0.09567  -0.08145
 Alpha  occ. eigenvalues --    0.02921
 Alpha virt. eigenvalues --    0.07550   0.08209   0.09838   0.10446   0.10962
 Alpha virt. eigenvalues --    0.11480   0.11691   0.12453   0.13447   0.13812
 Alpha virt. eigenvalues --    0.14130   0.14607   0.15526   0.16647   0.16855

  Beta  occ. eigenvalues --  -19.02895 -18.92339 -14.15653 -10.11771 -10.10241
  Beta  occ. eigenvalues --  -10.06977 -10.06127 -10.05756 -10.05245 -10.05062
  Beta  occ. eigenvalues --  -10.04611 -10.03173 -10.02873 -10.02397  -0.94979
  Beta  occ. eigenvalues --   -0.85751  -0.76033  -0.72282  -0.66744  -0.62663
  Beta  occ. eigenvalues --   -0.62360  -0.57736  -0.51358  -0.50442  -0.47696
  Beta  occ. eigenvalues --   -0.42710  -0.40566  -0.37001  -0.35897  -0.35023
  Beta  occ. eigenvalues --   -0.34442  -0.32391  -0.30735  -0.29779  -0.28797
  Beta  occ. eigenvalues --   -0.27184  -0.25969  -0.25464  -0.25139  -0.23036
  Beta  occ. eigenvalues --   -0.22614  -0.21865  -0.21690  -0.20511  -0.19902
  Beta  occ. eigenvalues --   -0.18933  -0.17795  -0.10356  -0.08590  -0.07665
  Beta virt. eigenvalues --    0.07531   0.08200   0.09148   0.09853   0.10522
  Beta virt. eigenvalues --    0.11332   0.11607   0.11788   0.12451   0.13423
  Beta virt. eigenvalues --    0.13808   0.14125   0.14667   0.15530   0.16877

 Mulliken charges and spin densities:
               1          2
     1  C   -0.641991  -0.016460
     2  C   -0.283205   0.025887
     3  C    0.808531  -0.085866
     4  C    1.873560   0.231638
     5  C    0.030915   0.220952
     6  C   -0.379628  -0.027322
     7  C    0.184685   0.104063
     8  C   -0.914664   0.235607
     9  O   -0.090954   0.002287
    10  C   -0.288809  -0.004006
    11  C   -0.114478   0.100862
    12  O   -0.374737   0.177611
    13  C   -2.016857  -0.057110
    14  N   -0.238133   0.115620
    15  H    0.170966  -0.001433
    16  H    0.084647  -0.001292
    17  H    0.118744   0.009467
    18  H    0.169941   0.001468
    19  H    0.130800  -0.000217
    20  H    0.131368  -0.008851
    21  H    0.103629  -0.018693
    22  H    0.123526   0.004094
    23  H    0.124921   0.003931
    24  H    0.170943  -0.000484
    25  H    0.116281  -0.011753
 Sum of Mulliken charges =  -1.00000   1.00000

 Dipole moment (field-independent basis, Debye):
    X=             -0.4637    Y=             -8.0316    Z=              0.0703  Tot=              8.0453
 Quadrupole moment (field-independent basis, Debye-Ang):
   XX=           -111.9270   YY=           -112.8945   ZZ=            -90.1318
   XY=              3.5472   XZ=              1.1950   YZ=             -0.2155

 Summary of Natural Population Analysis:

                                       Natural Population
                Natural  -----------------------------------------------
    Atom  No    Charge         Core      Valence    Rydberg      Total
 -----------------------------------------------------------------------
      C    1   -0.28169      0.99967     2.27808    0.00394     3.28169
      C    2   -0.19465      0.99961     2.18792    0.00711     3.19465
      C    3   -0.05301      0.99954     2.03732    0.01615     3.05301
      C    4    0.03348      0.99935     1.95547    0.01170     2.96652
      C    5   -0.04730      0.99950     2.03197    0.01583     3.04730
      C    6    0.17679      0.99937     1.81210    0.01175     2.82321
      C    7   -0.12350      0.99954     2.11564    0.00832     3.12350
      C    8   -0.04426      0.99953     2.03620    0.00853     3.04426
      O    9   -0.25810      0.99985     3.24875    0.00950     4.25810
      C   10   -0.10017      0.99961     2.09256    0.00800     3.10017
      C   11    0.21276      0.99969     1.76702    0.02053     2.78724
      O   12   -0.23050      0.99988     3.22304    0.00758     4.23050
      C   13    0.13303      0.99971     1.84532    0.02194     2.86697
      N   14   -0.17457      0.99978     2.66382    0.01097     3.67457
      H   15    0.10471      0.00000     0.39445    0.00083     0.39529
      H   16    0.08877      0.00000     0.41022    0.00101     0.41123
      H   17    0.09344      0.00000     0.40543    0.00113     0.40656
      H   18    0.10227      0.00000     0.39610    0.00164     0.39773
      H   19    0.09235      0.00000     0.40647    0.00118     0.40765
      H   20    0.09217      0.00000     0.40636    0.00147     0.40783
      H   21    0.08627      0.00000     0.41238    0.00135     0.41373
      H   22    0.07943      0.00000     0.41898    0.00160     0.42057
      H   23    0.07937      0.00000     0.41901    0.00162     0.42063
      H   24    0.08923      0.00000     0.40996    0.00081     0.41077
      H   25    0.04587      0.00000     0.45199    0.00214     0.45413
 =======================================================================
   * Total *    0.00217     13.99462    35.82656    0.17664    49.99783

 Normal termination of Gaussian 16 at Thu Dec 10 09:33:50 2020.
