 Gaussian 16, Revision A.03,

 -----------------------------------------------------------
 # opt freq B3LYP/6-31G(d) empiricaldispersion=gd3bj scf=xqc
 -----------------------------------------------------------

 ------------------------------
 CID_21997662_JID_5298_neutraal
 ------------------------------
 Symbolic Z-matrix:
 Charge =  0 Multiplicity = 1

 SCF Done:  E(RB3LYP) =  -1120.41850103     A.U. after   33 cycles
 SCF Done:  E(RB3LYP) =  -1120.41850178     a.u. after    2 cycles
 SCF Done:  E(RB3LYP) =  -1120.42762461     A.U. after   25 cycles
 SCF Done:  E(RB3LYP) =  -1120.43011048     A.U. after   28 cycles
 SCF Done:  E(RB3LYP) =  -1120.43173918     A.U. after   26 cycles
 SCF Done:  E(RB3LYP) =  -1120.43343016     A.U. after   31 cycles
 SCF Done:  E(RB3LYP) =  -1120.43441256     A.U. after   22 cycles
 SCF Done:  E(RB3LYP) =  -1120.41143286     A.U. after   33 cycles
 SCF Done:  E(RB3LYP) =  -1120.43678063     a.u. after    4 cycles
 SCF Done:  E(RB3LYP) =  -1120.43841992     A.U. after   30 cycles
 SCF Done:  E(RB3LYP) =  -1120.58663545     A.U. after    8 cycles
 SCF Done:  E(RB3LYP) =  -1120.58663552     A.U. after    7 cycles
 SCF Done:  E(RB3LYP) =  -1120.58663564     A.U. after    7 cycles
 SCF Done:  E(RB3LYP) =  -1120.58663577     A.U. after    7 cycles
 SCF Done:  E(RB3LYP) =  -1120.58663580     A.U. after    7 cycles
 Optimization completed.
    -- Stationary point found.
 Normal termination of Gaussian 16 at Thu Dec 10 17:14:42 2020.

 --------------------------------------------------------------------
 #N Geom=AllCheck Guess=TCheck SCRF=Check GenChk RB3LYP/6-31G(d) Freq
 --------------------------------------------------------------------

 Structure from the checkpoint file:  "JID_5298.chk"
 ------------------------------
 CID_21997662_JID_5298_neutraal
 ------------------------------
 Charge =  0 Multiplicity = 1

 SCF Done:  E(RB3LYP) =  -1120.58663580     A.U. after    1 cycles

  Exact polarizability: 151.724  -4.103 126.490 -18.930  -4.821  92.801
 Approx polarizability: 203.246 -12.766 210.763 -38.595 -10.536 147.851

                      1                      2                      3
                      A                      A                      A
 Frequencies --     18.8227                27.6483                59.1047
 Red. masses --      6.0144                 7.0079                 5.9727
 Frc consts  --      0.0013                 0.0032                 0.0123
 IR Inten    --      0.0379                 1.3769                 2.1229

                      4                      5                      6
                      A                      A                      A
 Frequencies --     63.7767                94.7541               102.5059
 Red. masses --      4.5181                 6.0807                 1.9718
 Frc consts  --      0.0108                 0.0322                 0.0122
 IR Inten    --      0.3345                 1.4219                 7.1084

                      7                      8                      9
                      A                      A                      A
 Frequencies --    159.0400               165.3618               201.7234
 Red. masses --      1.4367                 2.3153                 1.5244
 Frc consts  --      0.0214                 0.0373                 0.0365
 IR Inten    --     35.7637                12.5778                94.3958

                     10                     11                     12
                      A                      A                      A
 Frequencies --    217.5383               248.6987               265.0292
 Red. masses --      4.3655                 5.4665                 3.5721
 Frc consts  --      0.1217                 0.1992                 0.1478
 IR Inten    --      6.5531                 3.5430                 3.7650

                     13                     14                     15
                      A                      A                      A
 Frequencies --    311.6441               324.2855               361.2851
 Red. masses --      3.5910                 4.5840                 2.9755
 Frc consts  --      0.2055                 0.2840                 0.2288
 IR Inten    --     16.5221                 3.0070                 1.4516

                     16                     17                     18
                      A                      A                      A
 Frequencies --    424.8222               445.6687               454.8954
 Red. masses --      5.5065                 4.0649                 4.2446
 Frc consts  --      0.5855                 0.4757                 0.5175
 IR Inten    --     21.3465                 1.5737                 0.9487

                     19                     20                     21
                      A                      A                      A
 Frequencies --    489.8582               515.0792               518.2707
 Red. masses --      4.4106                 6.3460                 7.8524
 Frc consts  --      0.6236                 0.9920                 1.2427
 IR Inten    --     10.8791                18.0851                26.3787

                     22                     23                     24
                      A                      A                      A
 Frequencies --    552.3058               587.5739               665.8762
 Red. masses --      7.1416                 5.2306                 5.1137
 Frc consts  --      1.2835                 1.0640                 1.3359
 IR Inten    --     57.4660                 4.6222                13.5465

                     25                     26                     27
                      A                      A                      A
 Frequencies --    710.4061               727.2647               774.2717
 Red. masses --      2.1509                 6.3756                 6.2595
 Frc consts  --      0.6396                 1.9868                 2.2110
 IR Inten    --      7.9103                52.0533                81.1348

                     28                     29                     30
                      A                      A                      A
 Frequencies --    804.7154               819.1623               838.6716
 Red. masses --      2.8703                 2.6339                 2.1714
 Frc consts  --      1.0951                 1.0413                 0.8998
 IR Inten    --     80.3033               237.4279                11.9709

                     31                     32                     33
                      A                      A                      A
 Frequencies --    886.6502               914.3691               923.0872
 Red. masses --      1.4648                 2.0106                 1.4007
 Frc consts  --      0.6785                 0.9904                 0.7032
 IR Inten    --     18.1813                50.2877                13.5035

                     34                     35                     36
                      A                      A                      A
 Frequencies --    960.1330               982.5578               992.5622
 Red. masses --      2.1098                 1.3040                 3.4275
 Frc consts  --      1.1459                 0.7418                 1.9895
 IR Inten    --     93.1062                 0.2947                30.3893

                     37                     38                     39
                      A                      A                      A
 Frequencies --   1024.9563              1043.7302              1057.0567
 Red. masses --      6.1828                 1.8760                 1.8791
 Frc consts  --      3.8269                 1.2041                 1.2371
 IR Inten    --      1.4571                 6.7930                30.9935

                     40                     41                     42
                      A                      A                      A
 Frequencies --   1108.0528              1123.2485              1158.2584
 Red. masses --      1.8936                 1.5952                 2.6808
 Frc consts  --      1.3698                 1.1858                 2.1190
 IR Inten    --     14.3469                15.9733               168.9539

                     43                     44                     45
                      A                      A                      A
 Frequencies --   1168.5498              1185.2820              1188.8917
 Red. masses --      1.7440                 1.3033                 1.7859
 Frc consts  --      1.4031                 1.0788                 1.4873
 IR Inten    --     25.2432                80.7831               144.5732

                     46                     47                     48
                      A                      A                      A
 Frequencies --   1200.4139              1233.8043              1256.2636
 Red. masses --      1.1530                 1.2263                 1.5300
 Frc consts  --      0.9789                 1.0998                 1.4227
 IR Inten    --      1.3746                 1.3385                 8.0228

                     49                     50                     51
                      A                      A                      A
 Frequencies --   1265.2230              1334.2535              1362.9303
 Red. masses --      2.7735                 1.3857                 2.5987
 Frc consts  --      2.6158                 1.4535                 2.8442
 IR Inten    --     28.4697                 1.2508                 1.8523

                     52                     53                     54
                      A                      A                      A
 Frequencies --   1373.1248              1380.6266              1421.3433
 Red. masses --      1.6414                 1.4920                 1.4161
 Frc consts  --      1.8234                 1.6756                 1.6855
 IR Inten    --      3.2002                 0.8885                19.3349

                     55                     56                     57
                      A                      A                      A
 Frequencies --   1423.8066              1489.1593              1512.3562
 Red. masses --      7.0458                 2.7448                 1.1295
 Frc consts  --      8.4155                 3.5862                 1.5221
 IR Inten    --    239.0262                18.5493                 6.8513

                     58                     59                     60
                      A                      A                      A
 Frequencies --   1535.2560              1542.0506              1547.3412
 Red. masses --      2.2227                 1.1662                 1.1300
 Frc consts  --      3.0868                 1.6339                 1.5941
 IR Inten    --     32.6291                 5.6125                25.7704

                     61                     62                     63
                      A                      A                      A
 Frequencies --   1642.4004              1667.2837              1701.2156
 Red. masses --      5.8575                 6.3030                 1.0598
 Frc consts  --      9.3094                10.3233                 1.8072
 IR Inten    --     25.7143                21.2855                23.6855

                     64                     65                     66
                      A                      A                      A
 Frequencies --   2989.2626              3052.5079              3065.8203
 Red. masses --      1.0678                 1.0842                 1.0700
 Frc consts  --      5.6215                 5.9519                 5.9253
 IR Inten    --     45.1328                22.4194                57.0605

                     67                     68                     69
                      A                      A                      A
 Frequencies --   3108.0232              3188.6174              3209.6661
 Red. masses --      1.1043                 1.0881                 1.0928
 Frc consts  --      6.2848                 6.5184                 6.6332
 IR Inten    --     18.3706                 6.8293                15.3532

                     70                     71                     72
                      A                      A                      A
 Frequencies --   3220.5532              3240.7449              3399.4875
 Red. masses --      1.0917                 1.0942                 1.0516
 Frc consts  --      6.6712                 6.7707                 7.1601
 IR Inten    --      0.0735                 0.7321                 4.3774

                     73                     74                     75
                      A                      A                      A
 Frequencies --   3450.9953              3491.2852              3702.4068
 Red. masses --      1.0747                 1.0900                 1.0659
 Frc consts  --      7.5406                 7.8281                 8.6085
 IR Inten    --      0.1439                 1.3807                80.5380

 - Thermochemistry -
 -------------------
 Temperature   298.150 Kelvin.  Pressure   1.00000 Atm.
 Atom     1 has atomic number  6 and mass  12.00000

 Molecular mass:   232.05178 amu.
 Principal axes and moments of inertia in atomic units:
                           1         2         3
     Eigenvalues --  1821.798436705.521277477.29107
           X            0.99993   0.01179  -0.00203
           Y           -0.01179   0.99993  -0.00082
           Z            0.00202   0.00084   1.00000
 This molecule is an asymmetric top.
 Rotational symmetry number  1.
 Warning -- assumption of classical behavior for rotation
           may cause significant error
 Rotational temperatures (Kelvin)      0.04754     0.01292     0.01158
 Rotational constants (GHZ):           0.99064     0.26914     0.24136
 Zero-point vibrational energy     554323.6 (Joules/Mol)
                                  132.48652 (Kcal/Mol)
 Warning -- explicit consideration of  23 degrees of freedom as
           vibrations may cause significant error
 Vibrational temperatures:     27.08    39.78    85.04    91.76   136.33
          (Kelvin)            147.48   228.82   237.92   290.23   312.99
                              357.82   381.32   448.39   466.57   519.81
                              611.22   641.22   654.49   704.80   741.08
                              745.68   794.64   845.39   958.05  1022.12
                             1046.37  1114.00  1157.81  1178.59  1206.66
                             1275.69  1315.57  1328.12  1381.42  1413.68
                             1428.08  1474.68  1501.70  1520.87  1594.24
                             1616.10  1666.48  1681.28  1705.36  1710.55
                             1727.13  1775.17  1807.48  1820.37  1919.69
                             1960.95  1975.62  1986.41  2045.00  2048.54
                             2142.57  2175.94  2208.89  2218.67  2226.28
                             2363.05  2398.85  2447.67  4300.88  4391.88
                             4411.03  4471.75  4587.71  4617.99  4633.66
                             4662.71  4891.10  4965.21  5023.18  5326.94

 Zero-point correction=                           0.211131 (Hartree/Particle)
 Thermal correction to Energy=                    0.226375
 Thermal correction to Enthalpy=                  0.227319
 Thermal correction to Gibbs Free Energy=         0.166212
 Sum of electronic and zero-point Energies=          -1120.375505
 Sum of electronic and thermal Energies=             -1120.360261
 Sum of electronic and thermal Enthalpies=           -1120.359317
 Sum of electronic and thermal Free Energies=        -1120.420424

                     E (Thermal)             CV                S
                      KCal/Mol        Cal/Mol-Kelvin    Cal/Mol-Kelvin
 Total                  142.052             55.562            128.611
 Electronic               0.000              0.000              0.000
 Translational            0.889              2.981             42.227
 Rotational               0.889              2.981             32.879
 Vibrational            140.275             49.600             53.505
 Vibration     1          0.593              1.986              6.755
 Vibration     2          0.593              1.984              5.991
 Vibration     3          0.596              1.974              4.487
 Vibration     4          0.597              1.972              4.337
 Vibration     5          0.603              1.953              3.559
 Vibration     6          0.605              1.947              3.406
 Vibration     7          0.621              1.892              2.561
 Vibration     8          0.624              1.885              2.488
 Vibration     9          0.639              1.837              2.117
 Vibration    10          0.646              1.814              1.979
 Vibration    11          0.662              1.765              1.740
 Vibration    12          0.671              1.737              1.628
 Vibration    13          0.700              1.651              1.354
 Vibration    14          0.709              1.627              1.288
 Vibration    15          0.735              1.552              1.117
 Vibration    16          0.787              1.416              0.876
 Vibration    17          0.805              1.370              0.809
 Vibration    18          0.813              1.350              0.781
 Vibration    19          0.846              1.273              0.684
 Vibration    20          0.870              1.217              0.621
 Vibration    21          0.873              1.210              0.614
 Vibration    22          0.908              1.135              0.539
 Vibration    23          0.945              1.058              0.472

 Optimization completed.
    -- Stationary point found.
 Normal termination of Gaussian 16 at Thu Dec 10 17:22:41 2020.

 ----------------------------------------------------------------------
 # B3LYP/6-311++G(d,p) empiricaldispersion=gd3bj scf=xqc pop=npa geom=c
 heck
 ----------------------------------------------------------------------

 --------------------------------------
 CID_21997662_JID_5298_Energie_neutraal
 --------------------------------------
 Structure from the checkpoint file:  "JID_5298.chk"
 Charge =  0 Multiplicity = 1

 SCF Done:  E(RB3LYP) =  -1120.83341854     A.U. after   15 cycles
 Normal termination of Gaussian 16 at Thu Dec 10 17:27:49 2020.

 ----------------------------------------------------------------------
 # B3LYP/6-311++G(d,p) empiricaldispersion=gd3bj scf=xqc pop=npa geom=c
 heck
 ----------------------------------------------------------------------

 ------------------------------------
 CID_21997662_JID_5298_Energie_kation
 ------------------------------------
 Structure from the checkpoint file:  "JID_5298.chk"
 Charge =  1 Multiplicity = 2

 SCF Done:  E(UB3LYP) =  -1120.52826964     A.U. after   29 cycles
 Normal termination of Gaussian 16 at Thu Dec 10 17:39:36 2020.
 Gaussian 16:  ES64L-G16RevA.03 25-Dec-2016

 ----------------------------------------------------------------------
 # B3LYP/6-311++G(d,p) empiricaldispersion=gd3bj scf=xqc pop=npa geom=c
 heck
 ----------------------------------------------------------------------

 -----------------------------------
 CID_21997662_JID_5298_Energie_anion
 -----------------------------------
 Structure from the checkpoint file:  "JID_5298.chk"
 Charge = -1 Multiplicity = 2

                         Standard orientation:
 ---------------------------------------------------------------------
 Center     Atomic      Atomic             Coordinates (Angstroms)
 Number     Number       Type             X           Y           Z
 ---------------------------------------------------------------------
      1          6           0        0.640882    1.681718   -0.998659
      2          6           0        0.580842    0.380723   -0.513156
      3          6           0       -0.466662   -0.069892    0.283555
      4          6           0       -1.510721    0.804789    0.609923
      5          6           0       -1.461192    2.117487    0.121456
      6          6           0       -0.399086    2.552110   -0.671464
      7          6           0       -2.690173    0.322684    1.423000
      8          6           0       -3.851036   -0.165685    0.542474
      9          7           0       -3.435000   -1.329222   -0.240922
     10          7           0       -4.547926   -1.675266   -1.150677
     11          8           0        2.393127   -0.990751    1.479890
     12         16           0        2.958229   -0.531419    0.020406
     13          8           0        3.447991    0.831023    0.152039
     14          8           0        3.744413   -1.618806   -0.501949
     15          8           0        1.585303   -0.540957   -0.870229
     16          1           0        1.483644    1.993588   -1.603955
     17          1           0        2.263164   -0.180978    2.008641
     18          1           0       -0.468312   -1.096777    0.633851
     19          1           0       -2.265575    2.805542    0.368006
     20          1           0       -0.377096    3.574626   -1.035896
     21          1           0       -2.381759   -0.498328    2.078872
     22          1           0       -3.058067    1.135126    2.060126
     23          1           0       -4.679060   -0.476073    1.193648
     24          1           0       -4.226031    0.654418   -0.092530
     25          1           0       -2.711016   -0.993098   -0.878894
     26          1           0       -4.201414   -2.496780   -1.652933
     27          1           0       -5.253460   -2.074820   -0.525031
 ---------------------------------------------------------------------

 SCF Done:  E(UB3LYP) =  -1120.83319619     A.U. after   33 cycles
 SCF Done:  E(UB3LYP) =  -1120.83319619     a.u. after    1 cycles

 The electronic state is 2-A.
 Alpha  occ. eigenvalues --  -89.00231 -19.07895 -19.07392 -19.03658 -19.03538
 Alpha  occ. eigenvalues --  -14.23222 -14.22994 -10.12912 -10.09777 -10.08430
 Alpha  occ. eigenvalues --  -10.07736 -10.07672 -10.07447 -10.07058 -10.06661
 Alpha  occ. eigenvalues --   -8.06097  -6.02414  -6.02328  -6.02215  -1.08116
 Alpha  occ. eigenvalues --   -0.96341  -0.94748  -0.93555  -0.86495  -0.76245
 Alpha  occ. eigenvalues --   -0.71516  -0.66665  -0.65366  -0.60884  -0.57724
 Alpha  occ. eigenvalues --   -0.53264  -0.51581  -0.49973  -0.45369  -0.42924
 Alpha  occ. eigenvalues --   -0.41409  -0.40968  -0.39922  -0.39019  -0.37102
 Alpha  occ. eigenvalues --   -0.36229  -0.35043  -0.34437  -0.33103  -0.32034
 Alpha  occ. eigenvalues --   -0.29706  -0.29553  -0.28411  -0.28344  -0.27540
 Alpha  occ. eigenvalues --   -0.26963  -0.25646  -0.25171  -0.24752  -0.23621
 Alpha  occ. eigenvalues --   -0.23138  -0.22497  -0.21191  -0.15753  -0.15004
 Alpha  occ. eigenvalues --   -0.11706   0.03986
 Alpha virt. eigenvalues --    0.05812   0.07044   0.07699   0.07887   0.08463
 Alpha virt. eigenvalues --    0.09499   0.10166   0.10316   0.11223   0.12155
 Alpha virt. eigenvalues --    0.12345   0.12960   0.13851   0.14092   0.15114

  Beta  occ. eigenvalues --  -89.00166 -19.07830 -19.07248 -19.03618 -19.03474
  Beta  occ. eigenvalues --  -14.23199 -14.22991 -10.12791 -10.09758 -10.08449
  Beta  occ. eigenvalues --  -10.07767 -10.07659 -10.07348 -10.06989 -10.06532
  Beta  occ. eigenvalues --   -8.06015  -6.02354  -6.02234  -6.02163  -1.07879
  Beta  occ. eigenvalues --   -0.96129  -0.94458  -0.93386  -0.86471  -0.76096
  Beta  occ. eigenvalues --   -0.71458  -0.66569  -0.65087  -0.60797  -0.57471
  Beta  occ. eigenvalues --   -0.53201  -0.51329  -0.49828  -0.45280  -0.42840
  Beta  occ. eigenvalues --   -0.41364  -0.40876  -0.39814  -0.38958  -0.37037
  Beta  occ. eigenvalues --   -0.36147  -0.34949  -0.34294  -0.32997  -0.32003
  Beta  occ. eigenvalues --   -0.29650  -0.29352  -0.28338  -0.28223  -0.27437
  Beta  occ. eigenvalues --   -0.26825  -0.25571  -0.24972  -0.24621  -0.23556
  Beta  occ. eigenvalues --   -0.23095  -0.22432  -0.21120  -0.15043  -0.14653
  Beta  occ. eigenvalues --   -0.11683
  Beta virt. eigenvalues --    0.06245   0.07156   0.07548   0.07895   0.08565
  Beta virt. eigenvalues --    0.08980   0.09693   0.10376   0.10659   0.11262
  Beta virt. eigenvalues --    0.12429   0.12604   0.12984   0.14025   0.14079

 Mulliken charges and spin densities:
               1          2
     1  C    0.264709  -0.156979
     2  C   -0.194443  -0.376228
     3  C   -0.666420   0.342242
     4  C    0.328213   0.816878
     5  C   -0.391247   0.077525
     6  C   -0.292426   0.001579
     7  C    0.500858  -1.082983
     8  C    0.089524  -0.572707
     9  N   -0.261029   0.062064
    10  N   -0.249540  -0.088245
    11  O   -0.185502  -0.046720
    12  S    0.701495  -0.317784
    13  O   -0.252276   0.001953
    14  O   -0.164279   0.008201
    15  O   -0.199451   0.006927
    16  H    0.113771   0.060527
    17  H   -0.333095   0.656493
    18  H    0.101231   0.103540
    19  H    0.009623   0.117668
    20  H    0.072557   0.071414
    21  H   -0.064211   0.243896
    22  H   -0.092192   0.252889
    23  H   -0.248643   0.402934
    24  H    0.074910   0.077047
    25  H    0.244189  -0.020737
    26  H    0.119121   0.109979
    27  H   -0.025447   0.248627
 Sum of Mulliken charges =  -1.00000   1.00000

 Dipole moment (field-independent basis, Debye):
    X=             -0.9600    Y=              2.2144    Z=             -2.7912  Tot=              3.6900
 Quadrupole moment (field-independent basis, Debye-Ang):
   XX=           -174.4671   YY=           -119.2280   ZZ=           -123.4682
   XY=             -0.0504   XZ=             -3.0386   YZ=              0.0179

 Summary of Natural Population Analysis:

                                       Natural Population
                Natural  -----------------------------------------------
    Atom  No    Charge         Core      Valence    Rydberg      Total
 -----------------------------------------------------------------------
      C    1   -0.12224      0.99950     2.11296    0.00979     3.12224
      C    2    0.14869      0.99934     1.83653    0.01544     2.85131
      C    3   -0.09693      0.99944     2.08680    0.01068     3.09693
      C    4   -0.01897      0.99951     2.00796    0.01150     3.01897
      C    5   -0.09375      0.99951     2.08469    0.00955     3.09375
      C    6   -0.08080      0.99957     2.07237    0.00886     3.08080
      C    7   -0.20106      0.99959     2.19112    0.01036     3.20106
      C    8   -0.08456      0.99963     2.07288    0.01205     3.08456
      N    9   -0.25995      0.99975     2.74753    0.01267     3.75995
      N   10   -0.33292      0.99979     2.82236    0.01077     3.83292
      O   11   -0.42383      0.99990     3.41733    0.00660     4.42383
      S   12    1.23409      4.99947     1.65943    0.10702     6.76591
      O   13   -0.44618      0.99990     3.44066    0.00562     4.44618
      O   14   -0.43413      0.99989     3.42857    0.00567     4.43413
      O   15   -0.35413      0.99987     3.34565    0.00861     4.35413
      H   16    0.10883      0.00000     0.39021    0.00095     0.39117
      H   17    0.25849      0.00000     0.21883    0.02268     0.24151
      H   18    0.11260      0.00000     0.38583    0.00157     0.38740
      H   19    0.09679      0.00000     0.40226    0.00096     0.40321
      H   20    0.09679      0.00000     0.40249    0.00073     0.40321
      H   21    0.10715      0.00000     0.39123    0.00162     0.39285
      H   22    0.10255      0.00000     0.39642    0.00103     0.39745
      H   23    0.08984      0.00000     0.40847    0.00168     0.41016
      H   24    0.08501      0.00000     0.41334    0.00165     0.41499
      H   25    0.17099      0.00000     0.32566    0.00335     0.32901
      H   26    0.16927      0.00000     0.32932    0.00142     0.33073
      H   27    0.16836      0.00000     0.32956    0.00207     0.33164
 =======================================================================
   * Total *    0.00000     18.99465    41.72045    0.28489    61.00000

 Normal termination of Gaussian 16 at Thu Dec 10 17:50:47 2020.
