 Gaussian 16, Revision A.03,

 -----------------------------------------------------------
 # opt freq B3LYP/6-31G(d) empiricaldispersion=gd3bj scf=xqc
 -----------------------------------------------------------

 ------------------------------
 CID_70611728_JID_1472_neutraal
 ------------------------------
 Symbolic Z-matrix:
 Charge =  0 Multiplicity = 1

 SCF Done:  E(RB3LYP) =  -515.471742006     A.U. after   14 cycles
 SCF Done:  E(RB3LYP) =  -515.475667561     A.U. after   12 cycles
 SCF Done:  E(RB3LYP) =  -515.476199248     A.U. after   12 cycles
 SCF Done:  E(RB3LYP) =  -515.476255507     A.U. after   11 cycles
 SCF Done:  E(RB3LYP) =  -515.476273255     A.U. after   10 cycles
 SCF Done:  E(RB3LYP) =  -515.476286890     A.U. after   10 cycles
 SCF Done:  E(RB3LYP) =  -515.476299525     A.U. after   11 cycles
 SCF Done:  E(RB3LYP) =  -515.476309702     A.U. after   11 cycles
 SCF Done:  E(RB3LYP) =  -515.476317251     A.U. after   10 cycles
 SCF Done:  E(RB3LYP) =  -515.476317897     A.U. after    9 cycles
 SCF Done:  E(RB3LYP) =  -515.476317953     A.U. after    7 cycles
 SCF Done:  E(RB3LYP) =  -515.476317968     A.U. after    7 cycles
 Optimization completed.
    -- Stationary point found.
 Normal termination of Gaussian 16 at Tue Dec  8 20:04:40 2020.

 --------------------------------------------------------------------
 #N Geom=AllCheck Guess=TCheck SCRF=Check GenChk RB3LYP/6-31G(d) Freq
 --------------------------------------------------------------------

 Structure from the checkpoint file:  "JID_1472.chk"
 ------------------------------
 CID_70611728_JID_1472_neutraal
 ------------------------------
 Charge =  0 Multiplicity = 1

 SCF Done:  E(RB3LYP) =  -515.476317968     A.U. after    1 cycles

  Exact polarizability: 132.303  -0.169  91.967  -5.444  -4.443  49.837
 Approx polarizability: 175.462  -4.225 159.644 -13.934  -3.876  79.641

                      1                      2                      3
                      A                      A                      A
 Frequencies --     27.7008                49.3519               110.3953
 Red. masses --      4.5493                 4.7300                 3.9628
 Frc consts  --      0.0021                 0.0068                 0.0285
 IR Inten    --      0.4886                 4.1943                 1.8698

                      4                      5                      6
                      A                      A                      A
 Frequencies --    128.9594               220.8727               255.9171
 Red. masses --      4.0608                 1.0753                 4.4218
 Frc consts  --      0.0398                 0.0309                 0.1706
 IR Inten    --      1.0112                 0.2181                 1.5645

                      7                      8                      9
                      A                      A                      A
 Frequencies --    312.4787               367.9309               398.2317
 Red. masses --      5.2230                 4.5021                 5.0404
 Frc consts  --      0.3005                 0.3591                 0.4710
 IR Inten    --      5.0114                 2.8428                12.5343

                     10                     11                     12
                      A                      A                      A
 Frequencies --    423.1359               510.0713               621.3491
 Red. masses --      3.0624                 3.2937                 5.8405
 Frc consts  --      0.3231                 0.5049                 1.3285
 IR Inten    --      0.2875                 1.7885                 3.0761

                     13                     14                     15
                      A                      A                      A
 Frequencies --    632.1028               671.7653               701.9525
 Red. masses --      6.3099                 4.3041                 2.1062
 Frc consts  --      1.4854                 1.1444                 0.6114
 IR Inten    --      0.7547                19.4422                26.9637

                     16                     17                     18
                      A                      A                      A
 Frequencies --    720.1314               760.1688               772.6204
 Red. masses --      7.2896                 1.2250                 1.6816
 Frc consts  --      2.2273                 0.4171                 0.5914
 IR Inten    --     11.1863                84.4631                14.8000

                     19                     20                     21
                      A                      A                      A
 Frequencies --    838.3123               846.0612               911.9257
 Red. masses --      1.2561                 5.2189                 1.5364
 Frc consts  --      0.5201                 2.2011                 0.7528
 IR Inten    --      0.5477                19.4220                 1.4971

                     22                     23                     24
                      A                      A                      A
 Frequencies --    955.9524               959.5631               985.6082
 Red. masses --      5.2905                 1.3394                 1.2432
 Frc consts  --      2.8485                 0.7266                 0.7115
 IR Inten    --     18.2502                 0.3709                 0.2298

                     25                     26                     27
                      A                      A                      A
 Frequencies --   1024.8176              1054.3202              1075.2103
 Red. masses --      6.1343                 2.2126                 1.7985
 Frc consts  --      3.7958                 1.4491                 1.2250
 IR Inten    --      5.2550                 4.8722               125.2029

                     28                     29                     30
                      A                      A                      A
 Frequencies --   1109.1967              1139.4800              1187.8661
 Red. masses --      1.4888                 3.6381                 1.2712
 Frc consts  --      1.0792                 2.7832                 1.0568
 IR Inten    --      7.2030               250.2223                 0.9957

                     31                     32                     33
                      A                      A                      A
 Frequencies --   1191.2898              1200.2852              1227.6706
 Red. masses --      1.1024                 1.1489                 1.5471
 Frc consts  --      0.9218                 0.9752                 1.3738
 IR Inten    --      0.1267                 3.1472                84.3178

                     34                     35                     36
                      A                      A                      A
 Frequencies --   1273.7141              1344.9376              1362.8207
 Red. masses --      4.6555                 1.8101                 2.7673
 Frc consts  --      4.4500                 1.9291                 3.0282
 IR Inten    --     51.3888                22.1650               168.2754

                     37                     38                     39
                      A                      A                      A
 Frequencies --   1375.5560              1497.2198              1505.0278
 Red. masses --      3.6225                 1.2346                 2.2789
 Frc consts  --      4.0384                 1.6305                 3.0413
 IR Inten    --    628.2694                62.4548                 2.5445

                     40                     41                     42
                      A                      A                      A
 Frequencies --   1522.8376              1535.6347              1545.6801
 Red. masses --      1.0473                 1.0566                 2.3015
 Frc consts  --      1.4309                 1.4681                 3.2396
 IR Inten    --      6.8213                 6.7271                59.8105

                     43                     44                     45
                      A                      A                      A
 Frequencies --   1656.3072              1662.2331              1749.4392
 Red. masses --      5.9226                 6.0753                 8.5246
 Frc consts  --      9.5729                 9.8901                15.3716
 IR Inten    --     16.8422                19.6696               240.1199

                     46                     47                     48
                      A                      A                      A
 Frequencies --   3039.8346              3103.4392              3176.1660
 Red. masses --      1.0345                 1.1074                 1.1003
 Frc consts  --      5.6325                 6.2841                 6.5397
 IR Inten    --     34.9890                33.5417                15.7044

                     49                     50                     51
                      A                      A                      A
 Frequencies --   3187.6199              3197.6369              3210.2628
 Red. masses --      1.0853                 1.0899                 1.0944
 Frc consts  --      6.4973                 6.5659                 6.6453
 IR Inten    --      0.0852                16.7982                31.0554

                     52                     53                     54
                      A                      A                      A
 Frequencies --   3221.6237              3249.3904              3545.8376
 Red. masses --      1.0952                 1.0931                 1.0753
 Frc consts  --      6.6975                 6.7998                 7.9656
 IR Inten    --      7.1572                 2.7213                 2.5477

 - Thermochemistry -
 -------------------
 Temperature   298.150 Kelvin.  Pressure   1.00000 Atm.
 Atom     1 has atomic number  6 and mass  12.00000

 Molecular mass:   151.06333 amu.
 Principal axes and moments of inertia in atomic units:
                           1         2         3
     Eigenvalues --   501.626373161.368353471.91848
           X            0.99998   0.00570   0.00245
           Y           -0.00563   0.99955  -0.02948
           Z           -0.00262   0.02947   0.99956
 This molecule is an asymmetric top.
 Rotational symmetry number  1.
 Warning -- assumption of classical behavior for rotation
           may cause significant error
 Rotational temperatures (Kelvin)      0.17267     0.02740     0.02495
 Rotational constants (GHZ):           3.59778     0.57087     0.51981
 Zero-point vibrational energy     420821.8 (Joules/Mol)
                                  100.57883 (Kcal/Mol)
 Warning -- explicit consideration of  11 degrees of freedom as
           vibrations may cause significant error
 Vibrational temperatures:     39.86    71.01   158.83   185.54   317.79
          (Kelvin)            368.21   449.59   529.37   572.97   608.80
                              733.88   893.98   909.45   966.52  1009.95
                             1036.11  1093.71  1111.63  1206.14  1217.29
                             1312.06  1375.40  1380.60  1418.07  1474.48
                             1516.93  1546.99  1595.89  1639.46  1709.07
                             1714.00  1726.94  1766.34  1832.59  1935.07
                             1960.79  1979.12  2154.17  2165.40  2191.02
                             2209.44  2223.89  2383.06  2391.58  2517.05
                             4373.64  4465.16  4569.79  4586.27  4600.69
                             4618.85  4635.20  4675.15  5101.67

 Zero-point correction=                           0.160283 (Hartree/Particle)
 Thermal correction to Energy=                    0.170191
 Thermal correction to Enthalpy=                  0.171135
 Thermal correction to Gibbs Free Energy=         0.123459
 Sum of electronic and zero-point Energies=           -515.316035
 Sum of electronic and thermal Energies=              -515.306127
 Sum of electronic and thermal Enthalpies=            -515.305183
 Sum of electronic and thermal Free Energies=         -515.352859

                     E (Thermal)             CV                S
                      KCal/Mol        Cal/Mol-Kelvin    Cal/Mol-Kelvin
 Total                  106.796             36.723            100.342
 Electronic               0.000              0.000              0.000
 Translational            0.889              2.981             40.948
 Rotational               0.889              2.981             30.088
 Vibrational            105.019             30.761             29.306
 Vibration     1          0.593              1.984              5.988
 Vibration     2          0.595              1.978              4.843
 Vibration     3          0.606              1.941              3.262
 Vibration     4          0.611              1.924              2.962
 Vibration     5          0.648              1.809              1.952
 Vibration     6          0.666              1.753              1.689
 Vibration     7          0.701              1.650              1.349
 Vibration     8          0.741              1.538              1.088
 Vibration     9          0.765              1.474              0.969
 Vibration    10          0.785              1.420              0.881
 Vibration    11          0.865              1.228              0.633

 Optimization completed.
    -- Stationary point found.
 Normal termination of Gaussian 16 at Tue Dec  8 20:08:07 2020.

 ----------------------------------------------------------------------
 # B3LYP/6-311++G(d,p) empiricaldispersion=gd3bj scf=xqc pop=npa geom=c
 heck
 ----------------------------------------------------------------------

 --------------------------------------
 CID_70611728_JID_1472_Energie_neutraal
 --------------------------------------
 Structure from the checkpoint file:  "JID_1472.chk"
 Charge =  0 Multiplicity = 1

 SCF Done:  E(RB3LYP) =  -515.625034689     A.U. after   14 cycles
 Normal termination of Gaussian 16 at Tue Dec  8 20:09:46 2020.

 ----------------------------------------------------------------------
 # B3LYP/6-311++G(d,p) empiricaldispersion=gd3bj scf=xqc pop=npa geom=c
 heck
 ----------------------------------------------------------------------

 ------------------------------------
 CID_70611728_JID_1472_Energie_kation
 ------------------------------------
 Structure from the checkpoint file:  "JID_1472.chk"
 Charge =  1 Multiplicity = 2

 SCF Done:  E(UB3LYP) =  -515.309206475     A.U. after   26 cycles
 Normal termination of Gaussian 16 at Tue Dec  8 20:14:05 2020.
 Gaussian 16:  ES64L-G16RevA.03 25-Dec-2016

 ----------------------------------------------------------------------
 # B3LYP/6-311++G(d,p) empiricaldispersion=gd3bj scf=xqc pop=npa geom=c
 heck
 ----------------------------------------------------------------------

 -----------------------------------
 CID_70611728_JID_1472_Energie_anion
 -----------------------------------
 Structure from the checkpoint file:  "JID_1472.chk"
 Charge = -1 Multiplicity = 2

                         Standard orientation:
 ---------------------------------------------------------------------
 Center     Atomic      Atomic             Coordinates (Angstroms)
 Number     Number       Type             X           Y           Z
 ---------------------------------------------------------------------
      1          6           0        3.994506    0.010107    0.061006
      2          8           0        2.762161   -0.542053   -0.386810
      3          6           0        1.634447    0.049094    0.074858
      4          7           0        1.481505    1.033637    0.859219
      5          8           0        0.613216   -0.643657   -0.476821
      6          6           0       -0.707490   -0.277260   -0.223539
      7          6           0       -1.561112   -1.301067    0.175051
      8          6           0       -2.917603   -1.028044    0.353356
      9          6           0       -3.408095    0.259512    0.135380
     10          6           0       -2.536200    1.273724   -0.266798
     11          6           0       -1.179476    1.013327   -0.452835
     12          1           0        4.774412   -0.585281   -0.414054
     13          1           0        4.089546   -0.063932    1.151147
     14          1           0        4.094491    1.058210   -0.246543
     15          1           0        2.366749    1.417130    1.180617
     16          1           0       -1.154448   -2.294091    0.335103
     17          1           0       -3.587993   -1.824152    0.664148
     18          1           0       -4.463535    0.472690    0.276864
     19          1           0       -2.912689    2.278030   -0.438835
     20          1           0       -0.493946    1.795249   -0.752806
 ---------------------------------------------------------------------

 SCF Done:  E(UB3LYP) =  -515.610937927     A.U. after   33 cycles
 SCF Done:  E(UB3LYP) =  -515.610937927     a.u. after    1 cycles

 The electronic state is 2-A.
 Alpha  occ. eigenvalues --  -19.07829 -19.06998 -14.18679 -10.22252 -10.14616
 Alpha  occ. eigenvalues --  -10.12337 -10.08742 -10.08691 -10.08555 -10.08394
 Alpha  occ. eigenvalues --  -10.08282  -1.03236  -0.96366  -0.79505  -0.76719
 Alpha  occ. eigenvalues --   -0.67379  -0.66181  -0.62526  -0.54786  -0.52451
 Alpha  occ. eigenvalues --   -0.48127  -0.45454  -0.43317  -0.40670  -0.39740
 Alpha  occ. eigenvalues --   -0.37423  -0.35899  -0.34913  -0.33766  -0.33168
 Alpha  occ. eigenvalues --   -0.30698  -0.27779  -0.27279  -0.27129  -0.26093
 Alpha  occ. eigenvalues --   -0.22194  -0.19158  -0.17867  -0.16618  -0.15010
 Alpha  occ. eigenvalues --    0.04417
 Alpha virt. eigenvalues --    0.05709   0.07355   0.07478   0.07747   0.08555
 Alpha virt. eigenvalues --    0.09122   0.09476   0.10736   0.11336   0.12543
 Alpha virt. eigenvalues --    0.13442   0.13840   0.14086   0.15217   0.16710

  Beta  occ. eigenvalues --  -19.07829 -19.06990 -14.18656 -10.22253 -10.14614
  Beta  occ. eigenvalues --  -10.12248 -10.08729 -10.08681 -10.08549 -10.08387
  Beta  occ. eigenvalues --  -10.08266  -1.03225  -0.96353  -0.79468  -0.76697
  Beta  occ. eigenvalues --   -0.67344  -0.66157  -0.62444  -0.54727  -0.52420
  Beta  occ. eigenvalues --   -0.48082  -0.45395  -0.43269  -0.40626  -0.39713
  Beta  occ. eigenvalues --   -0.37391  -0.35854  -0.34853  -0.33739  -0.33139
  Beta  occ. eigenvalues --   -0.30668  -0.27747  -0.27246  -0.27069  -0.26070
  Beta  occ. eigenvalues --   -0.22168  -0.19138  -0.17843  -0.16603  -0.14998
  Beta virt. eigenvalues --    0.06547   0.07446   0.07565   0.07743   0.07897
  Beta virt. eigenvalues --    0.09126   0.10062   0.10454   0.11225   0.12138
  Beta virt. eigenvalues --    0.12965   0.13603   0.13901   0.14273   0.15155

 Mulliken charges and spin densities:
               1          2
     1  C    2.036201  -2.294360
     2  O   -0.244281   0.129090
     3  C   -0.201175  -0.069056
     4  N   -0.221010  -0.051470
     5  O   -0.108427   0.006486
     6  C    0.008636  -0.128995
     7  C   -0.533539   0.629266
     8  C    0.247061  -0.453293
     9  C    0.914151  -1.155893
    10  C   -0.251100   0.034646
    11  C    0.230659  -0.134868
    12  H   -0.531228   0.695136
    13  H   -0.655100   0.830632
    14  H   -0.780383   0.955345
    15  H   -0.003641   0.256277
    16  H    0.056486   0.118381
    17  H   -0.396922   0.568201
    18  H   -0.435614   0.591005
    19  H   -0.208982   0.380430
    20  H    0.078206   0.093040
 Sum of Mulliken charges =  -1.00000   1.00000

 Dipole moment (field-independent basis, Debye):
    X=             -4.9337    Y=             -1.3914    Z=             -1.4226  Tot=              5.3199
 Quadrupole moment (field-independent basis, Debye-Ang):
   XX=           -168.6434   YY=            -93.7869   ZZ=            -91.5051
   XY=             -5.2654   XZ=             -0.3869   YZ=             -1.6115

 Summary of Natural Population Analysis:

                                       Natural Population
                Natural  -----------------------------------------------
    Atom  No    Charge         Core      Valence    Rydberg      Total
 -----------------------------------------------------------------------
      C    1   -0.10533      0.99960     2.09608    0.00965     3.10533
      O    2   -0.27292      0.99986     3.26345    0.00962     4.27292
      C    3    0.42508      0.99957     1.55257    0.02279     2.57492
      N    4   -0.38596      0.99968     2.87844    0.00784     3.88596
      O    5   -0.27029      0.99982     3.26010    0.01037     4.27029
      C    6    0.15352      0.99934     1.83426    0.01288     2.84648
      C    7   -0.11579      0.99951     2.10721    0.00907     3.11579
      C    8   -0.09890      0.99957     2.08854    0.01079     3.09890
      C    9   -0.10839      0.99957     2.09870    0.01012     3.10839
      C   10   -0.09764      0.99957     2.08771    0.01036     3.09764
      C   11   -0.11118      0.99950     2.10278    0.00890     3.11118
      H   12    0.09952      0.00000     0.39807    0.00241     0.40048
      H   13    0.08936      0.00000     0.40677    0.00387     0.41064
      H   14    0.09034      0.00000     0.40468    0.00499     0.40966
      H   15    0.17958      0.00000     0.31822    0.00220     0.32042
      H   16    0.10772      0.00000     0.39121    0.00107     0.39228
      H   17    0.10243      0.00000     0.39631    0.00126     0.39757
      H   18    0.10307      0.00000     0.39521    0.00172     0.39693
      H   19    0.10164      0.00000     0.39740    0.00096     0.39836
      H   20    0.11414      0.00000     0.38470    0.00116     0.38586
 =======================================================================
   * Total *   -0.00000     10.99559    28.86239    0.14202    40.00000

 Normal termination of Gaussian 16 at Tue Dec  8 20:19:51 2020.
