 Gaussian 16, Revision A.03,

 -----------------------------------------------------------
 # opt freq B3LYP/6-31G(d) empiricaldispersion=gd3bj scf=xqc
 -----------------------------------------------------------

 ------------------------------
 CID_55030399_JID_7210_neutraal
 ------------------------------
 Symbolic Z-matrix:
 Charge =  0 Multiplicity = 1

 SCF Done:  E(RB3LYP) =  -714.261445430     A.U. after   14 cycles
 SCF Done:  E(RB3LYP) =  -714.261273017     A.U. after   12 cycles
 SCF Done:  E(RB3LYP) =  -714.266044320     A.U. after   12 cycles
 SCF Done:  E(RB3LYP) =  -714.267124229     A.U. after   12 cycles
 SCF Done:  E(RB3LYP) =  -714.267494915     A.U. after   12 cycles
 SCF Done:  E(RB3LYP) =  -714.267875059     A.U. after   12 cycles
 SCF Done:  E(RB3LYP) =  -714.268191439     A.U. after   12 cycles
 SCF Done:  E(RB3LYP) =  -714.268583905     A.U. after   12 cycles
 SCF Done:  E(RB3LYP) =  -714.268862506     A.U. after   11 cycles
 SCF Done:  E(RB3LYP) =  -714.269111755     A.U. after   12 cycles
 SCF Done:  E(RB3LYP) =  -714.269260364     A.U. after   11 cycles
 SCF Done:  E(RB3LYP) =  -714.269334765     A.U. after   12 cycles
 SCF Done:  E(RB3LYP) =  -714.269331105     A.U. after   10 cycles
 SCF Done:  E(RB3LYP) =  -714.269335725     A.U. after   10 cycles
 SCF Done:  E(RB3LYP) =  -714.269335408     A.U. after    9 cycles
 SCF Done:  E(RB3LYP) =  -714.269335848     A.U. after    9 cycles
 Optimization completed.
    -- Stationary point found.
 Normal termination of Gaussian 16 at Mon Dec 14 16:57:00 2020.

 --------------------------------------------------------------------
 #N Geom=AllCheck Guess=TCheck SCRF=Check GenChk RB3LYP/6-31G(d) Freq
 --------------------------------------------------------------------

 Structure from the checkpoint file:  "JID_7210.chk"
 ------------------------------
 CID_55030399_JID_7210_neutraal
 ------------------------------
 Charge =  0 Multiplicity = 1

 SCF Done:  E(RB3LYP) =  -714.269335848     A.U. after    1 cycles

  Exact polarizability: 178.651  -5.300 177.894 -20.384   6.822 122.270
 Approx polarizability: 249.738  -5.160 289.288 -39.648  15.339 185.122

                      1                      2                      3
                      A                      A                      A
 Frequencies --     21.4530                46.3714                72.8320
 Red. masses --      4.2044                 4.4916                 3.3006
 Frc consts  --      0.0011                 0.0057                 0.0103
 IR Inten    --      0.6563                 0.0744                 0.0604

                      4                      5                      6
                      A                      A                      A
 Frequencies --     83.3693               116.6084               133.5394
 Red. masses --      2.8071                 3.4607                 3.6176
 Frc consts  --      0.0115                 0.0277                 0.0380
 IR Inten    --      0.3190                 1.2436                 0.7034

                      7                      8                      9
                      A                      A                      A
 Frequencies --    157.5352               178.9684               219.7692
 Red. masses --      3.4631                 4.0330                 2.1948
 Frc consts  --      0.0506                 0.0761                 0.0625
 IR Inten    --      1.1745                 0.9192                 0.2357

                     10                     11                     12
                      A                      A                      A
 Frequencies --    243.7955               259.9613               284.5092
 Red. masses --      1.6003                 2.0434                 2.8163
 Frc consts  --      0.0560                 0.0814                 0.1343
 IR Inten    --      0.2379                10.1627                 1.3490

                     13                     14                     15
                      A                      A                      A
 Frequencies --    291.1855               312.6456               347.7177
 Red. masses --      1.1823                 1.7751                 2.5146
 Frc consts  --      0.0591                 0.1022                 0.1791
 IR Inten    --      0.9204                20.0138                22.6283

                     16                     17                     18
                      A                      A                      A
 Frequencies --    353.9881               398.5208               410.9426
 Red. masses --      1.7370                 2.0690                 2.3663
 Frc consts  --      0.1282                 0.1936                 0.2354
 IR Inten    --     52.6850                 7.7868                 1.0679

                     19                     20                     21
                      A                      A                      A
 Frequencies --    446.5400               474.2322               485.7679
 Red. masses --      2.4278                 3.8246                 4.2372
 Frc consts  --      0.2852                 0.5068                 0.5891
 IR Inten    --      7.1938                10.3232                 5.6198

                     22                     23                     24
                      A                      A                      A
 Frequencies --    507.8308               524.7543               564.4585
 Red. masses --      3.9907                 3.5448                 3.5950
 Frc consts  --      0.6064                 0.5751                 0.6749
 IR Inten    --      5.7023                 6.4815                 0.9538

                     25                     26                     27
                      A                      A                      A
 Frequencies --    586.6319               608.3400               717.0967
 Red. masses --      2.8155                 4.7142                 3.4129
 Frc consts  --      0.5709                 1.0279                 1.0340
 IR Inten    --      4.0239                 1.8234                18.5937

                     28                     29                     30
                      A                      A                      A
 Frequencies --    729.5517               739.4036               754.6697
 Red. masses --      1.5611                 3.8386                 3.7165
 Frc consts  --      0.4895                 1.2365                 1.2471
 IR Inten    --     12.6807                 1.1621                 3.7185

                     31                     32                     33
                      A                      A                      A
 Frequencies --    758.3946               763.8585               808.5543
 Red. masses --      1.8455                 1.5186                 2.8366
 Frc consts  --      0.6254                 0.5221                 1.0926
 IR Inten    --     20.7828                25.9185                 2.5821

                     34                     35                     36
                      A                      A                      A
 Frequencies --    845.3184               865.4413               890.1454
 Red. masses --      2.4719                 1.4529                 2.6029
 Frc consts  --      1.0407                 0.6411                 1.2152
 IR Inten    --      6.1394                 7.0535                14.0776

                     37                     38                     39
                      A                      A                      A
 Frequencies --    904.3063               910.9532               930.8984
 Red. masses --      2.7603                 3.3222                 1.3290
 Frc consts  --      1.3300                 1.6243                 0.6785
 IR Inten    --      3.9103                 4.9791                 2.4752

                     40                     41                     42
                      A                      A                      A
 Frequencies --    933.9217               946.8399               949.3987
 Red. masses --      1.2951                 1.2935                 1.9358
 Frc consts  --      0.6655                 0.6832                 1.0280
 IR Inten    --      0.4721                 2.2720                 3.0687

                     43                     44                     45
                      A                      A                      A
 Frequencies --    965.7286               982.7243              1012.2228
 Red. masses --      1.2283                 1.4710                 2.2276
 Frc consts  --      0.6749                 0.8370                 1.3447
 IR Inten    --      1.1951                 0.9166                15.8571

                     46                     47                     48
                      A                      A                      A
 Frequencies --   1045.8222              1064.2680              1076.2718
 Red. masses --      2.5115                 2.7312                 2.0393
 Frc consts  --      1.6184                 1.8227                 1.3918
 IR Inten    --      2.2884                 5.2461                 8.9027

                     49                     50                     51
                      A                      A                      A
 Frequencies --   1095.3630              1103.2559              1108.3294
 Red. masses --      2.1638                 1.8061                 1.7695
 Frc consts  --      1.5296                 1.2952                 1.2806
 IR Inten    --     17.2995                47.3561                12.1287

                     52                     53                     54
                      A                      A                      A
 Frequencies --   1124.0279              1142.1514              1155.9624
 Red. masses --      1.8260                 2.4505                 2.0547
 Frc consts  --      1.3593                 1.8835                 1.6176
 IR Inten    --      6.4200                 7.1342                10.2578

                     55                     56                     57
                      A                      A                      A
 Frequencies --   1190.0856              1202.6669              1222.0496
 Red. masses --      1.6140                 1.0933                 1.2341
 Frc consts  --      1.3469                 0.9317                 1.0859
 IR Inten    --      5.4778                 2.2673                 3.0926

                     58                     59                     60
                      A                      A                      A
 Frequencies --   1236.9119              1278.7631              1286.1844
 Red. masses --      1.7476                 1.3124                 1.6703
 Frc consts  --      1.5753                 1.2644                 1.6280
 IR Inten    --      2.0089                10.4376                75.3493

                     61                     62                     63
                      A                      A                      A
 Frequencies --   1301.4857              1311.6241              1335.7931
 Red. masses --      1.5690                 1.9690                 2.0196
 Frc consts  --      1.5658                 1.9958                 2.1232
 IR Inten    --     11.0445                73.2176                23.4035

                     64                     65                     66
                      A                      A                      A
 Frequencies --   1348.1479              1354.5871              1367.4894
 Red. masses --      1.5759                 1.5844                 1.7322
 Frc consts  --      1.6876                 1.7128                 1.9086
 IR Inten    --     24.6731                 1.6336                25.3479

                     67                     68                     69
                      A                      A                      A
 Frequencies --   1376.4181              1399.1287              1410.0186
 Red. masses --      1.3503                 1.3719                 1.4696
 Frc consts  --      1.5072                 1.5822                 1.7214
 IR Inten    --      1.3808                 3.3518                 3.7237

                     70                     71                     72
                      A                      A                      A
 Frequencies --   1414.0161              1426.0063              1427.8812
 Red. masses --      1.5326                 1.3082                 1.2850
 Frc consts  --      1.8054                 1.5674                 1.5436
 IR Inten    --     12.1728                23.2460                18.7204

                     73                     74                     75
                      A                      A                      A
 Frequencies --   1447.0528              1451.4722              1499.8144
 Red. masses --      1.2250                 1.4876                 1.7288
 Frc consts  --      1.5113                 1.8465                 2.2912
 IR Inten    --      2.6192                 8.2480                17.4872

                     76                     77                     78
                      A                      A                      A
 Frequencies --   1501.8973              1507.8438              1514.3966
 Red. masses --      1.2553                 1.3129                 1.2990
 Frc consts  --      1.6683                 1.7587                 1.7552
 IR Inten    --      6.7162                13.7491                16.3500

                     79                     80                     81
                      A                      A                      A
 Frequencies --   1518.4439              1521.1621              1527.5560
 Red. masses --      1.0482                 1.1151                 1.1373
 Frc consts  --      1.4240                 1.5202                 1.5636
 IR Inten    --      4.0040                16.8680                 0.4439

                     82                     83                     84
                      A                      A                      A
 Frequencies --   1536.2143              1544.9888              1572.8612
 Red. masses --      1.0541                 1.0573                 2.0023
 Frc consts  --      1.4657                 1.4869                 2.9185
 IR Inten    --      3.6304                 2.8398               128.1042

                     85                     86                     87
                      A                      A                      A
 Frequencies --   1645.2030              1669.0424              1737.1851
 Red. masses --      4.2298                 5.6333                 6.0325
 Frc consts  --      6.7454                 9.2458                10.7261
 IR Inten    --     34.1236                54.5112                64.8250

                     88                     89                     90
                      A                      A                      A
 Frequencies --   2970.8045              3030.8522              3034.0644
 Red. masses --      1.0816                 1.0624                 1.0600
 Frc consts  --      5.6242                 5.7502                 5.7492
 IR Inten    --     38.3458                29.7968                35.3847

                     91                     92                     93
                      A                      A                      A
 Frequencies --   3045.1114              3045.8497              3051.6005
 Red. masses --      1.0372                 1.0726                 1.0356
 Frc consts  --      5.6666                 5.8629                 5.6820
 IR Inten    --     29.1218                11.8844                35.2899

                     94                     95                     96
                      A                      A                      A
 Frequencies --   3057.2118              3064.4797              3080.4382
 Red. masses --      1.0942                 1.0795                 1.1035
 Frc consts  --      6.0255                 5.9731                 6.1693
 IR Inten    --     45.6218               105.9280                17.7720

                     97                     98                     99
                      A                      A                      A
 Frequencies --   3094.4046              3108.8571              3115.8076
 Red. masses --      1.1047                 1.1022                 1.1017
 Frc consts  --      6.2320                 6.2766                 6.3017
 IR Inten    --     42.5039                 4.8193                60.9453

                    100                    101                    102
                      A                      A                      A
 Frequencies --   3124.7661              3137.4400              3181.7523
 Red. masses --      1.1031                 1.0999                 1.0859
 Frc consts  --      6.3457                 6.3789                 6.4768
 IR Inten    --     27.1773                17.4950                 5.2461

                    103                    104                    105
                      A                      A                      A
 Frequencies --   3197.8230              3201.2042              3213.3557
 Red. masses --      1.0901                 1.0863                 1.0940
 Frc consts  --      6.5678                 6.5591                 6.6559
 IR Inten    --     24.8287                 3.6119                31.4133

                    106                    107                    108
                      A                      A                      A
 Frequencies --   3228.4041              3238.3533              3653.9890
 Red. masses --      1.0985                 1.0909                 1.0756
 Frc consts  --      6.7457                 6.7405                 8.4612
 IR Inten    --     19.7042                 4.2653                13.0764

 - Thermochemistry -
 -------------------
 Temperature   298.150 Kelvin.  Pressure   1.00000 Atm.
 Atom     1 has atomic number  6 and mass  12.00000

 Molecular mass:   231.16231 amu.
 Principal axes and moments of inertia in atomic units:
                           1         2         3
     Eigenvalues --  2471.758245117.284306256.02201
           X            0.99991   0.01083  -0.00755
           Y           -0.01086   0.99994  -0.00315
           Z            0.00752   0.00323   0.99997
 This molecule is an asymmetric top.
 Rotational symmetry number  1.
 Warning -- assumption of classical behavior for rotation
           may cause significant error
 Rotational temperatures (Kelvin)      0.03504     0.01693     0.01384
 Rotational constants (GHZ):           0.73014     0.35268     0.28848
 Zero-point vibrational energy     881756.1 (Joules/Mol)
                                  210.74477 (Kcal/Mol)
 Warning -- explicit consideration of  26 degrees of freedom as
           vibrations may cause significant error
 Vibrational temperatures:     30.87    66.72   104.79   119.95   167.77
          (Kelvin)            192.13   226.66   257.50   316.20   350.77
                              374.03   409.35   418.95   449.83   500.29
                              509.31   573.38   591.25   642.47   682.31
                              698.91   730.66   755.00   812.13   844.03
                              875.27  1031.74  1049.66  1063.84  1085.80
                             1091.16  1099.02  1163.33  1216.22  1245.18
                             1280.72  1301.09  1310.66  1339.36  1343.70
                             1362.29  1365.97  1389.47  1413.92  1456.36
                             1504.70  1531.24  1548.52  1575.98  1587.34
                             1594.64  1617.23  1643.30  1663.17  1712.27
                             1730.37  1758.26  1779.64  1839.85  1850.53
                             1872.55  1887.13  1921.91  1939.68  1948.95
                             1967.51  1980.36  2013.03  2028.70  2034.45
                             2051.71  2054.40  2081.99  2088.34  2157.90
                             2160.90  2169.45  2178.88  2184.70  2188.61
                             2197.81  2210.27  2222.89  2263.00  2367.08
                             2401.38  2499.42  4274.33  4360.72  4365.34
                             4381.24  4382.30  4390.57  4398.65  4409.10
                             4432.06  4452.16  4472.95  4482.95  4495.84
                             4514.08  4577.83  4600.95  4605.82  4623.30
                             4644.95  4659.27  5257.28

 Zero-point correction=                           0.335843 (Hartree/Particle)
 Thermal correction to Energy=                    0.352071
 Thermal correction to Enthalpy=                  0.353015
 Thermal correction to Gibbs Free Energy=         0.291940
 Sum of electronic and zero-point Energies=           -713.933493
 Sum of electronic and thermal Energies=              -713.917265
 Sum of electronic and thermal Enthalpies=            -713.916321
 Sum of electronic and thermal Free Energies=         -713.977396

                     E (Thermal)             CV                S
                      KCal/Mol        Cal/Mol-Kelvin    Cal/Mol-Kelvin
 Total                  220.928             64.204            128.543
 Electronic               0.000              0.000              0.000
 Translational            0.889              2.981             42.216
 Rotational               0.889              2.981             32.737
 Vibrational            219.150             58.242             53.591
 Vibration     1          0.593              1.985              6.495
 Vibration     2          0.595              1.979              4.966
 Vibration     3          0.599              1.967              4.075
 Vibration     4          0.600              1.961              3.810
 Vibration     5          0.608              1.936              3.156
 Vibration     6          0.613              1.920              2.894
 Vibration     7          0.621              1.894              2.579
 Vibration     8          0.629              1.868              2.339
 Vibration     9          0.647              1.811              1.961
 Vibration    10          0.659              1.773              1.775
 Vibration    11          0.668              1.746              1.662
 Vibration    12          0.683              1.702              1.506
 Vibration    13          0.687              1.690              1.467
 Vibration    14          0.701              1.650              1.348
 Vibration    15          0.725              1.580              1.177
 Vibration    16          0.730              1.567              1.148
 Vibration    17          0.765              1.473              0.968
 Vibration    18          0.775              1.446              0.923
 Vibration    19          0.806              1.369              0.806
 Vibration    20          0.831              1.307              0.726
 Vibration    21          0.842              1.282              0.695
 Vibration    22          0.863              1.233              0.639
 Vibration    23          0.880              1.195              0.599
 Vibration    24          0.920              1.108              0.515
 Vibration    25          0.944              1.060              0.473
 Vibration    26          0.967              1.014              0.436

 Optimization completed.
    -- Stationary point found.
 Normal termination of Gaussian 16 at Mon Dec 14 17:13:15 2020.

 ----------------------------------------------------------------------
 # B3LYP/6-311++G(d,p) empiricaldispersion=gd3bj scf=xqc pop=npa geom=c
 heck
 ----------------------------------------------------------------------

 --------------------------------------
 CID_55030399_JID_7210_Energie_neutraal
 --------------------------------------
 Structure from the checkpoint file:  "JID_7210.chk"
 Charge =  0 Multiplicity = 1

 SCF Done:  E(RB3LYP) =  -714.463985578     A.U. after   15 cycles
 Normal termination of Gaussian 16 at Mon Dec 14 17:21:53 2020.

 ----------------------------------------------------------------------
 # B3LYP/6-311++G(d,p) empiricaldispersion=gd3bj scf=xqc pop=npa geom=c
 heck
 ----------------------------------------------------------------------

 ------------------------------------
 CID_55030399_JID_7210_Energie_kation
 ------------------------------------
 Structure from the checkpoint file:  "JID_7210.chk"
 Charge =  1 Multiplicity = 2

 SCF Done:  E(UB3LYP) =  -714.208256818     A.U. after   21 cycles
 Normal termination of Gaussian 16 at Mon Dec 14 17:39:04 2020.
 Gaussian 16:  ES64L-G16RevA.03 25-Dec-2016

 ----------------------------------------------------------------------
 # B3LYP/6-311++G(d,p) empiricaldispersion=gd3bj scf=xqc pop=npa geom=c
 heck
 ----------------------------------------------------------------------

 -----------------------------------
 CID_55030399_JID_7210_Energie_anion
 -----------------------------------
 Structure from the checkpoint file:  "JID_7210.chk"
 Charge = -1 Multiplicity = 2

                         Standard orientation:
 ---------------------------------------------------------------------
 Center     Atomic      Atomic             Coordinates (Angstroms)
 Number     Number       Type             X           Y           Z
 ---------------------------------------------------------------------
      1          6           0       -1.467511   -2.301225    0.804532
      2          6           0       -2.167663   -1.540759   -0.340813
      3          6           0       -3.632152   -1.982005   -0.453596
      4          6           0       -1.975257   -0.040316   -0.170945
      5          6           0       -2.988635    0.769063    0.344952
      6          6           0       -2.811768    2.135323    0.567596
      7          6           0       -1.576521    2.707697    0.279018
      8          6           0       -0.541497    1.931313   -0.235375
      9          6           0       -0.724171    0.559558   -0.480930
     10          7           0        0.310663   -0.218510   -0.998943
     11          6           0        1.451884    0.328911   -1.706414
     12          6           0        2.749624    0.438361   -0.887010
     13          6           0        3.396434   -0.895415   -0.492827
     14          6           0        2.625810   -1.626269    0.615579
     15          6           0        2.218820   -0.640013    1.672118
     16          6           0        2.202760    0.673539    1.432354
     17          8           0        2.534702    1.286182    0.254788
     18          1           0       -1.983271   -2.098134    1.750009
     19          1           0       -0.428368   -1.981509    0.924959
     20          1           0       -1.486259   -3.384237    0.631543
     21          1           0       -1.693612   -1.842908   -1.289420
     22          1           0       -4.170595   -1.833192    0.488914
     23          1           0       -4.159674   -1.429361   -1.238041
     24          1           0       -3.683571   -3.050212   -0.691305
     25          1           0       -3.949060    0.321717    0.579156
     26          1           0       -3.623748    2.733827    0.969479
     27          1           0       -1.404532    3.765490    0.460231
     28          1           0        0.429018    2.379847   -0.404801
     29          1           0        0.040712   -1.143391   -1.289725
     30          1           0        1.665701   -0.305991   -2.576753
     31          1           0        1.203239    1.323429   -2.095709
     32          1           0        3.460667    0.996184   -1.508991
     33          1           0        3.500889   -1.518956   -1.388971
     34          1           0        4.409163   -0.678961   -0.133391
     35          1           0        1.745306   -2.135941    0.201877
     36          1           0        3.260969   -2.412205    1.044642
     37          1           0        1.927224   -0.988018    2.657766
     38          1           0        1.926600    1.416050    2.173398
 ---------------------------------------------------------------------

 SCF Done:  E(UB3LYP) =  -714.454088076     A.U. after   32 cycles

 The electronic state is 2-A.
 Alpha  occ. eigenvalues --  -19.04795 -14.22071 -10.12801 -10.11917 -10.11412
 Alpha  occ. eigenvalues --  -10.10333 -10.08574 -10.07637 -10.07419 -10.07265
 Alpha  occ. eigenvalues --  -10.06945 -10.06896 -10.06822 -10.06686 -10.06439
 Alpha  occ. eigenvalues --  -10.06079 -10.05825  -0.96315  -0.83694  -0.75087
 Alpha  occ. eigenvalues --   -0.70703  -0.70364  -0.68479  -0.63881  -0.63414
 Alpha  occ. eigenvalues --   -0.59440  -0.58983  -0.54318  -0.53552  -0.52931
 Alpha  occ. eigenvalues --   -0.48992  -0.47109  -0.43442  -0.42953  -0.41076
 Alpha  occ. eigenvalues --   -0.39310  -0.37917  -0.37254  -0.36473  -0.35090
 Alpha  occ. eigenvalues --   -0.34452  -0.33986  -0.33510  -0.32394  -0.31318
 Alpha  occ. eigenvalues --   -0.30446  -0.29911  -0.29501  -0.28792  -0.28191
 Alpha  occ. eigenvalues --   -0.27619  -0.26788  -0.26120  -0.25046  -0.24019
 Alpha  occ. eigenvalues --   -0.23442  -0.23098  -0.22877  -0.21051  -0.19643
 Alpha  occ. eigenvalues --   -0.14988  -0.12358  -0.09979   0.04211
 Alpha virt. eigenvalues --    0.06540   0.06955   0.07414   0.08194   0.08418
 Alpha virt. eigenvalues --    0.08849   0.09220   0.09282   0.09910   0.10157
 Alpha virt. eigenvalues --    0.10457   0.11029   0.11280   0.11528   0.12007

  Beta  occ. eigenvalues --  -19.04789 -14.22056 -10.12791 -10.11913 -10.11407
  Beta  occ. eigenvalues --  -10.10299 -10.08556 -10.07631 -10.07410 -10.07262
  Beta  occ. eigenvalues --  -10.06922 -10.06865 -10.06807 -10.06683 -10.06436
  Beta  occ. eigenvalues --  -10.06058 -10.05823  -0.96299  -0.83662  -0.75065
  Beta  occ. eigenvalues --   -0.70672  -0.70325  -0.68450  -0.63860  -0.63388
  Beta  occ. eigenvalues --   -0.59400  -0.58942  -0.54266  -0.53521  -0.52889
  Beta  occ. eigenvalues --   -0.48963  -0.47071  -0.43405  -0.42915  -0.41024
  Beta  occ. eigenvalues --   -0.39269  -0.37890  -0.37223  -0.36440  -0.35054
  Beta  occ. eigenvalues --   -0.34432  -0.33958  -0.33486  -0.32364  -0.31288
  Beta  occ. eigenvalues --   -0.30405  -0.29874  -0.29473  -0.28768  -0.28173
  Beta  occ. eigenvalues --   -0.27585  -0.26756  -0.26099  -0.25018  -0.23986
  Beta  occ. eigenvalues --   -0.23410  -0.23060  -0.22850  -0.21019  -0.19610
  Beta  occ. eigenvalues --   -0.14957  -0.12340  -0.09952
  Beta virt. eigenvalues --    0.06385   0.07078   0.07308   0.07982   0.08483
  Beta virt. eigenvalues --    0.08868   0.09002   0.09448   0.09628   0.10025
  Beta virt. eigenvalues --    0.10315   0.10827   0.11445   0.11479   0.11768

 Mulliken charges and spin densities:
               1          2
     1  C    0.384164  -1.014841
     2  C   -0.602748   0.483487
     3  C   -0.186189  -0.340458
     4  C    0.162301   0.529805
     5  C   -0.100116  -0.224164
     6  C   -0.213649  -0.410241
     7  C    0.160844  -0.572553
     8  C    0.113482  -0.349117
     9  C   -0.203212   0.605405
    10  N    0.135838  -0.139451
    11  C    0.633555  -1.277351
    12  C   -0.898828   1.279212
    13  C    1.420837  -2.075557
    14  C    0.040073  -0.281641
    15  C    0.182376  -0.093513
    16  C   -0.224893  -0.264223
    17  O   -0.039731  -0.035052
    18  H    0.069622   0.069206
    19  H    0.568111  -0.493648
    20  H   -0.323650   0.468765
    21  H   -0.546560   0.709233
    22  H    0.106391   0.012452
    23  H    0.050526   0.085939
    24  H   -0.220141   0.392696
    25  H    0.091615   0.035955
    26  H    0.084035   0.043235
    27  H    0.147412  -0.000922
    28  H    0.031488   0.127192
    29  H    0.456630  -0.113066
    30  H   -1.080605   1.281285
    31  H    0.142854   0.039377
    32  H   -0.476952   0.706093
    33  H   -0.343781   0.511713
    34  H    0.016014   0.156004
    35  H   -0.323440   0.437936
    36  H   -0.348416   0.534806
    37  H    0.064157   0.098620
    38  H    0.070585   0.077381
 Sum of Mulliken charges =  -1.00000   1.00000

 Dipole moment (field-independent basis, Debye):
    X=             -4.1822    Y=              5.3380    Z=              5.1756  Tot=              8.5306
 Quadrupole moment (field-independent basis, Debye-Ang):
   XX=           -166.1912   YY=           -154.8186   ZZ=           -147.7493
   XY=              2.6294   XZ=              5.6639   YZ=             -7.7851

 Summary of Natural Population Analysis:

                                       Natural Population
                Natural  -----------------------------------------------
    Atom  No    Charge         Core      Valence    Rydberg      Total
 -----------------------------------------------------------------------
      C    1   -0.28151      0.99964     2.27569    0.00619     3.28151
      C    2   -0.12170      0.99959     2.11180    0.01031     3.12170
      C    3   -0.28242      0.99966     2.27633    0.00643     3.28242
      C    4   -0.02984      0.99947     2.01964    0.01072     3.02984
      C    5   -0.09845      0.99952     2.09099    0.00794     3.09845
      C    6   -0.12884      0.99957     2.11874    0.01053     3.12884
      C    7   -0.09758      0.99957     2.08859    0.00941     3.09758
      C    8   -0.13121      0.99952     2.12406    0.00763     3.13121
      C    9    0.10055      0.99944     1.88826    0.01175     2.89945
      N   10   -0.32243      0.99967     2.80925    0.01351     3.82243
      C   11   -0.09572      0.99958     2.08296    0.01318     3.09572
      C   12    0.06600      0.99952     1.91876    0.01572     2.93400
      C   13   -0.20156      0.99961     2.19284    0.00911     3.20156
      C   14   -0.20660      0.99962     2.19759    0.00939     3.20660
      C   15   -0.15095      0.99954     2.14147    0.00995     3.15095
      C   16    0.08154      0.99941     1.90555    0.01350     2.91846
      O   17   -0.28828      0.99987     3.27833    0.01008     4.28828
      H   18    0.09478      0.00000     0.40432    0.00091     0.40522
      H   19    0.10554      0.00000     0.39296    0.00151     0.39446
      H   20    0.09931      0.00000     0.39963    0.00106     0.40069
      H   21    0.09715      0.00000     0.39982    0.00303     0.40285
      H   22    0.09346      0.00000     0.40563    0.00090     0.40654
      H   23    0.10088      0.00000     0.39827    0.00085     0.39912
      H   24    0.10261      0.00000     0.39658    0.00081     0.39739
      H   25    0.09836      0.00000     0.40056    0.00108     0.40164
      H   26    0.09573      0.00000     0.40349    0.00078     0.40427
      H   27    0.09600      0.00000     0.40323    0.00077     0.40400
      H   28    0.10890      0.00000     0.38924    0.00186     0.39110
      H   29    0.19496      0.00000     0.30049    0.00455     0.30504
      H   30    0.10584      0.00000     0.39069    0.00347     0.39416
      H   31    0.09633      0.00000     0.40199    0.00168     0.40367
      H   32    0.09414      0.00000     0.40414    0.00172     0.40586
      H   33    0.10935      0.00000     0.38773    0.00292     0.39065
      H   34    0.09947      0.00000     0.39926    0.00127     0.40053
      H   35    0.10365      0.00000     0.39436    0.00199     0.39635
      H   36    0.10245      0.00000     0.39629    0.00125     0.39755
      H   37    0.10120      0.00000     0.39797    0.00083     0.39880
      H   38    0.08887      0.00000     0.41014    0.00098     0.41113
 =======================================================================
   * Total *   -0.00000     16.99278    45.79764    0.20958    63.00000

 Normal termination of Gaussian 16 at Mon Dec 14 18:02:23 2020.
