 Gaussian 16, Revision A.03,

 -----------------------------------------------------------
 # opt freq B3LYP/6-31G(d) empiricaldispersion=gd3bj scf=xqc
 -----------------------------------------------------------

 ------------------------------
 CID_20563857_JID_9709_neutraal
 ------------------------------
 Symbolic Z-matrix:
 Charge =  0 Multiplicity = 1

 SCF Done:  E(RB3LYP) =  -932.525497578     A.U. after   16 cycles
 SCF Done:  E(RB3LYP) =  -932.527526860     A.U. after   16 cycles
 SCF Done:  E(RB3LYP) =  -932.524476960     A.U. after   16 cycles
 SCF Done:  E(RB3LYP) =  -932.529699556     A.U. after   15 cycles
 SCF Done:  E(RB3LYP) =  -932.530719402     A.U. after   15 cycles
 SCF Done:  E(RB3LYP) =  -932.531597124     A.U. after   14 cycles
 SCF Done:  E(RB3LYP) =  -932.531464735     A.U. after   14 cycles
 SCF Done:  E(RB3LYP) =  -932.531768476     A.U. after   15 cycles
 SCF Done:  E(RB3LYP) =  -932.532493569     A.U. after   14 cycles
 SCF Done:  E(RB3LYP) =  -932.532769518     A.U. after   14 cycles
 SCF Done:  E(RB3LYP) =  -932.538232005     A.U. after   12 cycles
 SCF Done:  E(RB3LYP) =  -932.538235147     A.U. after   10 cycles
 SCF Done:  E(RB3LYP) =  -932.538235763     A.U. after    9 cycles
 SCF Done:  E(RB3LYP) =  -932.538235904     A.U. after    8 cycles
 SCF Done:  E(RB3LYP) =  -932.538235959     A.U. after    8 cycles
 SCF Done:  E(RB3LYP) =  -932.538235985     A.U. after    8 cycles
 Optimization completed.
    -- Stationary point found.
 Normal termination of Gaussian 16 at Sat Dec 12 10:27:56 2020.

 --------------------------------------------------------------------
 #N Geom=AllCheck Guess=TCheck SCRF=Check GenChk RB3LYP/6-31G(d) Freq
 --------------------------------------------------------------------

 Structure from the checkpoint file:  "JID_9709.chk"
 ------------------------------
 CID_20563857_JID_9709_neutraal
 ------------------------------
 Charge =  0 Multiplicity = 1

 SCF Done:  E(RB3LYP) =  -932.538235985     A.U. after    1 cycles

  Exact polarizability: 224.755   5.441 187.207  -3.701  -5.576 102.313
 Approx polarizability: 328.545   6.997 319.179 -25.922 -26.391 179.375

                      1                      2                      3
                      A                      A                      A
 Frequencies --     31.4215                46.6904                50.5204
 Red. masses --      6.5437                 4.9308                 4.9068
 Frc consts  --      0.0038                 0.0063                 0.0074
 IR Inten    --      2.4663                 3.0423                 0.2548

                      4                      5                      6
                      A                      A                      A
 Frequencies --     81.0483                87.1659                95.3503
 Red. masses --      4.4725                 6.8152                 3.2290
 Frc consts  --      0.0173                 0.0305                 0.0173
 IR Inten    --      0.7130                 1.2583                 2.1297

                      7                      8                      9
                      A                      A                      A
 Frequencies --    120.1950               159.0004               178.2012
 Red. masses --      2.3896                 2.9539                 2.0066
 Frc consts  --      0.0203                 0.0440                 0.0375
 IR Inten    --      0.6472                 0.4596                 0.6160

                     10                     11                     12
                      A                      A                      A
 Frequencies --    190.3149               202.0514               213.3878
 Red. masses --      4.5317                 1.1757                 2.0105
 Frc consts  --      0.0967                 0.0283                 0.0539
 IR Inten    --      2.2243                 0.5331                 2.8067

                     13                     14                     15
                      A                      A                      A
 Frequencies --    215.1415               225.7224               243.6056
 Red. masses --      2.1363                 1.5858                 1.8209
 Frc consts  --      0.0583                 0.0476                 0.0637
 IR Inten    --      1.7336                 0.5995                 1.4041

                     16                     17                     18
                      A                      A                      A
 Frequencies --    263.7461               269.5012               287.8599
 Red. masses --      3.8534                 1.9191                 2.3556
 Frc consts  --      0.1579                 0.0821                 0.1150
 IR Inten    --      0.7507                 0.5858                 0.3612

                     19                     20                     21
                      A                      A                      A
 Frequencies --    294.3558               298.9225               352.4764
 Red. masses --      3.8364                 3.6493                 6.2506
 Frc consts  --      0.1958                 0.1921                 0.4575
 IR Inten    --      1.9901                 0.1568                 1.0660

                     22                     23                     24
                      A                      A                      A
 Frequencies --    382.9759               395.7397               411.0564
 Red. masses --      4.7270                 4.1301                 2.7972
 Frc consts  --      0.4085                 0.3811                 0.2785
 IR Inten    --      0.1823                 2.7476                 0.3356

                     25                     26                     27
                      A                      A                      A
 Frequencies --    449.8609               477.1582               514.9082
 Red. masses --      3.7598                 5.8026                 4.3077
 Frc consts  --      0.4483                 0.7784                 0.6729
 IR Inten    --      0.8490                 2.2461                 5.0557

                     28                     29                     30
                      A                      A                      A
 Frequencies --    517.6579               547.8052               600.1280
 Red. masses --      3.6462                 4.7421                 3.8439
 Frc consts  --      0.5757                 0.8385                 0.8157
 IR Inten    --      8.7668                 4.1002                 4.4187

                     31                     32                     33
                      A                      A                      A
 Frequencies --    664.7217               678.0472               685.6647
 Red. masses --      7.3997                 1.6388                 2.6314
 Frc consts  --      1.9264                 0.4439                 0.7289
 IR Inten    --     13.8606                47.2415                23.7847

                     34                     35                     36
                      A                      A                      A
 Frequencies --    746.0122               756.7726               780.3800
 Red. masses --      5.0082                 5.1479                 3.2563
 Frc consts  --      1.6422                 1.7371                 1.1684
 IR Inten    --     22.4921                33.5713                11.5736

                     37                     38                     39
                      A                      A                      A
 Frequencies --    783.3351               808.7061               817.8422
 Red. masses --      4.8388                 8.9104                 1.9896
 Frc consts  --      1.7494                 3.4334                 0.7841
 IR Inten    --     15.9171                10.1222                 2.5021

                     40                     41                     42
                      A                      A                      A
 Frequencies --    856.6946               905.0925               933.8021
 Red. masses --      3.2155                 2.8298                 1.3760
 Frc consts  --      1.3905                 1.3658                 0.7070
 IR Inten    --      4.6926                 4.0800                 5.1205

                     43                     44                     45
                      A                      A                      A
 Frequencies --    950.6081               951.2613               954.0656
 Red. masses --      3.0599                 1.2382                 3.6978
 Frc consts  --      1.6292                 0.6601                 1.9831
 IR Inten    --      4.9877                 3.8915                37.8032

                     46                     47                     48
                      A                      A                      A
 Frequencies --    985.9294              1031.8786              1055.0403
 Red. masses --      1.4621                 3.4407                 1.5187
 Frc consts  --      0.8374                 2.1585                 0.9960
 IR Inten    --      0.0137                11.6767                15.8235

                     49                     50                     51
                      A                      A                      A
 Frequencies --   1074.1802              1093.3560              1128.2857
 Red. masses --      1.4775                 2.6573                 1.8208
 Frc consts  --      1.0045                 1.8716                 1.3657
 IR Inten    --      2.4089                30.4657                 2.9660

                     52                     53                     54
                      A                      A                      A
 Frequencies --   1138.3641              1155.4707              1171.0604
 Red. masses --      2.3058                 1.8098                 1.9743
 Frc consts  --      1.7605                 1.4236                 1.5952
 IR Inten    --      3.9888                 8.5797                13.7895

                     55                     56                     57
                      A                      A                      A
 Frequencies --   1194.1859              1230.4000              1260.2444
 Red. masses --      2.7985                 2.9034                 2.4129
 Frc consts  --      2.3513                 2.5897                 2.2579
 IR Inten    --     16.9008                 3.0165                 7.2734

                     58                     59                     60
                      A                      A                      A
 Frequencies --   1308.8666              1317.4359              1341.5443
 Red. masses --      1.8857                 1.7628                 2.2362
 Frc consts  --      1.9033                 1.8026                 2.3712
 IR Inten    --     69.1352                46.3024               161.2663

                     61                     62                     63
                      A                      A                      A
 Frequencies --   1357.4710              1372.9379              1387.0446
 Red. masses --      1.7924                 3.1547                 5.5135
 Frc consts  --      1.9460                 3.5036                 6.2497
 IR Inten    --    157.1272                50.3278               232.5894

                     64                     65                     66
                      A                      A                      A
 Frequencies --   1405.1791              1408.8452              1425.3152
 Red. masses --      1.9619                 2.0983                 1.2246
 Frc consts  --      2.2824                 2.4539                 1.4658
 IR Inten    --    114.1138                26.1302                 7.7078

                     67                     68                     69
                      A                      A                      A
 Frequencies --   1438.1294              1442.7144              1449.2520
 Red. masses --      1.5606                 1.3095                 1.2492
 Frc consts  --      1.9017                 1.6059                 1.5459
 IR Inten    --      1.2848                31.8784                 7.7461

                     70                     71                     72
                      A                      A                      A
 Frequencies --   1459.0547              1490.8973              1515.0699
 Red. masses --      1.4382                 2.3668                 1.0478
 Frc consts  --      1.8038                 3.0996                 1.4170
 IR Inten    --      3.1450                28.6029                 3.3785

                     73                     74                     75
                      A                      A                      A
 Frequencies --   1518.4631              1519.6253              1524.7336
 Red. masses --      1.0738                 1.0794                 1.0977
 Frc consts  --      1.4588                 1.4686                 1.5036
 IR Inten    --      6.5154                11.1532                12.7805

                     76                     77                     78
                      A                      A                      A
 Frequencies --   1525.8383              1532.7122              1540.9462
 Red. masses --      1.0679                 1.1467                 1.1367
 Frc consts  --      1.4648                 1.5871                 1.5902
 IR Inten    --      7.6910                 6.8109                14.2333

                     79                     80                     81
                      A                      A                      A
 Frequencies --   1542.3855              1558.1935              1577.6058
 Red. masses --      1.0613                 1.0717                 2.4961
 Frc consts  --      1.4875                 1.5331                 3.6602
 IR Inten    --     15.8987                14.2369               186.5843

                     82                     83                     84
                      A                      A                      A
 Frequencies --   1590.4789              1627.0013              1641.9334
 Red. masses --      5.0453                 9.0014                 2.9948
 Frc consts  --      7.5196                14.0391                 4.7570
 IR Inten    --    116.0799               133.3843                70.3015

                     85                     86                     87
                      A                      A                      A
 Frequencies --   1670.9772              3014.4617              3049.3211
 Red. masses --      8.5902                 1.0759                 1.0423
 Frc consts  --     14.1317                 5.7601                 5.7103
 IR Inten    --    327.6308                51.3865                23.5788

                     88                     89                     90
                      A                      A                      A
 Frequencies --   3057.8467              3060.4750              3063.1157
 Red. masses --      1.0394                 1.0393                 1.0479
 Frc consts  --      5.7259                 5.7354                 5.7927
 IR Inten    --     29.3868                32.0665                17.0642

                     91                     92                     93
                      A                      A                      A
 Frequencies --   3070.8961              3108.2547              3118.0473
 Red. masses --      1.0724                 1.0950                 1.1001
 Frc consts  --      5.9584                 6.2333                 6.3018
 IR Inten    --     20.4446                13.6690                23.8536

                     94                     95                     96
                      A                      A                      A
 Frequencies --   3120.7787              3123.2313              3137.9906
 Red. masses --      1.1021                 1.1021                 1.1016
 Frc consts  --      6.3241                 6.3338                 6.3913
 IR Inten    --     23.9661                40.9607                12.0262

                     97                     98                     99
                      A                      A                      A
 Frequencies --   3162.6849              3164.2731              3175.6664
 Red. masses --      1.0992                 1.0990                 1.0982
 Frc consts  --      6.4778                 6.4832                 6.5251
 IR Inten    --      8.3937                12.6283                 8.1874

                    100                    101                    102
                      A                      A                      A
 Frequencies --   3177.4453              3239.6815              3563.5766
 Red. masses --      1.0904                 1.0904                 1.0752
 Frc consts  --      6.4864                 6.7431                 8.0444
 IR Inten    --     15.1095                 1.2216                59.3353

 - Thermochemistry -
 -------------------
 Temperature   298.150 Kelvin.  Pressure   1.00000 Atm.
 Atom     1 has atomic number  6 and mass  12.00000

 Molecular mass:   267.12191 amu.
 Principal axes and moments of inertia in atomic units:
                           1         2         3
     Eigenvalues --  3262.894585943.715508519.14043
           X            0.99779   0.06620   0.00525
           Y           -0.06618   0.99780  -0.00260
           Z           -0.00541   0.00224   0.99998
 This molecule is an asymmetric top.
 Rotational symmetry number  1.
 Warning -- assumption of classical behavior for rotation
           may cause significant error
 Rotational temperatures (Kelvin)      0.02655     0.01457     0.01017
 Rotational constants (GHZ):           0.55311     0.30364     0.21185
 Zero-point vibrational energy     770955.9 (Joules/Mol)
                                  184.26289 (Kcal/Mol)
 Warning -- explicit consideration of  30 degrees of freedom as
           vibrations may cause significant error
 Vibrational temperatures:     45.21    67.18    72.69   116.61   125.41
          (Kelvin)            137.19   172.93   228.77   256.39   273.82
                              290.71   307.02   309.54   324.76   350.49
                              379.47   387.75   414.17   423.51   430.08
                              507.13   551.02   569.38   591.42   647.25
                              686.52   740.84   744.79   788.17   863.45
                              956.39   975.56   986.52  1073.35  1088.83
                             1122.79  1127.04  1163.55  1176.69  1232.59
                             1302.23  1343.53  1367.71  1368.65  1372.69
                             1418.53  1484.64  1517.97  1545.51  1573.10
                             1623.35  1637.85  1662.46  1684.89  1718.17
                             1770.27  1813.21  1883.17  1895.50  1930.18
                             1953.10  1975.35  1995.65  2021.74  2027.01
                             2050.71  2069.15  2075.74  2085.15  2099.25
                             2145.07  2179.85  2184.73  2186.40  2193.75
                             2195.34  2205.23  2217.08  2219.15  2241.89
                             2269.82  2288.34  2340.89  2362.38  2404.16
                             4337.14  4387.29  4399.56  4403.34  4407.14
                             4418.33  4472.09  4486.17  4490.10  4493.63
                             4514.87  4550.40  4552.68  4569.08  4571.64
                             4661.18  5127.19

 Zero-point correction=                           0.293642 (Hartree/Particle)
 Thermal correction to Energy=                    0.312848
 Thermal correction to Enthalpy=                  0.313793
 Thermal correction to Gibbs Free Energy=         0.246125
 Sum of electronic and zero-point Energies=           -932.244594
 Sum of electronic and thermal Energies=              -932.225388
 Sum of electronic and thermal Enthalpies=            -932.224443
 Sum of electronic and thermal Free Energies=         -932.292111

                     E (Thermal)             CV                S
                      KCal/Mol        Cal/Mol-Kelvin    Cal/Mol-Kelvin
 Total                  196.315             71.219            142.418
 Electronic               0.000              0.000              0.000
 Translational            0.889              2.981             42.647
 Rotational               0.889              2.981             33.468
 Vibrational            194.538             65.258             66.303
 Vibration     1          0.594              1.983              5.738
 Vibration     2          0.595              1.979              4.953
 Vibration     3          0.595              1.977              4.797
 Vibration     4          0.600              1.962              3.865
 Vibration     5          0.601              1.958              3.723
 Vibration     6          0.603              1.953              3.547
 Vibration     7          0.609              1.932              3.097
 Vibration     8          0.621              1.893              2.562
 Vibration     9          0.629              1.869              2.347
 Vibration    10          0.634              1.853              2.225
 Vibration    11          0.639              1.837              2.114
 Vibration    12          0.644              1.821              2.014
 Vibration    13          0.645              1.818              2.000
 Vibration    14          0.650              1.802              1.913
 Vibration    15          0.659              1.773              1.776
 Vibration    16          0.670              1.739              1.637
 Vibration    17          0.674              1.729              1.599
 Vibration    18          0.685              1.696              1.487
 Vibration    19          0.689              1.684              1.449
 Vibration    20          0.692              1.676              1.423
 Vibration    21          0.729              1.570              1.155
 Vibration    22          0.752              1.506              1.027
 Vibration    23          0.762              1.479              0.978
 Vibration    24          0.775              1.446              0.923
 Vibration    25          0.809              1.361              0.796
 Vibration    26          0.834              1.301              0.718
 Vibration    27          0.870              1.217              0.622
 Vibration    28          0.873              1.211              0.615
 Vibration    29          0.903              1.144              0.549
 Vibration    30          0.958              1.032              0.449

 Optimization completed.
    -- Stationary point found.
 Normal termination of Gaussian 16 at Sat Dec 12 10:46:21 2020.

 ----------------------------------------------------------------------
 # B3LYP/6-311++G(d,p) empiricaldispersion=gd3bj scf=xqc pop=npa geom=c
 heck
 ----------------------------------------------------------------------

 --------------------------------------
 CID_20563857_JID_9709_Energie_neutraal
 --------------------------------------
 Structure from the checkpoint file:  "JID_9709.chk"
 Charge =  0 Multiplicity = 1

 SCF Done:  E(RB3LYP) =  -932.804579750     A.U. after   16 cycles
 Normal termination of Gaussian 16 at Sat Dec 12 10:53:38 2020.

 ----------------------------------------------------------------------
 # B3LYP/6-311++G(d,p) empiricaldispersion=gd3bj scf=xqc pop=npa geom=c
 heck
 ----------------------------------------------------------------------

 ------------------------------------
 CID_20563857_JID_9709_Energie_kation
 ------------------------------------
 Structure from the checkpoint file:  "JID_9709.chk"
 Charge =  1 Multiplicity = 2

 SCF Done:  E(UB3LYP) =  -932.506378289     A.U. after   25 cycles
 Normal termination of Gaussian 16 at Sat Dec 12 11:09:02 2020.
 Gaussian 16:  ES64L-G16RevA.03 25-Dec-2016

 ----------------------------------------------------------------------
 # B3LYP/6-311++G(d,p) empiricaldispersion=gd3bj scf=xqc pop=npa geom=c
 heck
 ----------------------------------------------------------------------

 -----------------------------------
 CID_20563857_JID_9709_Energie_anion
 -----------------------------------
 Structure from the checkpoint file:  "JID_9709.chk"
 Charge = -1 Multiplicity = 2

                         Standard orientation:
 ---------------------------------------------------------------------
 Center     Atomic      Atomic             Coordinates (Angstroms)
 Number     Number       Type             X           Y           Z
 ---------------------------------------------------------------------
      1          6           0       -4.083027   -1.993949    0.003960
      2          6           0       -2.924021   -1.375441   -0.769331
      3          7           0       -1.726009   -1.270335    0.067665
      4          6           0       -0.815646   -0.255184    0.052176
      5          6           0       -1.145778    1.122215   -0.007114
      6          6           0       -0.165070    2.106292   -0.070359
      7          6           0        1.191847    1.818788    0.008659
      8          6           0        1.598191    0.467929    0.093162
      9          6           0        0.594896   -0.514333    0.054980
     10          7           0        0.987314   -1.913702   -0.091542
     11          8           0        0.473418   -2.751628    0.663052
     12          8           0        1.780505   -2.202464   -0.984629
     13          6           0        3.089724    0.182159    0.278557
     14          6           0        3.444142   -0.985307    1.217606
     15          6           0        3.841486    0.086533   -1.064448
     16          6           0        2.171200    2.969674    0.044307
     17          7           0       -2.514360    1.620653    0.142266
     18          8           0       -2.774977    2.718319   -0.355573
     19          8           0       -3.315877    0.953492    0.797803
     20          1           0       -3.814895   -2.988855    0.378751
     21          1           0       -4.956103   -2.105432   -0.647856
     22          1           0       -4.349928   -1.361474    0.852971
     23          1           0       -2.680552   -1.991880   -1.647834
     24          1           0       -3.197757   -0.391289   -1.144439
     25          1           0       -1.329350   -2.163649    0.333200
     26          1           0       -0.500069    3.135089   -0.120840
     27          1           0        3.469670    1.077138    0.781350
     28          1           0        3.356391   -1.961211    0.737377
     29          1           0        4.486125   -0.874037    1.535700
     30          1           0        2.818594   -0.980462    2.116603
     31          1           0        3.637002    0.952948   -1.702060
     32          1           0        4.920830    0.049294   -0.879787
     33          1           0        3.546444   -0.812108   -1.607408
     34          1           0        1.649962    3.910865   -0.150090
     35          1           0        2.660087    3.062502    1.022282
     36          1           0        2.962703    2.868235   -0.704798
 ---------------------------------------------------------------------

 SCF Done:  E(UB3LYP) =  -932.861102603     A.U. after   23 cycles

 The electronic state is 2-A.
 Alpha  occ. eigenvalues --  -19.00039 -18.99972 -18.99456 -18.99356 -14.38606
 Alpha  occ. eigenvalues --  -14.36904 -14.20784 -10.12168 -10.09890 -10.09396
 Alpha  occ. eigenvalues --  -10.09157 -10.07404 -10.06933 -10.06497 -10.06425
 Alpha  occ. eigenvalues --  -10.06005 -10.05077 -10.05034 -10.04967  -1.07811
 Alpha  occ. eigenvalues --   -1.07161  -0.90494  -0.89876  -0.82963  -0.75449
 Alpha  occ. eigenvalues --   -0.70315  -0.68324  -0.66299  -0.64446  -0.59009
 Alpha  occ. eigenvalues --   -0.57872  -0.56625  -0.56086  -0.51819  -0.48187
 Alpha  occ. eigenvalues --   -0.46662  -0.44442  -0.42624  -0.41195  -0.39814
 Alpha  occ. eigenvalues --   -0.38772  -0.37781  -0.37267  -0.36795  -0.36094
 Alpha  occ. eigenvalues --   -0.35203  -0.33954  -0.33543  -0.32908  -0.32164
 Alpha  occ. eigenvalues --   -0.30076  -0.29707  -0.29498  -0.28404  -0.27717
 Alpha  occ. eigenvalues --   -0.27188  -0.26195  -0.25588  -0.24783  -0.23781
 Alpha  occ. eigenvalues --   -0.22687  -0.21892  -0.18519  -0.17697  -0.17510
 Alpha  occ. eigenvalues --   -0.16835  -0.16614  -0.16017  -0.14877  -0.12843
 Alpha  occ. eigenvalues --   -0.09286   0.00167
 Alpha virt. eigenvalues --    0.03737   0.07228   0.08292   0.08951   0.09527
 Alpha virt. eigenvalues --    0.10454   0.10842   0.11227   0.11417   0.11725
 Alpha virt. eigenvalues --    0.11958   0.12491   0.12891   0.13563   0.14023

  Beta  occ. eigenvalues --  -18.99842 -18.99715 -18.99174 -18.98968 -14.38264
  Beta  occ. eigenvalues --  -14.36361 -14.20810 -10.12165 -10.09887 -10.09452
  Beta  occ. eigenvalues --  -10.09170 -10.07425 -10.06927 -10.06543 -10.06157
  Beta  occ. eigenvalues --  -10.06005 -10.05050 -10.04957 -10.04779  -1.07276
  Beta  occ. eigenvalues --   -1.06347  -0.90064  -0.89245  -0.82973  -0.75213
  Beta  occ. eigenvalues --   -0.70086  -0.68094  -0.66142  -0.64376  -0.58612
  Beta  occ. eigenvalues --   -0.57821  -0.56297  -0.55507  -0.51777  -0.47948
  Beta  occ. eigenvalues --   -0.46448  -0.43975  -0.42252  -0.40654  -0.39119
  Beta  occ. eigenvalues --   -0.37864  -0.37512  -0.36534  -0.36319  -0.35335
  Beta  occ. eigenvalues --   -0.34706  -0.33773  -0.33478  -0.32712  -0.32121
  Beta  occ. eigenvalues --   -0.30006  -0.29661  -0.29420  -0.28285  -0.27641
  Beta  occ. eigenvalues --   -0.27168  -0.26101  -0.25480  -0.24564  -0.23671
  Beta  occ. eigenvalues --   -0.22556  -0.21787  -0.18045  -0.16675  -0.16293
  Beta  occ. eigenvalues --   -0.16029  -0.15690  -0.15345  -0.14582  -0.11955
  Beta  occ. eigenvalues --   -0.09130
  Beta virt. eigenvalues --    0.05823   0.07087   0.07224   0.08441   0.08931
  Beta virt. eigenvalues --    0.09531   0.10482   0.10957   0.11303   0.11633
  Beta virt. eigenvalues --    0.11844   0.12456   0.12930   0.13144   0.13623

 Mulliken charges and spin densities:
               1          2
     1  C   -0.483329   0.001271
     2  C   -0.225159   0.000631
     3  N   -0.024006  -0.012786
     4  C    0.099068  -0.009659
     5  C   -0.043649  -0.035168
     6  C   -0.507162   0.222785
     7  C    0.240688  -0.081569
     8  C    0.438504   0.225292
     9  C   -0.474635  -0.031833
    10  N   -0.216434   0.178875
    11  O   -0.121645   0.106025
    12  O   -0.093129   0.142373
    13  C    0.322219   0.008267
    14  C   -0.713855  -0.015069
    15  C   -0.766214  -0.004534
    16  C   -0.606026   0.006918
    17  N   -0.342985   0.110053
    18  O   -0.072131   0.077318
    19  O   -0.044708   0.096460
    20  H    0.115934   0.000333
    21  H    0.106084  -0.000666
    22  H    0.180622  -0.000290
    23  H    0.152108  -0.001021
    24  H    0.161829   0.002652
    25  H    0.307903   0.005457
    26  H    0.200339  -0.010506
    27  H    0.154279   0.004141
    28  H    0.167837   0.009018
    29  H    0.118700   0.000274
    30  H    0.145362   0.003866
    31  H    0.090385  -0.001878
    32  H    0.110345   0.007502
    33  H    0.193790   0.000510
    34  H    0.132504  -0.001128
    35  H    0.149083  -0.003802
    36  H    0.147481  -0.000112
 Sum of Mulliken charges =  -1.00000   1.00000

 Dipole moment (field-independent basis, Debye):
    X=              3.0085    Y=              0.8811    Z=             -0.3849  Tot=              3.1584
 Quadrupole moment (field-independent basis, Debye-Ang):
   XX=           -152.6072   YY=           -148.9656   ZZ=           -124.5166
   XY=             23.5614   XZ=              7.3251   YZ=              1.3406

 Summary of Natural Population Analysis:

                                       Natural Population
                Natural  -----------------------------------------------
    Atom  No    Charge         Core      Valence    Rydberg      Total
 -----------------------------------------------------------------------
      C    1   -0.28887      0.99967     2.28462    0.00459     3.28887
      C    2   -0.08215      0.99963     2.07321    0.00931     3.08215
      N    3   -0.31587      0.99965     2.80418    0.01204     3.81587
      C    4    0.08294      0.99950     1.90134    0.01622     2.91706
      C    5    0.01025      0.99936     1.97904    0.01135     2.98975
      C    6   -0.03231      0.99949     2.02367    0.00914     3.03231
      C    7   -0.05643      0.99948     2.04896    0.00800     3.05643
      C    8    0.05084      0.99947     1.93462    0.01506     2.94916
      C    9    0.07532      0.99936     1.91340    0.01193     2.92468
      N   10    0.28753      0.99974     2.18319    0.02954     3.21247
      O   11   -0.21665      0.99989     3.20837    0.00838     4.21665
      O   12   -0.18331      0.99989     3.17438    0.00904     4.18331
      C   13   -0.12132      0.99959     2.11332    0.00842     3.12132
      C   14   -0.28546      0.99965     2.28075    0.00506     3.28546
      C   15   -0.27826      0.99964     2.27386    0.00476     3.27826
      C   16   -0.29064      0.99964     2.28651    0.00449     3.29064
      N   17    0.27610      0.99971     2.19557    0.02861     3.22390
      O   18   -0.20855      0.99990     3.20112    0.00753     4.20855
      O   19   -0.19891      0.99990     3.18973    0.00928     4.19891
      H   20    0.09193      0.00000     0.40708    0.00098     0.40807
      H   21    0.09217      0.00000     0.40690    0.00094     0.40783
      H   22    0.11170      0.00000     0.38737    0.00093     0.38830
      H   23    0.08106      0.00000     0.41741    0.00153     0.41894
      H   24    0.10146      0.00000     0.39734    0.00119     0.39854
      H   25    0.20372      0.00000     0.29417    0.00211     0.29628
      H   26    0.10755      0.00000     0.39111    0.00134     0.39245
      H   27    0.09440      0.00000     0.40363    0.00197     0.40560
      H   28    0.10944      0.00000     0.38949    0.00107     0.39056
      H   29    0.09029      0.00000     0.40891    0.00080     0.40971
      H   30    0.10158      0.00000     0.39760    0.00082     0.39842
      H   31    0.09365      0.00000     0.40555    0.00080     0.40635
      H   32    0.08821      0.00000     0.41090    0.00089     0.41179
      H   33    0.11411      0.00000     0.38503    0.00086     0.38589
      H   34    0.10054      0.00000     0.39852    0.00093     0.39946
      H   35    0.09661      0.00000     0.40221    0.00118     0.40339
      H   36    0.09794      0.00000     0.40096    0.00110     0.40206
 =======================================================================
   * Total *    0.00064     18.99318    51.77400    0.23218    70.99936

 Normal termination of Gaussian 16 at Sat Dec 12 11:23:40 2020.
