 Gaussian 16, Revision A.03,

 -----------------------------------------------------------
 # opt freq B3LYP/6-31G(d) empiricaldispersion=gd3bj scf=xqc
 -----------------------------------------------------------

 ------------------------------
 CID_14200314_JID_5536_neutraal
 ------------------------------
 Symbolic Z-matrix:
 Charge =  0 Multiplicity = 1

 SCF Done:  E(RB3LYP) =  -768.100171276     A.U. after   14 cycles
 SCF Done:  E(RB3LYP) =  -768.107644310     A.U. after   13 cycles
 SCF Done:  E(RB3LYP) =  -768.108964860     A.U. after   11 cycles
 SCF Done:  E(RB3LYP) =  -768.108568748     A.U. after   12 cycles
 SCF Done:  E(RB3LYP) =  -768.109852427     A.U. after   12 cycles
 SCF Done:  E(RB3LYP) =  -768.109954454     A.U. after   12 cycles
 SCF Done:  E(RB3LYP) =  -768.110397924     A.U. after   11 cycles
 SCF Done:  E(RB3LYP) =  -768.110339030     A.U. after   12 cycles
 SCF Done:  E(RB3LYP) =  -768.110436708     A.U. after   11 cycles
 SCF Done:  E(RB3LYP) =  -768.110539174     A.U. after   11 cycles
 SCF Done:  E(RB3LYP) =  -768.110545253     A.U. after   10 cycles
 SCF Done:  E(RB3LYP) =  -768.110555571     A.U. after   10 cycles
 SCF Done:  E(RB3LYP) =  -768.110560023     A.U. after    9 cycles
 SCF Done:  E(RB3LYP) =  -768.110560299     A.U. after    7 cycles
 SCF Done:  E(RB3LYP) =  -768.110560363     A.U. after    7 cycles
 SCF Done:  E(RB3LYP) =  -768.110560370     A.U. after    6 cycles
 Optimization completed.
    -- Stationary point found.
 Normal termination of Gaussian 16 at Thu Dec 10 16:39:28 2020.

 --------------------------------------------------------------------
 #N Geom=AllCheck Guess=TCheck SCRF=Check GenChk RB3LYP/6-31G(d) Freq
 --------------------------------------------------------------------

 Structure from the checkpoint file:  "JID_5536.chk"
 ------------------------------
 CID_14200314_JID_5536_neutraal
 ------------------------------
 Charge =  0 Multiplicity = 1

 SCF Done:  E(RB3LYP) =  -768.110560370     A.U. after    1 cycles

  Exact polarizability: 146.359   0.002 113.257   2.625   0.014  97.961
 Approx polarizability: 174.364   0.014 166.782   2.128   0.023 145.522

                      1                      2                      3
                      A                      A                      A
 Frequencies --      8.6278                20.8435                28.2730
 Red. masses --      4.8295                 4.2171                 3.4112
 Frc consts  --      0.0002                 0.0011                 0.0016
 IR Inten    --      1.9488                 0.4287                 0.0799

                      4                      5                      6
                      A                      A                      A
 Frequencies --     49.2182                85.1604                87.0922
 Red. masses --      4.0857                 5.6965                 3.3636
 Frc consts  --      0.0058                 0.0243                 0.0150
 IR Inten    --      0.1364                 1.7255                 0.0213

                      7                      8                      9
                      A                      A                      A
 Frequencies --    117.7699               128.4983               142.7005
 Red. masses --      4.5400                 3.2772                 3.7346
 Frc consts  --      0.0371                 0.0319                 0.0448
 IR Inten    --      1.8782                 0.6736                 0.1591

                     10                     11                     12
                      A                      A                      A
 Frequencies --    164.1272               171.7267               216.2589
 Red. masses --      2.0983                 1.9976                 1.9287
 Frc consts  --      0.0333                 0.0347                 0.0531
 IR Inten    --      0.7637                 0.2711                 3.2960

                     13                     14                     15
                      A                      A                      A
 Frequencies --    239.6216               274.9349               277.7430
 Red. masses --      2.0120                 2.3683                 1.8077
 Frc consts  --      0.0681                 0.1055                 0.0822
 IR Inten    --      0.0560                 1.2106                 0.7866

                     16                     17                     18
                      A                      A                      A
 Frequencies --    322.7389               337.2778               365.2324
 Red. masses --      3.7750                 2.7772                 2.9704
 Frc consts  --      0.2317                 0.1861                 0.2335
 IR Inten    --      4.0219                21.7159                 0.0094

                     19                     20                     21
                      A                      A                      A
 Frequencies --    394.9987               409.3499               469.2697
 Red. masses --      2.0060                 2.0216                 3.3201
 Frc consts  --      0.1844                 0.1996                 0.4308
 IR Inten    --      2.6069                 0.0001                 5.7824

                     22                     23                     24
                      A                      A                      A
 Frequencies --    531.0661               556.6653               678.5186
 Red. masses --      2.3262                 3.7985                10.4261
 Frc consts  --      0.3865                 0.6935                 2.8281
 IR Inten    --      4.2892                21.9547                 3.3169

                     25                     26                     27
                      A                      A                      A
 Frequencies --    688.2277               753.2730               763.4721
 Red. masses --      4.4632                 4.0963                 1.2590
 Frc consts  --      1.2455                 1.3695                 0.4324
 IR Inten    --      5.1005                65.6284                 8.3536

                     28                     29                     30
                      A                      A                      A
 Frequencies --    777.9816               800.6420               818.8304
 Red. masses --      1.6581                 5.7167                 2.7118
 Frc consts  --      0.5913                 2.1591                 1.0713
 IR Inten    --      3.6173                 0.1276                 8.0741

                     31                     32                     33
                      A                      A                      A
 Frequencies --    821.7223               861.5462               878.4112
 Red. masses --      2.7455                 2.0326                 1.6150
 Frc consts  --      1.0923                 0.8889                 0.7342
 IR Inten    --      0.0347                21.7457                 2.0838

                     34                     35                     36
                      A                      A                      A
 Frequencies --    929.1623               947.6065               973.7418
 Red. masses --      2.0227                 3.7897                 2.1400
 Frc consts  --      1.0289                 2.0050                 1.1955
 IR Inten    --     57.9850                20.8198                 1.3270

                     37                     38                     39
                      A                      A                      A
 Frequencies --    984.6214               997.0974              1007.4752
 Red. masses --      2.3683                 2.4002                 1.4732
 Frc consts  --      1.3528                 1.4060                 0.8810
 IR Inten    --     49.2053                 9.3125                 0.3320

                     40                     41                     42
                      A                      A                      A
 Frequencies --   1032.8860              1082.1233              1091.6826
 Red. masses --      1.9752                 1.7969                 2.1606
 Frc consts  --      1.2416                 1.2397                 1.5171
 IR Inten    --      0.2723                39.8444                 3.0006

                     43                     44                     45
                      A                      A                      A
 Frequencies --   1129.4705              1149.4755              1154.9445
 Red. masses --      3.2212                 1.8310                 2.2415
 Frc consts  --      2.4211                 1.4254                 1.7616
 IR Inten    --     40.9595                 0.0005                35.1957

                     46                     47                     48
                      A                      A                      A
 Frequencies --   1170.0063              1176.0093              1204.7232
 Red. masses --      2.1177                 2.5662                 5.1969
 Frc consts  --      1.7080                 2.0910                 4.4440
 IR Inten    --      0.5332                19.3727              1906.9667

                     49                     50                     51
                      A                      A                      A
 Frequencies --   1276.4858              1278.5550              1293.2621
 Red. masses --      1.2893                 1.3094                 1.2644
 Frc consts  --      1.2377                 1.2611                 1.2459
 IR Inten    --      0.9023                23.8378                 5.4698

                     52                     53                     54
                      A                      A                      A
 Frequencies --   1302.4950              1341.3005              1346.1354
 Red. masses --      1.3105                 1.2835                 1.1134
 Frc consts  --      1.3100                 1.3605                 1.1887
 IR Inten    --     99.6497                 2.6128                13.3022

                     55                     56                     57
                      A                      A                      A
 Frequencies --   1358.9819              1391.2980              1396.2089
 Red. masses --      2.1202                 1.3745                 1.5541
 Frc consts  --      2.3070                 1.5676                 1.7850
 IR Inten    --      0.1087                13.4333                 4.4008

                     58                     59                     60
                      A                      A                      A
 Frequencies --   1414.0668              1415.6468              1432.1421
 Red. masses --      1.4740                 1.5071                 1.3180
 Frc consts  --      1.7365                 1.7795                 1.5927
 IR Inten    --     13.9148                 0.0596                12.7463

                     61                     62                     63
                      A                      A                      A
 Frequencies --   1437.5321              1447.0408              1447.0697
 Red. masses --      1.4822                 1.2664                 1.2655
 Frc consts  --      1.8047                 1.5624                 1.5613
 IR Inten    --      0.6785                14.6196                 1.2003

                     64                     65                     66
                      A                      A                      A
 Frequencies --   1502.6608              1502.7599              1522.3969
 Red. masses --      1.0882                 1.0894                 1.0873
 Frc consts  --      1.4477                 1.4495                 1.4848
 IR Inten    --      3.0975                 0.4113                22.6897

                     67                     68                     69
                      A                      A                      A
 Frequencies --   1523.2922              1524.6910              1525.5822
 Red. masses --      1.0829                 1.0457                 1.0568
 Frc consts  --      1.4805                 1.4323                 1.4491
 IR Inten    --      0.6732                 0.6669                 1.1958

                     70                     71                     72
                      A                      A                      A
 Frequencies --   1535.5650              1535.8945              1549.1987
 Red. masses --      1.0754                 1.0765                 1.0579
 Frc consts  --      1.4941                 1.4962                 1.4959
 IR Inten    --     19.8624                 0.2056                10.9337

                     73                     74                     75
                      A                      A                      A
 Frequencies --   1550.0509              1829.8636              1884.7937
 Red. masses --      1.0566                11.5620                11.7837
 Frc consts  --      1.4958                22.8097                24.6639
 IR Inten    --      0.6732               213.4349               333.6089

                     76                     77                     78
                      A                      A                      A
 Frequencies --   3036.3528              3036.3934              3046.3723
 Red. masses --      1.0631                 1.0631                 1.0512
 Frc consts  --      5.7746                 5.7747                 5.7476
 IR Inten    --     35.6449                 6.4336                12.7124

                     79                     80                     81
                      A                      A                      A
 Frequencies --   3046.4412              3047.0857              3047.1078
 Red. masses --      1.0525                 1.0530                 1.0545
 Frc consts  --      5.7550                 5.7603                 5.7685
 IR Inten    --     21.7276                13.8673                47.0262

                     82                     83                     84
                      A                      A                      A
 Frequencies --   3078.1396              3078.2309              3083.8413
 Red. masses --      1.0978                 1.0977                 1.0992
 Frc consts  --      6.1283                 6.1284                 6.1588
 IR Inten    --     50.9279                 1.1793                21.7083

                     85                     86                     87
                      A                      A                      A
 Frequencies --   3083.9238              3106.5011              3106.7570
 Red. masses --      1.0991                 1.0607                 1.0607
 Frc consts  --      6.1588                 6.0310                 6.0321
 IR Inten    --     38.9711                70.7822                 5.2141

                     88                     89                     90
                      A                      A                      A
 Frequencies --   3112.0095              3112.2814              3141.8903
 Red. masses --      1.0993                 1.0993                 1.1003
 Frc consts  --      6.2728                 6.2739                 6.3997
 IR Inten    --     76.4989                 4.0805                27.4286

                     91                     92                     93
                      A                      A                      A
 Frequencies --   3141.9339              3165.2188              3165.2615
 Red. masses --      1.1004                 1.1084                 1.1084
 Frc consts  --      6.4000                 6.5428                 6.5431
 IR Inten    --     17.7341                 5.7993                15.0151

 - Thermochemistry -
 -------------------
 Temperature   298.150 Kelvin.  Pressure   1.00000 Atm.
 Atom     1 has atomic number  6 and mass  12.00000

 Molecular mass:   218.11542 amu.
 Principal axes and moments of inertia in atomic units:
                           1         2         3
     Eigenvalues --  1638.702426271.523787034.40297
           X            0.99999   0.00000  -0.00493
           Y           -0.00000   1.00000   0.00006
           Z            0.00493  -0.00006   0.99999
 This molecule is an asymmetric top.
 Rotational symmetry number  1.
 Warning -- assumption of classical behavior for rotation
           may cause significant error
 Rotational temperatures (Kelvin)      0.05286     0.01381     0.01231
 Rotational constants (GHZ):           1.10132     0.28777     0.25656
 Zero-point vibrational energy     744517.2 (Joules/Mol)
                                  177.94389 (Kcal/Mol)
 Warning -- explicit consideration of  23 degrees of freedom as
           vibrations may cause significant error
 Vibrational temperatures:     12.41    29.99    40.68    70.81   122.53
          (Kelvin)            125.31   169.44   184.88   205.31   236.14
                              247.08   311.15   344.76   395.57   399.61
                              464.35   485.27   525.49   568.31   588.96
                              675.17   764.09   800.92   976.24   990.21
                             1083.79  1098.47  1119.34  1151.95  1178.11
                             1182.28  1239.57  1263.84  1336.86  1363.39
                             1401.00  1416.65  1434.60  1449.53  1486.09
                             1556.93  1570.69  1625.06  1653.84  1661.71
                             1683.38  1692.02  1733.33  1836.58  1839.56
                             1860.72  1874.00  1929.83  1936.79  1955.27
                             2001.77  2008.83  2034.53  2036.80  2060.53
                             2068.29  2081.97  2082.01  2161.99  2162.14
                             2190.39  2191.68  2193.69  2194.97  2209.34
                             2209.81  2228.95  2230.18  2632.77  2711.80
                             4368.63  4368.69  4383.05  4383.15  4384.08
                             4384.11  4428.76  4428.89  4436.96  4437.08
                             4469.56  4469.93  4477.49  4477.88  4520.48
                             4520.54  4554.04  4554.11

 Zero-point correction=                           0.283572 (Hartree/Particle)
 Thermal correction to Energy=                    0.300507
 Thermal correction to Enthalpy=                  0.301451
 Thermal correction to Gibbs Free Energy=         0.235054
 Sum of electronic and zero-point Energies=           -767.826989
 Sum of electronic and thermal Energies=              -767.810054
 Sum of electronic and thermal Enthalpies=            -767.809109
 Sum of electronic and thermal Free Energies=         -767.875507

                     E (Thermal)             CV                S
                      KCal/Mol        Cal/Mol-Kelvin    Cal/Mol-Kelvin
 Total                  188.571             59.794            139.745
 Electronic               0.000              0.000              0.000
 Translational            0.889              2.981             42.043
 Rotational               0.889              2.981             32.647
 Vibrational            186.793             53.832             65.056
 Vibration     1          0.593              1.987              8.304
 Vibration     2          0.593              1.986              6.552
 Vibration     3          0.593              1.984              5.947
 Vibration     4          0.595              1.978              4.849
 Vibration     5          0.601              1.959              3.768
 Vibration     6          0.601              1.958              3.724
 Vibration     7          0.608              1.935              3.137
 Vibration     8          0.611              1.925              2.968
 Vibration     9          0.616              1.911              2.767
 Vibration    10          0.623              1.887              2.502
 Vibration    11          0.626              1.877              2.417
 Vibration    12          0.645              1.816              1.990
 Vibration    13          0.657              1.780              1.806
 Vibration    14          0.677              1.720              1.565
 Vibration    15          0.679              1.715              1.548
 Vibration    16          0.708              1.630              1.296
 Vibration    17          0.718              1.601              1.225
 Vibration    18          0.738              1.544              1.100
 Vibration    19          0.762              1.481              0.981
 Vibration    20          0.774              1.450              0.929
 Vibration    21          0.826              1.318              0.740
 Vibration    22          0.886              1.181              0.585
 Vibration    23          0.912              1.125              0.531

                           ! Non-Optimized Parameters !
 Normal termination of Gaussian 16 at Thu Dec 10 16:50:35 2020.

 ----------------------------------------------------------------------
 # B3LYP/6-311++G(d,p) empiricaldispersion=gd3bj scf=xqc pop=npa geom=c
 heck
 ----------------------------------------------------------------------

 --------------------------------------
 CID_14200314_JID_5536_Energie_neutraal
 --------------------------------------
 Structure from the checkpoint file:  "JID_5536.chk"
 Charge =  0 Multiplicity = 1

 SCF Done:  E(RB3LYP) =  -768.337761936     A.U. after   13 cycles
 Normal termination of Gaussian 16 at Thu Dec 10 16:55:11 2020.

 ----------------------------------------------------------------------
 # B3LYP/6-311++G(d,p) empiricaldispersion=gd3bj scf=xqc pop=npa geom=c
 heck
 ----------------------------------------------------------------------

 ------------------------------------
 CID_14200314_JID_5536_Energie_kation
 ------------------------------------
 Structure from the checkpoint file:  "JID_5536.chk"
 Charge =  1 Multiplicity = 2

 SCF Done:  E(UB3LYP) =  -767.965322261     A.U. after   32 cycles
 Normal termination of Gaussian 16 at Thu Dec 10 17:11:24 2020.
 Gaussian 16:  ES64L-G16RevA.03 25-Dec-2016

 ----------------------------------------------------------------------
 # B3LYP/6-311++G(d,p) empiricaldispersion=gd3bj scf=xqc pop=npa geom=c
 heck
 ----------------------------------------------------------------------

 -----------------------------------
 CID_14200314_JID_5536_Energie_anion
 -----------------------------------
 Structure from the checkpoint file:  "JID_5536.chk"
 Charge = -1 Multiplicity = 2

                         Standard orientation:
 ---------------------------------------------------------------------
 Center     Atomic      Atomic             Coordinates (Angstroms)
 Number     Number       Type             X           Y           Z
 ---------------------------------------------------------------------
      1          6           0       -3.210482    2.239149    0.071217
      2          6           0       -3.355904    1.023925    0.991365
      3          6           0       -4.092799   -0.163281    0.352320
      4          6           0       -3.370460   -0.825911   -0.814407
      5          8           0       -2.147251   -1.454613   -0.341200
      6          6           0       -1.017074   -0.797351   -0.563039
      7          8           0       -0.847861    0.220121   -1.183230
      8          8           0       -0.000148   -1.534269    0.002084
      9          6           0        1.018398   -0.798154    0.565770
     10          8           0        0.850618    0.218100    1.188243
     11          8           0        2.148032   -1.454869    0.339751
     12          6           0        3.372442   -0.826679    0.810577
     13          6           0        4.091323   -0.161967   -0.357100
     14          6           0        3.352348    1.026126   -0.992108
     15          6           0        3.209227    2.239769   -0.069514
     16          1           0       -2.570229    2.015947   -0.786706
     17          1           0       -2.754368    3.077165    0.609020
     18          1           0       -4.187857    2.572628   -0.300415
     19          1           0       -2.364720    0.704048    1.337055
     20          1           0       -3.909518    1.313227    1.893617
     21          1           0       -4.288549   -0.931068    1.111025
     22          1           0       -5.072116    0.168459   -0.021053
     23          1           0       -3.960115   -1.646898   -1.228109
     24          1           0       -3.117800   -0.121856   -1.608652
     25          1           0        3.121845   -0.123992    1.606683
     26          1           0        3.963419   -1.648228    1.221263
     27          1           0        5.071614    0.169389    0.014055
     28          1           0        4.285112   -0.928460   -1.117615
     29          1           0        3.903386    1.317071   -1.895407
     30          1           0        2.360266    0.706631   -1.335557
     31          1           0        4.187559    2.572882    0.299924
     32          1           0        2.751381    3.078562   -0.604628
     33          1           0        2.571447    2.014981    0.789839
 ---------------------------------------------------------------------

 SCF Done:  E(UB3LYP) =  -768.323987706     A.U. after   32 cycles

 The electronic state is 2-A.
 Alpha  occ. eigenvalues --  -19.10773 -19.09795 -19.09792 -19.04023 -19.04018
 Alpha  occ. eigenvalues --  -10.27710 -10.27709 -10.14464 -10.14463 -10.08394
 Alpha  occ. eigenvalues --  -10.08394 -10.07754 -10.07751 -10.06381 -10.06380
 Alpha  occ. eigenvalues --   -1.09275  -1.04416  -0.98136  -0.95836  -0.95446
 Alpha  occ. eigenvalues --   -0.72393  -0.71518  -0.67133  -0.64970  -0.60762
 Alpha  occ. eigenvalues --   -0.57437  -0.54790  -0.50594  -0.49083  -0.47338
 Alpha  occ. eigenvalues --   -0.47134  -0.44416  -0.42361  -0.40961  -0.40915
 Alpha  occ. eigenvalues --   -0.39082  -0.38187  -0.36797  -0.35818  -0.34538
 Alpha  occ. eigenvalues --   -0.33940  -0.33161  -0.32034  -0.31157  -0.30537
 Alpha  occ. eigenvalues --   -0.30223  -0.28733  -0.28729  -0.26732  -0.25503
 Alpha  occ. eigenvalues --   -0.24977  -0.24941  -0.24612  -0.24292  -0.24269
 Alpha  occ. eigenvalues --   -0.23048  -0.22758  -0.22161  -0.21926   0.04072
 Alpha virt. eigenvalues --    0.05185   0.07131   0.07328   0.07515   0.08102
 Alpha virt. eigenvalues --    0.08241   0.08496   0.09604   0.10038   0.10621
 Alpha virt. eigenvalues --    0.10879   0.10880   0.11452   0.11485   0.12157

  Beta  occ. eigenvalues --  -19.10771 -19.09794 -19.09790 -19.04009 -19.04005
  Beta  occ. eigenvalues --  -10.27689 -10.27688 -10.14442 -10.14441 -10.08366
  Beta  occ. eigenvalues --  -10.08365 -10.07746 -10.07744 -10.06364 -10.06363
  Beta  occ. eigenvalues --   -1.09254  -1.04397  -0.98130  -0.95816  -0.95426
  Beta  occ. eigenvalues --   -0.72353  -0.71480  -0.67103  -0.64937  -0.60716
  Beta  occ. eigenvalues --   -0.57390  -0.54741  -0.50554  -0.49041  -0.47292
  Beta  occ. eigenvalues --   -0.47099  -0.44384  -0.42311  -0.40906  -0.40880
  Beta  occ. eigenvalues --   -0.39041  -0.38136  -0.36775  -0.35792  -0.34499
  Beta  occ. eigenvalues --   -0.33915  -0.33138  -0.32007  -0.31107  -0.30489
  Beta  occ. eigenvalues --   -0.30177  -0.28715  -0.28710  -0.26713  -0.25476
  Beta  occ. eigenvalues --   -0.24944  -0.24917  -0.24571  -0.24260  -0.24238
  Beta  occ. eigenvalues --   -0.23016  -0.22729  -0.22145  -0.21911
  Beta virt. eigenvalues --    0.06240   0.06586   0.07674   0.07772   0.07917
  Beta virt. eigenvalues --    0.08459   0.08519   0.09009   0.10125   0.10319
  Beta virt. eigenvalues --    0.10909   0.11022   0.11204   0.11649   0.11676

 Mulliken charges and spin densities:
               1          2
     1  C    0.248159  -0.838579
     2  C   -0.734136   0.705249
     3  C    0.901566  -1.262943
     4  C    0.149854  -0.332691
     5  O   -0.044512   0.027757
     6  C    0.178168  -0.193242
     7  O   -0.201047   0.008979
     8  O   -0.138101   0.014872
     9  C    0.180014  -0.194789
    10  O   -0.201145   0.009045
    11  O   -0.043849   0.027832
    12  C    0.149594  -0.332675
    13  C    0.901702  -1.262858
    14  C   -0.734187   0.705076
    15  C    0.247533  -0.838226
    16  H    0.109457   0.052108
    17  H    0.091011   0.035854
    18  H   -0.151203   0.281090
    19  H    0.117483   0.038767
    20  H   -0.148005   0.315235
    21  H   -0.020507   0.193187
    22  H   -0.498893   0.650177
    23  H   -0.651492   0.862101
    24  H    0.222060  -0.049721
    25  H    0.222372  -0.050003
    26  H   -0.652160   0.862800
    27  H   -0.498992   0.650274
    28  H   -0.020486   0.193179
    29  H   -0.147669   0.314877
    30  H    0.117904   0.038432
    31  H   -0.151127   0.281016
    32  H    0.091315   0.035582
    33  H    0.109320   0.052236
 Sum of Mulliken charges =  -1.00000   1.00000

 Dipole moment (field-independent basis, Debye):
    X=             -0.0003    Y=              0.4696    Z=              0.0080  Tot=              0.4696
 Quadrupole moment (field-independent basis, Debye-Ang):
   XX=           -219.5473   YY=           -131.5008   ZZ=           -118.2125
   XY=              0.0138   XZ=             -3.8908   YZ=             -0.0130

 Summary of Natural Population Analysis:

                                       Natural Population
                Natural  -----------------------------------------------
    Atom  No    Charge         Core      Valence    Rydberg      Total
 -----------------------------------------------------------------------
      C    1   -0.29120      0.99966     2.28636    0.00518     3.29120
      C    2   -0.19548      0.99964     2.18725    0.00860     3.19548
      C    3   -0.20187      0.99962     2.19289    0.00935     3.20187
      C    4   -0.01499      0.99955     2.00359    0.01185     3.01499
      O    5   -0.27039      0.99985     3.26221    0.00833     4.27039
      C    6    0.52117      0.99972     1.45171    0.02739     2.47883
      O    7   -0.30265      0.99986     3.29788    0.00491     4.30265
      O    8   -0.28208      0.99983     3.27457    0.00768     4.28208
      C    9    0.52120      0.99972     1.45168    0.02740     2.47880
      O   10   -0.30253      0.99986     3.29776    0.00491     4.30253
      O   11   -0.27037      0.99985     3.26219    0.00833     4.27037
      C   12   -0.01499      0.99955     2.00360    0.01185     3.01499
      C   13   -0.20187      0.99962     2.19289    0.00935     3.20187
      C   14   -0.19551      0.99964     2.18727    0.00860     3.19551
      C   15   -0.29120      0.99966     2.28636    0.00518     3.29120
      H   16    0.10579      0.00000     0.39320    0.00101     0.39421
      H   17    0.09899      0.00000     0.40031    0.00069     0.40101
      H   18    0.09400      0.00000     0.40503    0.00097     0.40600
      H   19    0.09905      0.00000     0.39964    0.00131     0.40095
      H   20    0.09691      0.00000     0.40210    0.00099     0.40309
      H   21    0.10175      0.00000     0.39698    0.00128     0.39825
      H   22    0.10441      0.00000     0.39257    0.00302     0.39559
      H   23    0.09704      0.00000     0.40105    0.00191     0.40296
      H   24    0.09841      0.00000     0.40029    0.00130     0.40159
      H   25    0.09840      0.00000     0.40029    0.00130     0.40160
      H   26    0.09705      0.00000     0.40104    0.00191     0.40295
      H   27    0.10441      0.00000     0.39257    0.00302     0.39559
      H   28    0.10175      0.00000     0.39698    0.00128     0.39825
      H   29    0.09690      0.00000     0.40210    0.00099     0.40310
      H   30    0.09909      0.00000     0.39960    0.00131     0.40091
      H   31    0.09400      0.00000     0.40504    0.00097     0.40600
      H   32    0.09900      0.00000     0.40031    0.00069     0.40100
      H   33    0.10579      0.00000     0.39320    0.00101     0.39421
 =======================================================================
   * Total *   -0.00000     14.99562    43.82053    0.18386    59.00000

 Normal termination of Gaussian 16 at Thu Dec 10 17:24:42 2020.
