 Gaussian 16, Revision A.03,

 -----------------------------------------------------------
 # opt freq B3LYP/6-31G(d) empiricaldispersion=gd3bj scf=xqc
 -----------------------------------------------------------

 ------------------------------
 CID_62785542_JID_2453_neutraal
 ------------------------------
 Symbolic Z-matrix:
 Charge =  0 Multiplicity = 1

 SCF Done:  E(RB3LYP) =  -889.932349165     A.U. after   15 cycles
 SCF Done:  E(RB3LYP) =  -889.939776273     A.U. after   13 cycles
 SCF Done:  E(RB3LYP) =  -889.941345558     A.U. after   12 cycles
 SCF Done:  E(RB3LYP) =  -889.942153803     A.U. after   12 cycles
 SCF Done:  E(RB3LYP) =  -889.942321145     A.U. after   12 cycles
 SCF Done:  E(RB3LYP) =  -889.942352010     A.U. after   10 cycles
 SCF Done:  E(RB3LYP) =  -889.942360405     A.U. after   10 cycles
 SCF Done:  E(RB3LYP) =  -889.942365181     A.U. after   10 cycles
 SCF Done:  E(RB3LYP) =  -889.942366238     A.U. after    8 cycles
 SCF Done:  E(RB3LYP) =  -889.942366350     A.U. after    7 cycles
 Optimization completed.
    -- Stationary point found.
 Normal termination of Gaussian 16 at Wed Dec  9 17:25:35 2020.

 --------------------------------------------------------------------
 #N Geom=AllCheck Guess=TCheck SCRF=Check GenChk RB3LYP/6-31G(d) Freq
 --------------------------------------------------------------------

 Structure from the checkpoint file:  "JID_2453.chk"
 ------------------------------
 CID_62785542_JID_2453_neutraal
 ------------------------------
 Charge =  0 Multiplicity = 1

 SCF Done:  E(RB3LYP) =  -889.942366350     A.U. after    1 cycles

  Exact polarizability: 162.570   5.181 113.040  -1.767  -0.283  65.755
 Approx polarizability: 226.539   8.544 200.840  -4.901  -2.293 105.308

                      1                      2                      3
                      A                      A                      A
 Frequencies --     58.9037               105.1067               116.1066
 Red. masses --      4.6939                 3.8923                 2.9255
 Frc consts  --      0.0096                 0.0253                 0.0232
 IR Inten    --      1.4034                 3.8749                 2.8008

                      4                      5                      6
                      A                      A                      A
 Frequencies --    178.0718               194.5702               236.6558
 Red. masses --      2.7876                 1.5527                 2.8325
 Frc consts  --      0.0521                 0.0346                 0.0935
 IR Inten    --      9.9035                14.9298                 5.9561

                      7                      8                      9
                      A                      A                      A
 Frequencies --    257.0315               307.3285               329.2272
 Red. masses --      2.3950                 3.9065                 4.1116
 Frc consts  --      0.0932                 0.2174                 0.2626
 IR Inten    --      1.8261                 6.5019                 6.6202

                     10                     11                     12
                      A                      A                      A
 Frequencies --    356.4814               425.0319               445.3340
 Red. masses --      3.9253                 4.3838                 4.7299
 Frc consts  --      0.2939                 0.4666                 0.5527
 IR Inten    --      1.8407                10.0695                 2.5670

                     13                     14                     15
                      A                      A                      A
 Frequencies --    473.4604               517.2516               603.3576
 Red. masses --      3.0170                 1.9123                 3.7231
 Frc consts  --      0.3985                 0.3014                 0.7986
 IR Inten    --     43.4717               184.1379                13.1750

                     16                     17                     18
                      A                      A                      A
 Frequencies --    633.8607               645.6746               682.5042
 Red. masses --      4.8565                 3.7583                 3.8602
 Frc consts  --      1.1496                 0.9231                 1.0594
 IR Inten    --     13.7242                21.9880                 9.5122

                     19                     20                     21
                      A                      A                      A
 Frequencies --    731.5154               758.9680               770.5860
 Red. masses --      5.7629                 4.3126                 4.2202
 Frc consts  --      1.8169                 1.4637                 1.4765
 IR Inten    --      1.1861                 0.8409                 3.6085

                     22                     23                     24
                      A                      A                      A
 Frequencies --    811.4719               856.1842               886.0957
 Red. masses --      3.8922                 1.5551                 1.8036
 Frc consts  --      1.5101                 0.6717                 0.8344
 IR Inten    --     21.8792                 9.5174                 1.2053

                     25                     26                     27
                      A                      A                      A
 Frequencies --    929.8952               967.6408               997.8607
 Red. masses --      1.8231                 3.4380                 1.9812
 Frc consts  --      0.9288                 1.8966                 1.1623
 IR Inten    --     17.7063                36.7498                 1.6580

                     28                     29                     30
                      A                      A                      A
 Frequencies --   1029.5010              1038.7042              1164.1658
 Red. masses --      2.6536                 2.1781                 2.2509
 Frc consts  --      1.6570                 1.3846                 1.7974
 IR Inten    --     54.9917                 3.9085                 2.8464

                     31                     32                     33
                      A                      A                      A
 Frequencies --   1177.4116              1200.1291              1219.8639
 Red. masses --      1.2188                 3.8650                 1.2672
 Frc consts  --      0.9955                 3.2798                 1.1110
 IR Inten    --      1.4718                65.9228                 3.4718

                     34                     35                     36
                      A                      A                      A
 Frequencies --   1230.4193              1240.9727              1258.5619
 Red. masses --      1.3562                 2.2924                 1.7359
 Frc consts  --      1.2097                 2.0800                 1.6200
 IR Inten    --      2.6279                21.2906                54.0824

                     37                     38                     39
                      A                      A                      A
 Frequencies --   1293.3484              1320.4417              1341.8359
 Red. masses --      1.8192                 2.2835                 1.2793
 Frc consts  --      1.7930                 2.3458                 1.3571
 IR Inten    --      1.3024                 4.9979                10.5443

                     40                     41                     42
                      A                      A                      A
 Frequencies --   1373.0375              1389.9885              1403.5004
 Red. masses --      1.2782                 1.7904                 2.2372
 Frc consts  --      1.4197                 2.0380                 2.5964
 IR Inten    --      2.1974                37.5987                 9.2661

                     43                     44                     45
                      A                      A                      A
 Frequencies --   1474.0232              1489.7166              1493.6952
 Red. masses --      1.7719                 1.6077                 1.2332
 Frc consts  --      2.2683                 2.1022                 1.6211
 IR Inten    --     78.0095                94.0903                35.5733

                     46                     47                     48
                      A                      A                      A
 Frequencies --   1502.8332              1511.4053              1590.7101
 Red. masses --      1.1470                 1.6463                 4.3181
 Frc consts  --      1.5263                 2.2158                 6.4376
 IR Inten    --      1.6939                42.5675                 7.3784

                     49                     50                     51
                      A                      A                      A
 Frequencies --   1652.5379              1749.9176              3044.0942
 Red. masses --      6.6550                 1.0612                 1.0668
 Frc consts  --     10.7078                 1.9145                 5.8245
 IR Inten    --    144.1406                31.5549                16.8215

                     52                     53                     54
                      A                      A                      A
 Frequencies --   3051.7055              3061.8054              3093.7949
 Red. masses --      1.0633                 1.0652                 1.0993
 Frc consts  --      5.8341                 5.8834                 6.1993
 IR Inten    --     14.9577                19.9577                16.9326

                     55                     56                     57
                      A                      A                      A
 Frequencies --   3114.6704              3130.7220              3174.0461
 Red. masses --      1.0968                 1.1014                 1.0911
 Frc consts  --      6.2692                 6.3606                 6.4765
 IR Inten    --      5.9507                12.5402                12.7962

                     58                     59                     60
                      A                      A                      A
 Frequencies --   3425.7174              3506.5483              3593.1160
 Red. masses --      1.0507                 1.0906                 1.0772
 Frc consts  --      7.2647                 7.9009                 8.1936
 IR Inten    --      4.9448                 0.9819                30.7984

 - Thermochemistry -
 -------------------
 Temperature   298.150 Kelvin.  Pressure   1.00000 Atm.
 Atom     1 has atomic number  6 and mass  12.00000

 Molecular mass:   182.06262 amu.
 Principal axes and moments of inertia in atomic units:
                           1         2         3
     Eigenvalues --   785.291154020.326994683.43644
           X            0.99990   0.01279   0.00658
           Y           -0.01274   0.99989  -0.00815
           Z           -0.00668   0.00807   0.99995
 This molecule is an asymmetric top.
 Rotational symmetry number  1.
 Warning -- assumption of classical behavior for rotation
           may cause significant error
 Rotational temperatures (Kelvin)      0.11030     0.02154     0.01849
 Rotational constants (GHZ):           2.29818     0.44890     0.38535
 Zero-point vibrational energy     464265.4 (Joules/Mol)
                                  110.96210 (Kcal/Mol)
 Warning -- explicit consideration of  15 degrees of freedom as
           vibrations may cause significant error
 Vibrational temperatures:     84.75   151.23   167.05   256.21   279.94
          (Kelvin)            340.49   369.81   442.18   473.68   512.90
                              611.53   640.74   681.20   744.21   868.10
                              911.98   928.98   981.97  1052.49  1091.99
                             1108.70  1167.53  1231.86  1274.89  1337.91
                             1392.22  1435.70  1481.22  1494.46  1674.97
                             1694.03  1726.72  1755.11  1770.30  1785.48
                             1810.79  1860.84  1899.82  1930.60  1975.49
                             1999.88  2019.32  2120.79  2143.37  2149.09
                             2162.24  2174.58  2288.68  2377.63  2517.74
                             4379.77  4390.72  4405.26  4451.28  4481.32
                             4504.41  4566.74  4928.84  5045.14  5169.69

 Zero-point correction=                           0.176829 (Hartree/Particle)
 Thermal correction to Energy=                    0.187637
 Thermal correction to Enthalpy=                  0.188582
 Thermal correction to Gibbs Free Energy=         0.140015
 Sum of electronic and zero-point Energies=           -889.765537
 Sum of electronic and thermal Energies=              -889.754729
 Sum of electronic and thermal Enthalpies=            -889.753785
 Sum of electronic and thermal Free Energies=         -889.802351

                     E (Thermal)             CV                S
                      KCal/Mol        Cal/Mol-Kelvin    Cal/Mol-Kelvin
 Total                  117.744             41.485            102.217
 Electronic               0.000              0.000              0.000
 Translational            0.889              2.981             41.504
 Rotational               0.889              2.981             31.070
 Vibrational            115.967             35.523             29.643
 Vibration     1          0.596              1.974              4.494
 Vibration     2          0.605              1.945              3.357
 Vibration     3          0.608              1.936              3.164
 Vibration     4          0.629              1.869              2.349
 Vibration     5          0.635              1.847              2.184
 Vibration     6          0.656              1.785              1.828
 Vibration     7          0.667              1.751              1.682
 Vibration     8          0.697              1.660              1.377
 Vibration     9          0.712              1.617              1.264
 Vibration    10          0.732              1.562              1.137
 Vibration    11          0.787              1.416              0.875
 Vibration    12          0.805              1.371              0.810
 Vibration    13          0.830              1.309              0.728
 Vibration    14          0.872              1.212              0.616
 Vibration    15          0.962              1.025              0.444

 Optimization completed.
    -- Stationary point found.
 Normal termination of Gaussian 16 at Wed Dec  9 17:30:28 2020.

 ----------------------------------------------------------------------
 # B3LYP/6-311++G(d,p) empiricaldispersion=gd3bj scf=xqc pop=npa geom=c
 heck
 ----------------------------------------------------------------------

 --------------------------------------
 CID_62785542_JID_2453_Energie_neutraal
 --------------------------------------
 Structure from the checkpoint file:  "JID_2453.chk"
 Charge =  0 Multiplicity = 1

 SCF Done:  E(RB3LYP) =  -890.107456386     A.U. after   15 cycles
 Normal termination of Gaussian 16 at Wed Dec  9 17:32:14 2020.

 ----------------------------------------------------------------------
 # B3LYP/6-311++G(d,p) empiricaldispersion=gd3bj scf=xqc pop=npa geom=c
 heck
 ----------------------------------------------------------------------

 ------------------------------------
 CID_62785542_JID_2453_Energie_kation
 ------------------------------------
 Structure from the checkpoint file:  "JID_2453.chk"
 Charge =  1 Multiplicity = 2

 SCF Done:  E(UB3LYP) =  -889.810060068     A.U. after   29 cycles
 Normal termination of Gaussian 16 at Wed Dec  9 17:36:50 2020.
 Gaussian 16:  ES64L-G16RevA.03 25-Dec-2016

 ----------------------------------------------------------------------
 # B3LYP/6-311++G(d,p) empiricaldispersion=gd3bj scf=xqc pop=npa geom=c
 heck
 ----------------------------------------------------------------------

 -----------------------------------
 CID_62785542_JID_2453_Energie_anion
 -----------------------------------
 Structure from the checkpoint file:  "JID_2453.chk"
 Charge = -1 Multiplicity = 2

                         Standard orientation:
 ---------------------------------------------------------------------
 Center     Atomic      Atomic             Coordinates (Angstroms)
 Number     Number       Type             X           Y           Z
 ---------------------------------------------------------------------
      1          6           0        1.684980    1.623320   -0.061579
      2          6           0        2.923843    0.873106    0.419125
      3         16           0        3.083812   -0.748877   -0.419638
      4          6           0        1.551086   -1.452652    0.284356
      5          6           0        0.329894   -0.573683    0.132806
      6          6           0       -0.925550   -1.142611    0.142229
      7          6           0       -2.044456   -0.290792    0.064548
      8          7           0       -1.924211    1.040822   -0.019789
      9          7           0       -0.709257    1.587083   -0.035407
     10          6           0        0.391534    0.839388    0.031854
     11          7           0       -3.328714   -0.801986    0.104610
     12          7           0       -4.433883    0.015477   -0.231990
     13          1           0        1.559718    2.550814    0.508976
     14          1           0        1.834574    1.918306   -1.107790
     15          1           0        2.898903    0.706148    1.502358
     16          1           0        3.832000    1.436650    0.189950
     17          1           0        1.386647   -2.414949   -0.209126
     18          1           0        1.718229   -1.661261    1.349008
     19          1           0       -1.055001   -2.220072    0.219674
     20          1           0       -3.439273   -1.746816   -0.239255
     21          1           0       -4.663724    0.553071    0.603815
     22          1           0       -4.108597    0.713919   -0.905418
 ---------------------------------------------------------------------

 SCF Done:  E(UB3LYP) =  -890.108031066     A.U. after   33 cycles
 SCF Done:  E(UB3LYP) =  -890.108031066     a.u. after    1 cycles

 The electronic state is 2-A.
 Alpha  occ. eigenvalues --  -88.71727 -14.21466 -14.20732 -14.15248 -14.15025
 Alpha  occ. eigenvalues --  -10.08462 -10.08142 -10.07482 -10.04692 -10.04530
 Alpha  occ. eigenvalues --  -10.02634 -10.01024  -7.80352  -5.76723  -5.76412
 Alpha  occ. eigenvalues --   -5.75725  -0.86917  -0.82887  -0.71309  -0.69173
 Alpha  occ. eigenvalues --   -0.64757  -0.64014  -0.59769  -0.53375  -0.49755
 Alpha  occ. eigenvalues --   -0.47652  -0.44256  -0.38857  -0.37875  -0.37541
 Alpha  occ. eigenvalues --   -0.34928  -0.33007  -0.31893  -0.31229  -0.28068
 Alpha  occ. eigenvalues --   -0.27555  -0.27381  -0.25756  -0.24498  -0.21444
 Alpha  occ. eigenvalues --   -0.19572  -0.17920  -0.15728  -0.15077  -0.13345
 Alpha  occ. eigenvalues --   -0.10602  -0.08041  -0.06685   0.05596
 Alpha virt. eigenvalues --    0.08341   0.08815   0.09847   0.10535   0.10915
 Alpha virt. eigenvalues --    0.11699   0.12303   0.12758   0.13479   0.13650
 Alpha virt. eigenvalues --    0.15051   0.15305   0.16104   0.17003   0.17284

  Beta  occ. eigenvalues --  -88.71722 -14.21470 -14.20731 -14.14881 -14.14470
  Beta  occ. eigenvalues --  -10.08551 -10.08134 -10.07503 -10.04797 -10.04522
  Beta  occ. eigenvalues --  -10.02313 -10.00688  -7.80348  -5.76708  -5.76410
  Beta  occ. eigenvalues --   -5.75722  -0.86759  -0.82252  -0.71116  -0.68921
  Beta  occ. eigenvalues --   -0.64371  -0.63805  -0.59443  -0.53036  -0.49667
  Beta  occ. eigenvalues --   -0.47065  -0.44119  -0.38698  -0.37753  -0.37491
  Beta  occ. eigenvalues --   -0.34798  -0.32814  -0.31779  -0.30915  -0.27849
  Beta  occ. eigenvalues --   -0.27191  -0.26997  -0.25517  -0.23918  -0.21311
  Beta  occ. eigenvalues --   -0.19443  -0.17109  -0.15583  -0.14625  -0.11073
  Beta  occ. eigenvalues --   -0.10533  -0.06991  -0.06031
  Beta virt. eigenvalues --    0.08345   0.08842   0.09830   0.10263   0.10912
  Beta virt. eigenvalues --    0.11637   0.12271   0.12442   0.13156   0.13441
  Beta virt. eigenvalues --    0.13770   0.15149   0.15395   0.16118   0.16972

 Mulliken charges and spin densities:
               1          2
     1  C   -0.237831   0.136049
     2  C   -0.260952  -0.182592
     3  S   -0.007993   0.064044
     4  C   -0.636073  -0.236961
     5  C    0.980322   0.331693
     6  C    0.181590   0.439310
     7  C   -0.128463  -0.209129
     8  N   -0.265711   0.143095
     9  N   -0.093716   0.273486
    10  C   -1.277452  -0.331076
    11  N   -0.102561  -0.015581
    12  N   -0.353042   0.009353
    13  H    0.099726   0.041181
    14  H    0.125429  -0.011834
    15  H    0.081574   0.068499
    16  H    0.092963   0.109585
    17  H    0.062170   0.077754
    18  H   -0.001324   0.220514
    19  H    0.084455  -0.002551
    20  H    0.182766   0.074215
    21  H    0.248049  -0.003208
    22  H    0.226074   0.004154
 Sum of Mulliken charges =  -1.00000   1.00000

 Dipole moment (field-independent basis, Debye):
    X=              1.6855    Y=             -0.8934    Z=              0.2864  Tot=              1.9290
 Quadrupole moment (field-independent basis, Debye-Ang):
   XX=           -121.2673   YY=            -97.5727   ZZ=            -90.8235
   XY=              5.9003   XZ=             -1.6990   YZ=             -0.4058

 Summary of Natural Population Analysis:

                                       Natural Population
                Natural  -----------------------------------------------
    Atom  No    Charge         Core      Valence    Rydberg      Total
 -----------------------------------------------------------------------
      C    1   -0.20433      0.99959     2.19125    0.01348     3.20433
      C    2   -0.24891      0.99960     2.23712    0.01219     3.24891
      S    3    0.07664      4.99964     2.90449    0.01923     7.92336
      C    4   -0.25084      0.99955     2.24032    0.01097     3.25084
      C    5    0.02434      0.99946     1.96605    0.01015     2.97566
      C    6   -0.06697      0.99946     2.05666    0.01085     3.06697
      C    7    0.15607      0.99954     1.82488    0.01951     2.84393
      N    8   -0.13035      0.99967     2.61684    0.01384     3.63035
      N    9   -0.05974      0.99967     2.54463    0.01544     3.55974
      C   10    0.04961      0.99949     1.93342    0.01747     2.95039
      N   11   -0.23851      0.99966     2.72343    0.01542     3.73851
      N   12   -0.32560      0.99978     2.81491    0.01090     3.82560
      H   13    0.10456      0.00000     0.39304    0.00240     0.39544
      H   14    0.09949      0.00000     0.39916    0.00135     0.40051
      H   15    0.09730      0.00000     0.40095    0.00176     0.40270
      H   16    0.09996      0.00000     0.39907    0.00096     0.40004
      H   17    0.10675      0.00000     0.39219    0.00105     0.39325
      H   18    0.10248      0.00000     0.39513    0.00238     0.39752
      H   19    0.08845      0.00000     0.40998    0.00158     0.41155
      H   20    0.17571      0.00000     0.32077    0.00352     0.32429
      H   21    0.16929      0.00000     0.32897    0.00173     0.33071
      H   22    0.17458      0.00000     0.32239    0.00303     0.32542
 =======================================================================
   * Total *   -0.00000     15.99512    31.81566    0.18921    48.00000

 Normal termination of Gaussian 16 at Wed Dec  9 17:43:00 2020.
