 Gaussian 16, Revision A.03,

 -----------------------------------------------------------
 # opt freq B3LYP/6-31G(d) empiricaldispersion=gd3bj scf=xqc
 -----------------------------------------------------------

 -------------------------------
 CID_128168273_JID_9748_neutraal
 -------------------------------
 Symbolic Z-matrix:
 Charge =  0 Multiplicity = 1

 SCF Done:  E(RB3LYP) =  -1276.67518596     A.U. after   15 cycles
 SCF Done:  E(RB3LYP) =  -1276.68564260     A.U. after   12 cycles
 SCF Done:  E(RB3LYP) =  -1276.68565184     A.U. after   13 cycles
 SCF Done:  E(RB3LYP) =  -1276.68892712     A.U. after   13 cycles
 SCF Done:  E(RB3LYP) =  -1276.69030136     A.U. after   13 cycles
 SCF Done:  E(RB3LYP) =  -1276.69261969     A.U. after   13 cycles
 SCF Done:  E(RB3LYP) =  -1276.69542589     A.U. after   14 cycles
 SCF Done:  E(RB3LYP) =  -1276.69783439     A.U. after   13 cycles
 SCF Done:  E(RB3LYP) =  -1276.70033307     A.U. after   13 cycles
 SCF Done:  E(RB3LYP) =  -1276.70165568     A.U. after   12 cycles
 SCF Done:  E(RB3LYP) =  -1276.71912986     A.U. after   11 cycles
 SCF Done:  E(RB3LYP) =  -1276.71913450     A.U. after   10 cycles
 SCF Done:  E(RB3LYP) =  -1276.71913838     A.U. after   10 cycles
 SCF Done:  E(RB3LYP) =  -1276.71913970     A.U. after    8 cycles
 SCF Done:  E(RB3LYP) =  -1276.71914022     A.U. after    8 cycles
 Optimization completed.
    -- Stationary point found.
 Normal termination of Gaussian 16 at Mon Dec 14 18:08:36 2020.

 --------------------------------------------------------------------
 #N Geom=AllCheck Guess=TCheck SCRF=Check GenChk RB3LYP/6-31G(d) Freq
 --------------------------------------------------------------------

 Structure from the checkpoint file:  "JID_9748.chk"
 -------------------------------
 CID_128168273_JID_9748_neutraal
 -------------------------------
 Charge =  0 Multiplicity = 1

 SCF Done:  E(RB3LYP) =  -1276.71914022     A.U. after    1 cycles

  Exact polarizability: 196.558   4.064 153.166   2.848  -6.326 128.094
 Approx polarizability: 242.857   6.946 258.265   5.954 -17.754 199.941

                      1                      2                      3
                      A                      A                      A
 Frequencies --     18.1994                34.0683                51.0896
 Red. masses --      3.4626                 3.9785                 5.0820
 Frc consts  --      0.0007                 0.0027                 0.0078
 IR Inten    --      0.3672                 0.4407                 0.1497

                      4                      5                      6
                      A                      A                      A
 Frequencies --     66.6020                80.4500               112.7080
 Red. masses --      5.0905                 5.6015                 5.3951
 Frc consts  --      0.0133                 0.0214                 0.0404
 IR Inten    --      1.5235                 5.7868                 5.0315

                      7                      8                      9
                      A                      A                      A
 Frequencies --    120.2178               148.1706               172.7396
 Red. masses --      4.0779                 3.6985                 4.2244
 Frc consts  --      0.0347                 0.0478                 0.0743
 IR Inten    --      5.3890                 1.0967                 1.3769

                     10                     11                     12
                      A                      A                      A
 Frequencies --    177.8406               192.5182               215.4325
 Red. masses --      4.3635                 3.0296                 3.7959
 Frc consts  --      0.0813                 0.0662                 0.1038
 IR Inten    --      2.6389                 2.2743                 3.9021

                     13                     14                     15
                      A                      A                      A
 Frequencies --    240.0009               270.0803               284.8186
 Red. masses --      3.5450                 3.3639                 4.9378
 Frc consts  --      0.1203                 0.1446                 0.2360
 IR Inten    --      3.9771                 2.7068                 8.5173

                     16                     17                     18
                      A                      A                      A
 Frequencies --    309.5632               334.4148               349.9514
 Red. masses --      7.5930                 2.7013                 2.5614
 Frc consts  --      0.4287                 0.1780                 0.1848
 IR Inten    --     24.8280                 0.7070                 8.8581

                     19                     20                     21
                      A                      A                      A
 Frequencies --    368.8654               408.5797               415.7054
 Red. masses --      6.3316                 3.8902                 2.7197
 Frc consts  --      0.5076                 0.3826                 0.2769
 IR Inten    --      5.5952                18.4017                 1.0877

                     22                     23                     24
                      A                      A                      A
 Frequencies --    443.3486               472.6988               483.5858
 Red. masses --      5.8283                 5.5985                 3.8190
 Frc consts  --      0.6750                 0.7370                 0.5262
 IR Inten    --      7.9057                16.7628                14.6406

                     25                     26                     27
                      A                      A                      A
 Frequencies --    545.3700               576.2049               591.7212
 Red. masses --      2.6596                 3.6086                 3.4447
 Frc consts  --      0.4661                 0.7059                 0.7106
 IR Inten    --      6.1880                13.4587                 8.1564

                     28                     29                     30
                      A                      A                      A
 Frequencies --    623.3178               637.0042               695.6010
 Red. masses --      4.5694                 3.8250                 3.4217
 Frc consts  --      1.0460                 0.9145                 0.9755
 IR Inten    --      3.0469                 8.4610                 7.5736

                     31                     32                     33
                      A                      A                      A
 Frequencies --    733.0202               768.3278               795.3539
 Red. masses --      4.5852                 1.6704                 1.7383
 Frc consts  --      1.4516                 0.5810                 0.6479
 IR Inten    --     16.4527                 5.0725                21.9102

                     34                     35                     36
                      A                      A                      A
 Frequencies --    819.4309               823.3185               830.9214
 Red. masses --      2.8328                 1.3379                 2.7675
 Frc consts  --      1.1207                 0.5343                 1.1258
 IR Inten    --      2.3748                 8.6064                13.0296

                     37                     38                     39
                      A                      A                      A
 Frequencies --    850.2910               874.7611               898.0044
 Red. masses --      3.5331                 2.3523                 3.3398
 Frc consts  --      1.5050                 1.0605                 1.5868
 IR Inten    --     33.0069                12.4180                10.9121

                     40                     41                     42
                      A                      A                      A
 Frequencies --    930.1589               941.1670               946.6597
 Red. masses --      1.5632                 2.7381                 3.3420
 Frc consts  --      0.7968                 1.4290                 1.7646
 IR Inten    --      1.6477                 7.0339                17.6853

                     43                     44                     45
                      A                      A                      A
 Frequencies --    967.2958              1013.6320              1038.0995
 Red. masses --      2.8242                 2.2820                 1.8710
 Frc consts  --      1.5569                 1.3814                 1.1880
 IR Inten    --     15.8024                 2.5625                 5.1503

                     46                     47                     48
                      A                      A                      A
 Frequencies --   1051.2865              1054.2135              1072.4315
 Red. masses --      2.0356                 2.0645                 1.8141
 Frc consts  --      1.3255                 1.3519                 1.2293
 IR Inten    --     27.6992                 0.7219                 5.1464

                     49                     50                     51
                      A                      A                      A
 Frequencies --   1083.0191              1089.6353              1104.9971
 Red. masses --      1.4131                 2.1536                 2.2546
 Frc consts  --      0.9765                 1.5065                 1.6219
 IR Inten    --      2.4987                60.8637                18.2066

                     52                     53                     54
                      A                      A                      A
 Frequencies --   1106.1338              1119.0962              1122.0303
 Red. masses --      2.3285                 1.4985                 2.0766
 Frc consts  --      1.6785                 1.1057                 1.5403
 IR Inten    --     48.2424                 5.1697                 6.6522

                     55                     56                     57
                      A                      A                      A
 Frequencies --   1147.9413              1160.9313              1184.6235
 Red. masses --      1.1327                 1.3200                 1.1893
 Frc consts  --      0.8795                 1.0482                 0.9834
 IR Inten    --      1.0874                 1.9164                16.8092

                     58                     59                     60
                      A                      A                      A
 Frequencies --   1206.1223              1218.9443              1222.7703
 Red. masses --      1.3327                 1.1040                 1.1172
 Frc consts  --      1.1423                 0.9665                 0.9842
 IR Inten    --      0.8508                 1.7015                 1.7810

                     61                     62                     63
                      A                      A                      A
 Frequencies --   1234.6839              1246.2307              1258.6685
 Red. masses --      2.1206                 4.4514                 1.4195
 Frc consts  --      1.9047                 4.0733                 1.3249
 IR Inten    --     14.5999                10.0304                19.3277

                     64                     65                     66
                      A                      A                      A
 Frequencies --   1276.7998              1291.1359              1316.1940
 Red. masses --      1.4106                 3.7998                 1.8218
 Frc consts  --      1.3548                 3.7321                 1.8595
 IR Inten    --      4.1837               155.7016                 3.4358

                     67                     68                     69
                      A                      A                      A
 Frequencies --   1323.0841              1346.1373              1349.4629
 Red. masses --      1.6259                 1.6127                 4.6524
 Frc consts  --      1.6770                 1.7218                 4.9917
 IR Inten    --     88.0286                38.9782                53.8009

                     70                     71                     72
                      A                      A                      A
 Frequencies --   1355.7745              1356.3180              1389.3981
 Red. masses --      1.4291                 1.5523                 1.3509
 Frc consts  --      1.5477                 1.6825                 1.5365
 IR Inten    --     21.4543                64.6355                 1.2729

                     73                     74                     75
                      A                      A                      A
 Frequencies --   1408.4912              1419.8572              1432.0766
 Red. masses --      1.4850                 1.4121                 1.5462
 Frc consts  --      1.7358                 1.6773                 1.8683
 IR Inten    --     23.4390                21.9219                21.4102

                     76                     77                     78
                      A                      A                      A
 Frequencies --   1469.4235              1476.0912              1492.2421
 Red. masses --      2.5078                 1.1541                 2.1897
 Frc consts  --      3.1903                 1.4816                 2.8729
 IR Inten    --    347.2099                38.2671                37.0242

                     79                     80                     81
                      A                      A                      A
 Frequencies --   1492.8956              1508.4122              1516.1588
 Red. masses --      1.2243                 1.0953                 1.0851
 Frc consts  --      1.6077                 1.4683                 1.4697
 IR Inten    --      7.2235                 4.6631                 9.5424

                     82                     83                     84
                      A                      A                      A
 Frequencies --   1524.7311              1526.2561              1541.3062
 Red. masses --      1.0920                 1.0887                 1.5777
 Frc consts  --      1.4958                 1.4943                 2.2083
 IR Inten    --     23.0021                 1.4436                37.5122

                     85                     86                     87
                      A                      A                      A
 Frequencies --   1572.3811              1741.2239              1825.8423
 Red. masses --      1.0833                 9.8706                12.1751
 Frc consts  --      1.5780                17.6321                23.9138
 IR Inten    --      1.0939               272.6799               459.2838

                     88                     89                     90
                      A                      A                      A
 Frequencies --   3038.6532              3058.8472              3061.5819
 Red. masses --      1.0552                 1.0634                 1.0602
 Frc consts  --      5.7407                 5.8620                 5.8551
 IR Inten    --     28.0837                 2.4991                29.9489

                     91                     92                     93
                      A                      A                      A
 Frequencies --   3067.0940              3069.4153              3072.1142
 Red. masses --      1.0613                 1.1072                 1.0653
 Frc consts  --      5.8821                 6.1462                 5.9239
 IR Inten    --     12.3152                24.4478                54.1677

                     94                     95                     96
                      A                      A                      A
 Frequencies --   3091.8256              3100.4672              3102.7525
 Red. masses --      1.0654                 1.1008                 1.1009
 Frc consts  --      6.0008                 6.2349                 6.2443
 IR Inten    --      4.5898                 9.8176                 9.3404

                     97                     98                     99
                      A                      A                      A
 Frequencies --   3110.3421              3118.7064              3140.4982
 Red. masses --      1.0854                 1.1060                 1.0970
 Frc consts  --      6.1865                 6.3382                 6.3747
 IR Inten    --      2.6832                 6.0999                10.8031

                    100                    101                    102
                      A                      A                      A
 Frequencies --   3154.1061              3158.0372              3158.0845
 Red. masses --      1.0517                 1.1072                 1.0584
 Frc consts  --      6.1644                 6.5059                 6.2193
 IR Inten    --     14.3347                 0.9780                 5.4590

                    103                    104                    105
                      A                      A                      A
 Frequencies --   3218.6740              3229.0347              3243.2286
 Red. masses --      1.0915                 1.1198                 1.1138
 Frc consts  --      6.6623                 6.8789                 6.9025
 IR Inten    --      2.1596                 0.3994                20.1085

 - Thermochemistry -
 -------------------
 Temperature   298.150 Kelvin.  Pressure   1.00000 Atm.
 Atom     1 has atomic number  6 and mass  12.00000

 Molecular mass:   286.09873 amu.
 Principal axes and moments of inertia in atomic units:
                           1         2         3
     Eigenvalues --  2338.420299645.92157**********
           X            0.99997   0.00113   0.00723
           Y           -0.00102   0.99987  -0.01580
           Z           -0.00725   0.01579   0.99985
 This molecule is an asymmetric top.
 Rotational symmetry number  1.
 Warning -- assumption of classical behavior for rotation
           may cause significant error
 Rotational temperatures (Kelvin)      0.03704     0.00898     0.00821
 Rotational constants (GHZ):           0.77178     0.18710     0.17103
 Zero-point vibrational energy     804490.0 (Joules/Mol)
                                  192.27773 (Kcal/Mol)
 Warning -- explicit consideration of  27 degrees of freedom as
           vibrations may cause significant error
 Vibrational temperatures:     26.18    49.02    73.51    95.83   115.75
          (Kelvin)            162.16   172.97   213.18   248.53   255.87
                              276.99   309.96   345.31   388.59   409.79
                              445.39   481.15   503.50   530.72   587.86
                              598.11   637.88   680.11   695.77   784.67
                              829.03   851.35   896.82   916.51  1000.81
                             1054.65  1105.45  1144.34  1178.98  1184.57
                             1195.51  1223.38  1258.59  1292.03  1338.29
                             1354.13  1362.03  1391.72  1458.39  1493.59
                             1512.57  1516.78  1542.99  1558.22  1567.74
                             1589.84  1591.48  1610.13  1614.35  1651.63
                             1670.32  1704.41  1735.34  1753.79  1759.29
                             1776.43  1793.05  1810.94  1837.03  1857.66
                             1893.71  1903.62  1936.79  1941.58  1950.66
                             1951.44  1999.03  2026.50  2042.86  2060.44
                             2114.17  2123.77  2147.00  2147.94  2170.27
                             2181.41  2193.75  2195.94  2217.60  2262.31
                             2505.23  2626.98  4371.94  4401.00  4404.93
                             4412.86  4416.20  4420.09  4448.45  4460.88
                             4464.17  4475.09  4487.12  4518.48  4538.06
                             4543.71  4543.78  4630.95  4645.86  4666.28

 Zero-point correction=                           0.306414 (Hartree/Particle)
 Thermal correction to Energy=                    0.324408
 Thermal correction to Enthalpy=                  0.325353
 Thermal correction to Gibbs Free Energy=         0.258768
 Sum of electronic and zero-point Energies=          -1276.412726
 Sum of electronic and thermal Energies=             -1276.394732
 Sum of electronic and thermal Enthalpies=           -1276.393788
 Sum of electronic and thermal Free Energies=        -1276.460372

                     E (Thermal)             CV                S
                      KCal/Mol        Cal/Mol-Kelvin    Cal/Mol-Kelvin
 Total                  203.569             68.248            140.139
 Electronic               0.000              0.000              0.000
 Translational            0.889              2.981             42.851
 Rotational               0.889              2.981             33.831
 Vibrational            201.792             62.286             63.457
 Vibration     1          0.593              1.986              6.822
 Vibration     2          0.594              1.983              5.577
 Vibration     3          0.595              1.977              4.775
 Vibration     4          0.598              1.970              4.251
 Vibration     5          0.600              1.962              3.880
 Vibration     6          0.607              1.939              3.222
 Vibration     7          0.609              1.932              3.097
 Vibration     8          0.618              1.905              2.696
 Vibration     9          0.626              1.876              2.405
 Vibration    10          0.628              1.870              2.351
 Vibration    11          0.634              1.850              2.203
 Vibration    12          0.645              1.817              1.997
 Vibration    13          0.657              1.779              1.803
 Vibration    14          0.674              1.728              1.596
 Vibration    15          0.683              1.702              1.505
 Vibration    16          0.699              1.655              1.365
 Vibration    17          0.716              1.607              1.239
 Vibration    18          0.727              1.575              1.166
 Vibration    19          0.741              1.536              1.085
 Vibration    20          0.773              1.452              0.932
 Vibration    21          0.779              1.436              0.907
 Vibration    22          0.803              1.376              0.816
 Vibration    23          0.830              1.311              0.730
 Vibration    24          0.840              1.286              0.700
 Vibration    25          0.901              1.150              0.554
 Vibration    26          0.933              1.083              0.492
 Vibration    27          0.949              1.049              0.464

                           ! Non-Optimized Parameters !
 Normal termination of Gaussian 16 at Mon Dec 14 18:26:11 2020.

 ----------------------------------------------------------------------
 # B3LYP/6-311++G(d,p) empiricaldispersion=gd3bj scf=xqc pop=npa geom=c
 heck
 ----------------------------------------------------------------------

 ---------------------------------------
 CID_128168273_JID_9748_Energie_neutraal
 ---------------------------------------
 Structure from the checkpoint file:  "JID_9748.chk"
 Charge =  0 Multiplicity = 1

 SCF Done:  E(RB3LYP) =  -1276.99407454     A.U. after   16 cycles
 Normal termination of Gaussian 16 at Mon Dec 14 18:34:42 2020.

 ----------------------------------------------------------------------
 # B3LYP/6-311++G(d,p) empiricaldispersion=gd3bj scf=xqc pop=npa geom=c
 heck
 ----------------------------------------------------------------------

 -------------------------------------
 CID_128168273_JID_9748_Energie_kation
 -------------------------------------
 Structure from the checkpoint file:  "JID_9748.chk"
 Charge =  1 Multiplicity = 2

 SCF Done:  E(UB3LYP) =  -1276.67526937     A.U. after   28 cycles
 Normal termination of Gaussian 16 at Mon Dec 14 18:58:02 2020.
 Gaussian 16:  ES64L-G16RevA.03 25-Dec-2016

 ----------------------------------------------------------------------
 # B3LYP/6-311++G(d,p) empiricaldispersion=gd3bj scf=xqc pop=npa geom=c
 heck
 ----------------------------------------------------------------------

 ------------------------------------
 CID_128168273_JID_9748_Energie_anion
 ------------------------------------
 Structure from the checkpoint file:  "JID_9748.chk"
 Charge = -1 Multiplicity = 2

                         Standard orientation:
 ---------------------------------------------------------------------
 Center     Atomic      Atomic             Coordinates (Angstroms)
 Number     Number       Type             X           Y           Z
 ---------------------------------------------------------------------
      1          6           0        3.466538    1.722928    0.811534
      2          6           0        4.169779    1.127550   -0.416969
      3          6           0        3.190273    0.455695   -1.384644
      4         16           0        2.368150   -0.937838   -0.575686
      5          8           0        1.275033   -1.432267   -1.433468
      6          8           0        3.394378   -1.863182   -0.065735
      7          6           0        1.620313   -0.116454    0.887726
      8          6           0        2.701274    0.681793    1.644183
      9          6           0        0.423339    0.702842    0.421105
     10          8           0        0.543080    1.848413   -0.016074
     11          7           0       -0.792330    0.107118    0.498662
     12          6           0       -1.108978   -1.291301    0.775233
     13          6           0       -2.611722   -1.365749    0.516582
     14          8           0       -3.320483   -2.340961    0.688646
     15          7           0       -3.006859   -0.140175    0.054446
     16          6           0       -1.936296    0.824255   -0.064418
     17          6           0       -4.369728    0.125632   -0.304491
     18          6           0       -5.088156    1.364813    0.164168
     19          6           0       -4.731546    1.194895   -1.298987
     20          1           0        4.218523    2.188394    1.459212
     21          1           0        2.773945    2.505538    0.493556
     22          1           0        4.922761    0.392464   -0.110586
     23          1           0        4.695339    1.919381   -0.963120
     24          1           0        3.682674    0.023220   -2.260951
     25          1           0        2.393798    1.131778   -1.705827
     26          1           0        1.303008   -0.965829    1.499089
     27          1           0        3.405107   -0.050610    2.054867
     28          1           0        2.215715    1.174260    2.494474
     29          1           0       -0.577318   -1.972732    0.103532
     30          1           0       -0.904569   -1.572320    1.814083
     31          1           0       -2.134833    1.741591    0.503333
     32          1           0       -1.739638    1.104506   -1.107351
     33          1           0       -4.926291   -0.804454   -0.322480
     34          1           0       -6.124232    1.261593    0.472419
     35          1           0       -4.526577    2.101784    0.731225
     36          1           0       -3.941968    1.826759   -1.694995
     37          1           0       -5.518127    0.974068   -2.014326
 ---------------------------------------------------------------------

 SCF Done:  E(UB3LYP) =  -1276.98882957     A.U. after   33 cycles
 SCF Done:  E(UB3LYP) =  -1276.98882957     a.u. after    1 cycles

 The electronic state is 2-A.
 Alpha  occ. eigenvalues --  -88.94981 -19.02603 -19.02388 -19.01067 -19.00142
 Alpha  occ. eigenvalues --  -14.27251 -14.26548 -10.19399 -10.18708 -10.16549
 Alpha  occ. eigenvalues --  -10.14208 -10.13276 -10.12938 -10.11846 -10.10433
 Alpha  occ. eigenvalues --  -10.09969 -10.09439 -10.09412 -10.08067  -8.01562
 Alpha  occ. eigenvalues --   -5.97821  -5.97703  -5.97647  -1.01577  -0.97161
 Alpha  occ. eigenvalues --   -0.95551  -0.91308  -0.90148  -0.83977  -0.77447
 Alpha  occ. eigenvalues --   -0.75477  -0.70055  -0.67357  -0.66391  -0.62911
 Alpha  occ. eigenvalues --   -0.56457  -0.55289  -0.53632  -0.53511  -0.50716
 Alpha  occ. eigenvalues --   -0.47235  -0.46927  -0.44004  -0.43290  -0.42304
 Alpha  occ. eigenvalues --   -0.41933  -0.40565  -0.39440  -0.38331  -0.38066
 Alpha  occ. eigenvalues --   -0.36893  -0.36074  -0.35651  -0.34710  -0.34400
 Alpha  occ. eigenvalues --   -0.34146  -0.32880  -0.32598  -0.31662  -0.31288
 Alpha  occ. eigenvalues --   -0.29872  -0.29390  -0.28387  -0.26274  -0.26021
 Alpha  occ. eigenvalues --   -0.25557  -0.25402  -0.23969  -0.23533  -0.23283
 Alpha  occ. eigenvalues --   -0.21483  -0.19564  -0.18458  -0.17306  -0.17037
 Alpha  occ. eigenvalues --   -0.15779   0.03648
 Alpha virt. eigenvalues --    0.05167   0.06251   0.06719   0.07262   0.07416
 Alpha virt. eigenvalues --    0.07861   0.08796   0.09286   0.09579   0.09647
 Alpha virt. eigenvalues --    0.10092   0.10854   0.11359   0.11747   0.11885

  Beta  occ. eigenvalues --  -88.94963 -19.02604 -19.02364 -19.01062 -19.00045
  Beta  occ. eigenvalues --  -14.27245 -14.26518 -10.19384 -10.18603 -10.16536
  Beta  occ. eigenvalues --  -10.14206 -10.13267 -10.12920 -10.11820 -10.10423
  Beta  occ. eigenvalues --  -10.09937 -10.09398 -10.09387 -10.08056  -8.01542
  Beta  occ. eigenvalues --   -5.97807  -5.97670  -5.97631  -1.01535  -0.97110
  Beta  occ. eigenvalues --   -0.95417  -0.91277  -0.90096  -0.83913  -0.77415
  Beta  occ. eigenvalues --   -0.75411  -0.69968  -0.67309  -0.66315  -0.62846
  Beta  occ. eigenvalues --   -0.56369  -0.55254  -0.53541  -0.53445  -0.50619
  Beta  occ. eigenvalues --   -0.47185  -0.46866  -0.43919  -0.43184  -0.42256
  Beta  occ. eigenvalues --   -0.41881  -0.40519  -0.39395  -0.38278  -0.38007
  Beta  occ. eigenvalues --   -0.36847  -0.36025  -0.35595  -0.34650  -0.34350
  Beta  occ. eigenvalues --   -0.34104  -0.32718  -0.32547  -0.31594  -0.31255
  Beta  occ. eigenvalues --   -0.29831  -0.29300  -0.28111  -0.26227  -0.25957
  Beta  occ. eigenvalues --   -0.25522  -0.25366  -0.23914  -0.23504  -0.23260
  Beta  occ. eigenvalues --   -0.21445  -0.19503  -0.18430  -0.17190  -0.16800
  Beta  occ. eigenvalues --   -0.15720
  Beta virt. eigenvalues --    0.05678   0.06107   0.07166   0.07421   0.07574
  Beta virt. eigenvalues --    0.07777   0.08296   0.08952   0.09604   0.09873
  Beta virt. eigenvalues --    0.09937   0.10344   0.11021   0.11517   0.11869

 Mulliken charges and spin densities:
               1          2
     1  C   -0.783315   0.454892
     2  C    0.626088  -1.108202
     3  C   -0.806773   0.215406
     4  S    0.983320  -0.506716
     5  O   -0.053177   0.008338
     6  O   -0.194588   0.012329
     7  C   -0.220906   0.115010
     8  C    0.083524  -0.380059
     9  C   -0.324891  -0.305466
    10  O   -0.291942   0.045791
    11  N    0.210088  -0.061238
    12  C   -0.042863   0.064301
    13  C    0.306647  -0.576974
    14  O   -0.371410   0.012802
    15  N    0.094759  -0.005356
    16  C    0.169973  -0.601686
    17  C   -1.402188   1.359073
    18  C    0.899843  -1.237526
    19  C    0.355680  -0.650564
    20  H   -0.177466   0.355342
    21  H    0.180915   0.030917
    22  H    0.106454   0.075492
    23  H   -0.388761   0.567659
    24  H    0.040206   0.217585
    25  H    0.133129   0.118033
    26  H    0.216824   0.131610
    27  H   -0.044993   0.254732
    28  H   -0.321571   0.512425
    29  H    0.315933  -0.034457
    30  H   -0.197777   0.412920
    31  H    0.053719   0.188432
    32  H    0.154348   0.097291
    33  H    0.080701   0.187454
    34  H   -0.181444   0.341942
    35  H   -0.177577   0.349109
    36  H    0.052941   0.086126
    37  H   -0.083451   0.253233
 Sum of Mulliken charges =  -1.00000   1.00000

 Dipole moment (field-independent basis, Debye):
    X=             -0.4287    Y=              0.4024    Z=             -1.8013  Tot=              1.8949
 Quadrupole moment (field-independent basis, Debye-Ang):
   XX=           -215.4876   YY=           -171.0050   ZZ=           -155.1346
   XY=             -1.3794   XZ=              4.8010   YZ=             -0.5033

 Summary of Natural Population Analysis:

                                       Natural Population
                Natural  -----------------------------------------------
    Atom  No    Charge         Core      Valence    Rydberg      Total
 -----------------------------------------------------------------------
      C    1   -0.19483      0.99961     2.18710    0.00812     3.19483
      C    2   -0.20087      0.99962     2.19207    0.00917     3.20087
      C    3   -0.29068      0.99958     2.27920    0.01189     3.29068
      S    4    1.02938      4.99920     1.87891    0.09251     6.97062
      O    5   -0.47230      0.99991     3.46681    0.00558     4.47230
      O    6   -0.46831      0.99991     3.46304    0.00536     4.46831
      C    7   -0.23438      0.99953     2.21957    0.01528     3.23438
      C    8   -0.19452      0.99961     2.18388    0.01103     3.19452
      C    9    0.35669      0.99960     1.61936    0.02435     2.64331
      O   10   -0.31946      0.99988     3.31430    0.00528     4.31946
      N   11   -0.24869      0.99963     2.73738    0.01169     3.74869
      C   12   -0.12586      0.99958     2.11656    0.00972     3.12586
      C   13    0.34823      0.99966     1.62947    0.02265     2.65177
      O   14   -0.31837      0.99987     3.31323    0.00527     4.31837
      N   15   -0.24885      0.99961     2.73939    0.00985     3.74885
      C   16    0.02733      0.99962     1.96087    0.01218     2.97267
      C   17   -0.01237      0.99957     2.00025    0.01255     3.01237
      C   18   -0.20235      0.99964     2.19470    0.00801     3.20235
      C   19   -0.20451      0.99964     2.19733    0.00755     3.20451
      H   20    0.10077      0.00000     0.39826    0.00096     0.39923
      H   21    0.11255      0.00000     0.38599    0.00146     0.38745
      H   22    0.10436      0.00000     0.39437    0.00126     0.39564
      H   23    0.10698      0.00000     0.39152    0.00150     0.39302
      H   24    0.11800      0.00000     0.38071    0.00129     0.38200
      H   25    0.12349      0.00000     0.37518    0.00133     0.37651
      H   26    0.12375      0.00000     0.37454    0.00170     0.37625
      H   27    0.10648      0.00000     0.39227    0.00125     0.39352
      H   28    0.11123      0.00000     0.38718    0.00159     0.38877
      H   29    0.11945      0.00000     0.37930    0.00125     0.38055
      H   30    0.11041      0.00000     0.38775    0.00184     0.38959
      H   31    0.09962      0.00000     0.39881    0.00157     0.40038
      H   32    0.09621      0.00000     0.40254    0.00125     0.40379
      H   33    0.11882      0.00000     0.38001    0.00117     0.38118
      H   34    0.10578      0.00000     0.39303    0.00119     0.39422
      H   35    0.10630      0.00000     0.39254    0.00116     0.39370
      H   36    0.10537      0.00000     0.39379    0.00084     0.39463
      H   37    0.10511      0.00000     0.39414    0.00075     0.39489
 =======================================================================
   * Total *   -0.00000     22.99326    52.69534    0.31140    76.00000

 Normal termination of Gaussian 16 at Mon Dec 14 19:24:27 2020.
