 Gaussian 16, Revision A.03,

 -----------------------------------------------------------
 # opt freq B3LYP/6-31G(d) empiricaldispersion=gd3bj scf=xqc
 -----------------------------------------------------------

 ------------------------------
 CID_153664250_JID_642_neutraal
 ------------------------------
 Symbolic Z-matrix:
 Charge =  0 Multiplicity = 1

 SCF Done:  E(RB3LYP) =  -480.991233029     A.U. after   13 cycles
 SCF Done:  E(RB3LYP) =  -480.994143636     A.U. after   11 cycles
 SCF Done:  E(RB3LYP) =  -480.994461180     A.U. after   10 cycles
 SCF Done:  E(RB3LYP) =  -480.994484713     A.U. after    9 cycles
 SCF Done:  E(RB3LYP) =  -480.994489381     A.U. after    9 cycles
 SCF Done:  E(RB3LYP) =  -480.994491503     A.U. after    8 cycles
 SCF Done:  E(RB3LYP) =  -480.994492162     A.U. after    7 cycles
 SCF Done:  E(RB3LYP) =  -480.994492402     A.U. after    7 cycles
 SCF Done:  E(RB3LYP) =  -480.994492513     A.U. after    6 cycles
 Optimization completed.
    -- Stationary point found.
 Normal termination of Gaussian 16 at Tue Dec  8 12:19:17 2020.

 --------------------------------------------------------------------
 #N Geom=AllCheck Guess=TCheck SCRF=Check GenChk RB3LYP/6-31G(d) Freq
 --------------------------------------------------------------------

 Structure from the checkpoint file:  "JID_642.chk"
 ------------------------------
 CID_153664250_JID_642_neutraal
 ------------------------------
 Charge =  0 Multiplicity = 1

 SCF Done:  E(RB3LYP) =  -480.994492513     A.U. after    1 cycles

  Exact polarizability:  94.576  -0.413  81.953   1.573   0.066  78.666
 Approx polarizability: 117.266  -1.308 112.606   4.033   0.611 119.560

                      1                      2                      3
                      A                      A                      A
 Frequencies --     61.4717               105.8996               161.7990
 Red. masses --      2.6487                 2.3801                 2.4726
 Frc consts  --      0.0059                 0.0157                 0.0381
 IR Inten    --      0.5676                 1.1213                 0.3211

                      4                      5                      6
                      A                      A                      A
 Frequencies --    182.3654               223.6327               252.5098
 Red. masses --      1.5263                 3.5539                 2.5993
 Frc consts  --      0.0299                 0.1047                 0.0976
 IR Inten    --      1.2270                 1.1984                 6.8375

                      7                      8                      9
                      A                      A                      A
 Frequencies --    270.2870               302.6748               322.6016
 Red. masses --      1.4182                 2.0428                 2.7240
 Frc consts  --      0.0610                 0.1103                 0.1670
 IR Inten    --     36.5539                12.9656                 7.6488

                     10                     11                     12
                      A                      A                      A
 Frequencies --    373.2851               427.7076               442.1170
 Red. masses --      2.5518                 3.0503                 2.2125
 Frc consts  --      0.2095                 0.3288                 0.2548
 IR Inten    --      7.9104                 3.1817                 1.0349

                     13                     14                     15
                      A                      A                      A
 Frequencies --    474.2013               475.9328               500.4574
 Red. masses --      2.4115                 1.5408                 2.3814
 Frc consts  --      0.3195                 0.2056                 0.3514
 IR Inten    --     40.5239                57.0664                34.2141

                     16                     17                     18
                      A                      A                      A
 Frequencies --    605.4658               668.9437               798.0911
 Red. masses --      2.9397                 2.9259                 1.8370
 Frc consts  --      0.6349                 0.7714                 0.6894
 IR Inten    --      1.8961                 6.0477                 0.6113

                     19                     20                     21
                      A                      A                      A
 Frequencies --    849.2162               876.1188               920.3274
 Red. masses --      2.6417                 2.2321                 1.7485
 Frc consts  --      1.1225                 1.0095                 0.8726
 IR Inten    --     14.9540                46.7601                74.3455

                     22                     23                     24
                      A                      A                      A
 Frequencies --    935.6623               954.7853               979.9002
 Red. masses --      1.6854                 2.1442                 1.9739
 Frc consts  --      0.8694                 1.1517                 1.1167
 IR Inten    --     60.4114                 8.9985                15.7325

                     25                     26                     27
                      A                      A                      A
 Frequencies --   1042.9545              1072.3214              1080.3380
 Red. masses --      2.1596                 1.9793                 2.2551
 Frc consts  --      1.3840                 1.3410                 1.5508
 IR Inten    --      2.6468                36.0229                57.5365

                     28                     29                     30
                      A                      A                      A
 Frequencies --   1093.1181              1129.2613              1142.6950
 Red. masses --      1.5669                 2.6898                 2.6921
 Frc consts  --      1.1031                 2.0209                 2.0711
 IR Inten    --     18.0344                86.0826                84.4761

                     31                     32                     33
                      A                      A                      A
 Frequencies --   1150.0930              1189.0911              1192.7797
 Red. masses --      2.5961                 1.2999                 2.1630
 Frc consts  --      2.0232                 1.0829                 1.8131
 IR Inten    --     13.1924                14.7663                10.3267

                     34                     35                     36
                      A                      A                      A
 Frequencies --   1196.5178              1222.3310              1251.2517
 Red. masses --      1.3419                 1.4256                 1.3916
 Frc consts  --      1.1319                 1.2549                 1.2837
 IR Inten    --     12.8899                 7.7341                18.1170

                     37                     38                     39
                      A                      A                      A
 Frequencies --   1289.3878              1306.3940              1335.8957
 Red. masses --      1.3390                 1.4455                 1.3111
 Frc consts  --      1.3116                 1.4535                 1.3786
 IR Inten    --      9.9192                14.6479                 1.3895

                     40                     41                     42
                      A                      A                      A
 Frequencies --   1363.8254              1368.2750              1392.7275
 Red. masses --      1.5887                 1.3227                 1.4148
 Frc consts  --      1.7411                 1.4590                 1.6169
 IR Inten    --      7.6833                 9.6784                 1.2727

                     43                     44                     45
                      A                      A                      A
 Frequencies --   1397.2781              1403.1606              1420.5712
 Red. masses --      1.3678                 1.4446                 1.3304
 Frc consts  --      1.5734                 1.6758                 1.5818
 IR Inten    --     10.6465                 2.7863                34.9879

                     46                     47                     48
                      A                      A                      A
 Frequencies --   1442.2196              1459.7747              1501.3928
 Red. masses --      1.4572                 1.3005                 1.1374
 Frc consts  --      1.7858                 1.6327                 1.5106
 IR Inten    --     10.7948                66.4209                 0.3503

                     49                     50                     51
                      A                      A                      A
 Frequencies --   1507.9281              1511.2428              1526.3009
 Red. masses --      1.0885                 1.0773                 1.0908
 Frc consts  --      1.4582                 1.4497                 1.4972
 IR Inten    --      1.0163                 4.1965                 4.5951

                     52                     53                     54
                      A                      A                      A
 Frequencies --   1528.4822              1540.1992              1695.1962
 Red. masses --      1.0860                 1.0571                 1.0907
 Frc consts  --      1.4949                 1.4774                 1.8467
 IR Inten    --     10.3727                 8.6886                25.2863

                     55                     56                     57
                      A                      A                      A
 Frequencies --   3004.2137              3008.3156              3009.9729
 Red. masses --      1.0564                 1.0824                 1.0634
 Frc consts  --      5.6173                 5.7715                 5.6766
 IR Inten    --     23.8087                17.9489                71.5807

                     58                     59                     60
                      A                      A                      A
 Frequencies --   3034.6546              3038.8043              3041.6900
 Red. masses --      1.0604                 1.0684                 1.0681
 Frc consts  --      5.7536                 5.8129                 5.8225
 IR Inten    --     31.4506                39.7571                 3.2005

                     61                     62                     63
                      A                      A                      A
 Frequencies --   3058.6455              3064.0454              3076.2975
 Red. masses --      1.1026                 1.0852                 1.0989
 Frc consts  --      6.0774                 6.0028                 6.1270
 IR Inten    --     44.0660                39.4177                61.5871

                     64                     65                     66
                      A                      A                      A
 Frequencies --   3084.4515              3115.8274              3136.9337
 Red. masses --      1.1010                 1.0968                 1.0985
 Frc consts  --      6.1717                 6.2735                 6.3691
 IR Inten    --     59.3793                30.1502                29.1109

                     67                     68                     69
                      A                      A                      A
 Frequencies --   3442.5312              3528.1812              3697.3953
 Red. masses --      1.0493                 1.0918                 1.0647
 Frc consts  --      7.3266                 8.0073                 8.5756
 IR Inten    --      3.5432                 2.0949                29.8366

 - Thermochemistry -
 -------------------
 Temperature   298.150 Kelvin.  Pressure   1.00000 Atm.
 Atom     1 has atomic number  6 and mass  12.00000

 Molecular mass:   145.11028 amu.
 Principal axes and moments of inertia in atomic units:
                           1         2         3
     Eigenvalues --   979.247361767.115932267.01362
           X            0.99978   0.02104   0.00072
           Y           -0.02104   0.99976  -0.00644
           Z           -0.00085   0.00642   0.99998
 This molecule is an asymmetric top.
 Rotational symmetry number  1.
 Warning -- assumption of classical behavior for rotation
           may cause significant error
 Rotational temperatures (Kelvin)      0.08845     0.04901     0.03821
 Rotational constants (GHZ):           1.84299     1.02129     0.79609
 Zero-point vibrational energy     593709.1 (Joules/Mol)
                                  141.89989 (Kcal/Mol)
 Warning -- explicit consideration of  16 degrees of freedom as
           vibrations may cause significant error
 Vibrational temperatures:     88.44   152.37   232.79   262.38   321.76
          (Kelvin)            363.31   388.88   435.48   464.15   537.07
                              615.38   636.11   682.27   684.76   720.05
                              871.13   962.46  1148.28  1221.83  1260.54
                             1324.15  1346.21  1373.72  1409.86  1500.58
                             1542.83  1554.37  1572.75  1624.76  1644.08
                             1654.73  1710.84  1716.14  1721.52  1758.66
                             1800.27  1855.14  1879.61  1922.06  1962.24
                             1968.64  2003.82  2010.37  2018.84  2043.89
                             2075.03  2100.29  2160.17  2169.57  2174.34
                             2196.01  2199.14  2216.00  2439.01  4322.39
                             4328.30  4330.68  4366.19  4372.16  4376.31
                             4400.71  4408.48  4426.11  4437.84  4482.98
                             4513.35  4953.03  5076.27  5319.73

 Zero-point correction=                           0.226132 (Hartree/Particle)
 Thermal correction to Energy=                    0.236630
 Thermal correction to Enthalpy=                  0.237574
 Thermal correction to Gibbs Free Energy=         0.190695
 Sum of electronic and zero-point Energies=           -480.768361
 Sum of electronic and thermal Energies=              -480.757862
 Sum of electronic and thermal Enthalpies=            -480.756918
 Sum of electronic and thermal Free Energies=         -480.803798

                     E (Thermal)             CV                S
                      KCal/Mol        Cal/Mol-Kelvin    Cal/Mol-Kelvin
 Total                  148.488             40.501             98.666
 Electronic               0.000              0.000              0.000
 Translational            0.889              2.981             40.828
 Rotational               0.889              2.981             29.752
 Vibrational            146.710             34.539             28.087
 Vibration     1          0.597              1.973              4.409
 Vibration     2          0.605              1.945              3.343
 Vibration     3          0.622              1.889              2.529
 Vibration     4          0.630              1.864              2.304
 Vibration     5          0.649              1.805              1.929
 Vibration     6          0.664              1.759              1.713
 Vibration     7          0.674              1.728              1.594
 Vibration     8          0.694              1.669              1.402
 Vibration     9          0.708              1.630              1.297
 Vibration    10          0.745              1.527              1.066
 Vibration    11          0.789              1.410              0.866
 Vibration    12          0.802              1.378              0.820
 Vibration    13          0.831              1.307              0.726
 Vibration    14          0.833              1.303              0.721
 Vibration    15          0.856              1.249              0.657
 Vibration    16          0.964              1.020              0.440

 Optimization completed.
    -- Stationary point found.
 Normal termination of Gaussian 16 at Tue Dec  8 12:27:30 2020.

 ----------------------------------------------------------------------
 # B3LYP/6-311++G(d,p) empiricaldispersion=gd3bj scf=xqc pop=npa geom=c
 heck
 ----------------------------------------------------------------------

 --------------------------------------
 CID_153664250_JID_642_Energie_neutraal
 --------------------------------------
 Structure from the checkpoint file:  "JID_642.chk"
 Charge =  0 Multiplicity = 1

 SCF Done:  E(RB3LYP) =  -481.151288980     A.U. after   13 cycles
 Normal termination of Gaussian 16 at Tue Dec  8 12:30:41 2020.

 ----------------------------------------------------------------------
 # B3LYP/6-311++G(d,p) empiricaldispersion=gd3bj scf=xqc pop=npa geom=c
 heck
 ----------------------------------------------------------------------

 ------------------------------------
 CID_153664250_JID_642_Energie_kation
 ------------------------------------
 Structure from the checkpoint file:  "JID_642.chk"
 Charge =  1 Multiplicity = 2

 SCF Done:  E(UB3LYP) =  -480.825932616     A.U. after   23 cycles
 Normal termination of Gaussian 16 at Tue Dec  8 12:39:57 2020.
 Gaussian 16:  ES64L-G16RevA.03 25-Dec-2016

 ----------------------------------------------------------------------
 # B3LYP/6-311++G(d,p) empiricaldispersion=gd3bj scf=xqc pop=npa geom=c
 heck
 ----------------------------------------------------------------------

 -----------------------------------
 CID_153664250_JID_642_Energie_anion
 -----------------------------------
 Structure from the checkpoint file:  "JID_642.chk"
 Charge = -1 Multiplicity = 2

                         Standard orientation:
 ---------------------------------------------------------------------
 Center     Atomic      Atomic             Coordinates (Angstroms)
 Number     Number       Type             X           Y           Z
 ---------------------------------------------------------------------
      1          6           0       -2.672384   -1.145669   -0.745787
      2          8           0       -1.572566   -0.260670   -0.681778
      3          6           0       -1.044762   -0.062783    0.636604
      4          6           0       -0.165887   -1.232363    1.090569
      5          6           0        1.073176   -1.380571    0.198930
      6          6           0        1.893377   -0.078757    0.145715
      7          6           0        1.006087    1.083470   -0.315419
      8          6           0       -0.247342    1.245742    0.553969
      9          8           0       -1.081456    2.295266    0.086889
     10          7           0        3.089022   -0.139963   -0.702744
     11          1           0       -3.029198   -1.136587   -1.778898
     12          1           0       -3.486972   -0.821208   -0.080365
     13          1           0       -2.393316   -2.174791   -0.479324
     14          1           0       -1.885454    0.081385    1.332765
     15          1           0        0.140377   -1.041435    2.128626
     16          1           0       -0.747361   -2.161589    1.109027
     17          1           0        0.756791   -1.638460   -0.820782
     18          1           0        1.702302   -2.204376    0.560627
     19          1           0        2.245378    0.142148    1.165203
     20          1           0        0.685848    0.899170   -1.350656
     21          1           0        1.577255    2.016470   -0.312360
     22          1           0        0.050791    1.524271    1.572319
     23          1           0       -1.537473    1.917192   -0.685348
     24          1           0        3.673396   -0.923211   -0.410109
     25          1           0        2.803071   -0.350424   -1.659896
 ---------------------------------------------------------------------

 SCF Done:  E(UB3LYP) =  -481.136738407     A.U. after   27 cycles

 The electronic state is 2-A.
 Alpha  occ. eigenvalues --  -19.02780 -19.01761 -14.19013 -10.11880 -10.11767
 Alpha  occ. eigenvalues --  -10.10575 -10.09429 -10.06282 -10.05949 -10.05533
 Alpha  occ. eigenvalues --   -0.94567  -0.91566  -0.78835  -0.70773  -0.63637
 Alpha  occ. eigenvalues --   -0.62591  -0.57300  -0.51460  -0.49849  -0.46161
 Alpha  occ. eigenvalues --   -0.41454  -0.39520  -0.38692  -0.36962  -0.35041
 Alpha  occ. eigenvalues --   -0.34200  -0.32254  -0.32011  -0.30060  -0.29898
 Alpha  occ. eigenvalues --   -0.29102  -0.26214  -0.24640  -0.24220  -0.23415
 Alpha  occ. eigenvalues --   -0.21843  -0.21092  -0.17182  -0.16338  -0.14136
 Alpha  occ. eigenvalues --    0.04696
 Alpha virt. eigenvalues --    0.06869   0.07578   0.08677   0.09629   0.10054
 Alpha virt. eigenvalues --    0.10362   0.10985   0.11574   0.12431   0.12850
 Alpha virt. eigenvalues --    0.13340   0.14268   0.14375   0.15674   0.16804

  Beta  occ. eigenvalues --  -19.02770 -19.01757 -14.18984 -10.11877 -10.11759
  Beta  occ. eigenvalues --  -10.10517 -10.09421 -10.06255 -10.05944 -10.05504
  Beta  occ. eigenvalues --   -0.94554  -0.91557  -0.78789  -0.70732  -0.63602
  Beta  occ. eigenvalues --   -0.62539  -0.57207  -0.51415  -0.49795  -0.46099
  Beta  occ. eigenvalues --   -0.41423  -0.39476  -0.38639  -0.36916  -0.35006
  Beta  occ. eigenvalues --   -0.34158  -0.32210  -0.31969  -0.30022  -0.29867
  Beta  occ. eigenvalues --   -0.29041  -0.26186  -0.24613  -0.24166  -0.23380
  Beta  occ. eigenvalues --   -0.21810  -0.21057  -0.17168  -0.16310  -0.14102
  Beta virt. eigenvalues --    0.07308   0.08088   0.08122   0.09232   0.10381
  Beta virt. eigenvalues --    0.10662   0.10857   0.11384   0.11858   0.12975
  Beta virt. eigenvalues --    0.13527   0.13734   0.14432   0.14938   0.16048

 Mulliken charges and spin densities:
               1          2
     1  C    1.585311  -1.835604
     2  O   -0.210221   0.061006
     3  C   -0.640124   0.726781
     4  C    1.422772  -1.968557
     5  C   -0.718730   0.545300
     6  C    0.722094  -1.138426
     7  C    0.134503  -0.385745
     8  C   -0.488414  -0.041775
     9  O   -0.189458   0.005134
    10  N   -0.407523   0.138177
    11  H   -0.434820   0.576940
    12  H   -0.430680   0.564870
    13  H   -0.575594   0.724617
    14  H   -0.140786   0.358940
    15  H   -0.147800   0.278188
    16  H   -0.306895   0.490883
    17  H    0.136264   0.023861
    18  H   -0.749930   0.921686
    19  H   -0.009576   0.188850
    20  H    0.029028   0.135164
    21  H    0.234435  -0.065443
    22  H    0.061043   0.122866
    23  H    0.231669   0.018687
    24  H   -0.138924   0.368228
    25  H    0.032357   0.185374
 Sum of Mulliken charges =  -1.00000   1.00000

 Dipole moment (field-independent basis, Debye):
    X=              1.1032    Y=              4.9947    Z=             -0.4969  Tot=              5.1391
 Quadrupole moment (field-independent basis, Debye-Ang):
   XX=           -127.3676   YY=           -111.6976   ZZ=            -91.3982
   XY=             -2.1242   XZ=             -1.1681   YZ=              2.2905

 Summary of Natural Population Analysis:

                                       Natural Population
                Natural  -----------------------------------------------
    Atom  No    Charge         Core      Valence    Rydberg      Total
 -----------------------------------------------------------------------
      C    1   -0.09530      0.99961     2.08643    0.00926     3.09530
      O    2   -0.31579      0.99988     3.30537    0.01054     4.31579
      C    3    0.05856      0.99952     1.92620    0.01572     2.94144
      C    4   -0.20517      0.99960     2.19512    0.01044     3.20517
      C    5   -0.19834      0.99960     2.18745    0.01129     3.19834
      C    6   -0.01291      0.99958     2.00154    0.01179     3.01291
      C    7   -0.20265      0.99959     2.19344    0.00962     3.20265
      C    8    0.06093      0.99950     1.92582    0.01375     2.93907
      O    9   -0.37429      0.99990     3.36766    0.00673     4.37429
      N   10   -0.42035      0.99977     2.91020    0.01038     3.92035
      H   11    0.09084      0.00000     0.40765    0.00151     0.40916
      H   12    0.08013      0.00000     0.41753    0.00235     0.41987
      H   13    0.08388      0.00000     0.41354    0.00258     0.41612
      H   14    0.08884      0.00000     0.40964    0.00152     0.41116
      H   15    0.09944      0.00000     0.39891    0.00164     0.40056
      H   16    0.10744      0.00000     0.39069    0.00187     0.39256
      H   17    0.09796      0.00000     0.39992    0.00212     0.40204
      H   18    0.10303      0.00000     0.39398    0.00298     0.39697
      H   19    0.08535      0.00000     0.41274    0.00190     0.41465
      H   20    0.09816      0.00000     0.40028    0.00156     0.40184
      H   21    0.10465      0.00000     0.39418    0.00117     0.39535
      H   22    0.08693      0.00000     0.41183    0.00124     0.41307
      H   23    0.23255      0.00000     0.26442    0.00303     0.26745
      H   24    0.17626      0.00000     0.32156    0.00218     0.32374
      H   25    0.16982      0.00000     0.32832    0.00186     0.33018
 =======================================================================
   * Total *   -0.00000      9.99656    29.86442    0.13903    40.00000

 Normal termination of Gaussian 16 at Tue Dec  8 12:50:04 2020.
