 Gaussian 16, Revision A.03,

 -----------------------------------------------------------
 # opt freq B3LYP/6-31G(d) empiricaldispersion=gd3bj scf=xqc
 -----------------------------------------------------------

 -------------------------------
 CID_100127336_JID_6144_neutraal
 -------------------------------
 Symbolic Z-matrix:
 Charge =  0 Multiplicity = 1

 SCF Done:  E(RB3LYP) =  -669.934882696     A.U. after   14 cycles
 SCF Done:  E(RB3LYP) =  -669.944162200     A.U. after   12 cycles
 SCF Done:  E(RB3LYP) =  -669.946064656     A.U. after   12 cycles
 SCF Done:  E(RB3LYP) =  -669.946912325     A.U. after   12 cycles
 SCF Done:  E(RB3LYP) =  -669.947236071     A.U. after   12 cycles
 SCF Done:  E(RB3LYP) =  -669.947381799     A.U. after   11 cycles
 SCF Done:  E(RB3LYP) =  -669.947476876     A.U. after   11 cycles
 SCF Done:  E(RB3LYP) =  -669.947541134     A.U. after   10 cycles
 SCF Done:  E(RB3LYP) =  -669.947598387     A.U. after   10 cycles
 SCF Done:  E(RB3LYP) =  -669.947660743     A.U. after   10 cycles
 SCF Done:  E(RB3LYP) =  -669.947674430     A.U. after    8 cycles
 SCF Done:  E(RB3LYP) =  -669.947674656     A.U. after    7 cycles
 SCF Done:  E(RB3LYP) =  -669.947675022     A.U. after    7 cycles
 SCF Done:  E(RB3LYP) =  -669.947675145     A.U. after    7 cycles
 SCF Done:  E(RB3LYP) =  -669.947675172     A.U. after    7 cycles
 SCF Done:  E(RB3LYP) =  -669.947675189     A.U. after    6 cycles
 Optimization completed.
    -- Stationary point found.
 Normal termination of Gaussian 16 at Thu Dec 10 21:16:39 2020.

 --------------------------------------------------------------------
 #N Geom=AllCheck Guess=TCheck SCRF=Check GenChk RB3LYP/6-31G(d) Freq
 --------------------------------------------------------------------

 Structure from the checkpoint file:  "JID_6144.chk"
 -------------------------------
 CID_100127336_JID_6144_neutraal
 -------------------------------
 Charge =  0 Multiplicity = 1

 SCF Done:  E(RB3LYP) =  -669.947675189     A.U. after    1 cycles

  Exact polarizability: 217.948  11.127 186.404  -3.652   0.679  81.283
 Approx polarizability: 314.983  15.010 317.573 -10.578   3.167 125.014

                      1                      2                      3
                      A                      A                      A
 Frequencies --     29.3926                56.2876                82.3738
 Red. masses --      3.7557                 3.8696                 2.5635
 Frc consts  --      0.0019                 0.0072                 0.0102
 IR Inten    --      0.9562                 0.4847                 1.0150

                      4                      5                      6
                      A                      A                      A
 Frequencies --    106.6176               111.4433               117.6401
 Red. masses --      1.4004                 3.0329                 1.8595
 Frc consts  --      0.0094                 0.0222                 0.0152
 IR Inten    --      0.7239                 2.1761                 0.9814

                      7                      8                      9
                      A                      A                      A
 Frequencies --    153.9385               179.2508               221.9931
 Red. masses --      1.3023                 2.5053                 3.6248
 Frc consts  --      0.0182                 0.0474                 0.1052
 IR Inten    --      1.1753                 3.6104                 5.0321

                     10                     11                     12
                      A                      A                      A
 Frequencies --    228.9622               289.2607               294.1405
 Red. masses --      2.8772                 1.4924                 2.5896
 Frc consts  --      0.0889                 0.0736                 0.1320
 IR Inten    --     17.6024                52.6983                24.7874

                     13                     14                     15
                      A                      A                      A
 Frequencies --    298.4135               326.0077               334.8555
 Red. masses --      3.3593                 2.5808                 2.5153
 Frc consts  --      0.1763                 0.1616                 0.1662
 IR Inten    --      1.1798                 1.2918                 9.1161

                     16                     17                     18
                      A                      A                      A
 Frequencies --    384.5500               448.9125               469.9160
 Red. masses --      3.5823                 3.4932                 4.4913
 Frc consts  --      0.3121                 0.4148                 0.5843
 IR Inten    --      3.4838                 9.7582                 2.1983

                     19                     20                     21
                      A                      A                      A
 Frequencies --    496.5326               514.2511               538.4294
 Red. masses --      3.5060                 3.6946                 3.4393
 Frc consts  --      0.5093                 0.5757                 0.5875
 IR Inten    --      2.3943                11.1265                 1.8544

                     22                     23                     24
                      A                      A                      A
 Frequencies --    562.6330               573.3408               640.1238
 Red. masses --      3.2819                 4.7002                 5.1172
 Frc consts  --      0.6121                 0.9103                 1.2354
 IR Inten    --      1.6067                 0.9338                 3.4317

                     25                     26                     27
                      A                      A                      A
 Frequencies --    655.8892               691.9579               722.7692
 Red. masses --      4.3605                 3.3764                 4.7972
 Frc consts  --      1.1052                 0.9525                 1.4765
 IR Inten    --      4.3563                 0.6471                 3.5122

                     28                     29                     30
                      A                      A                      A
 Frequencies --    780.9409               801.3904               837.0994
 Red. masses --      1.4978                 2.4101                 1.4848
 Frc consts  --      0.5382                 0.9120                 0.6130
 IR Inten    --     56.3238                 6.5284                13.6165

                     31                     32                     33
                      A                      A                      A
 Frequencies --    838.7044               852.2602               888.6821
 Red. masses --      1.9012                 1.7477                 3.9474
 Frc consts  --      0.7880                 0.7479                 1.8367
 IR Inten    --     20.8848                44.4435                 9.4819

                     34                     35                     36
                      A                      A                      A
 Frequencies --    899.3332               903.0321               931.4628
 Red. masses --      1.7005                 2.4962                 1.9368
 Frc consts  --      0.8103                 1.1993                 0.9901
 IR Inten    --     88.9658                23.3913                18.2830

                     37                     38                     39
                      A                      A                      A
 Frequencies --    959.3473               966.2293               981.7838
 Red. masses --      1.3095                 1.3744                 2.2712
 Frc consts  --      0.7101                 0.7560                 1.2898
 IR Inten    --      3.3740                 1.7423                15.0071

                     40                     41                     42
                      A                      A                      A
 Frequencies --   1025.9486              1054.3190              1063.0810
 Red. masses --      1.4483                 1.4245                 2.1254
 Frc consts  --      0.8982                 0.9330                 1.4152
 IR Inten    --     39.6297                 2.4843                32.1976

                     43                     44                     45
                      A                      A                      A
 Frequencies --   1085.3690              1096.5130              1108.3940
 Red. masses --      1.5825                 1.9945                 2.3087
 Frc consts  --      1.0983                 1.4129                 1.6711
 IR Inten    --      0.2864                 6.6325                17.1536

                     46                     47                     48
                      A                      A                      A
 Frequencies --   1128.6170              1151.0414              1198.4553
 Red. masses --      1.9770                 2.0785                 1.4776
 Frc consts  --      1.4837                 1.6225                 1.2504
 IR Inten    --      5.3985                43.9517                 5.2401

                     49                     50                     51
                      A                      A                      A
 Frequencies --   1205.3470              1221.8827              1255.9796
 Red. masses --      1.6284                 2.1067                 2.4851
 Frc consts  --      1.3940                 1.8532                 2.3098
 IR Inten    --      5.8523                 1.8760                20.9901

                     52                     53                     54
                      A                      A                      A
 Frequencies --   1268.7650              1291.1154              1309.0482
 Red. masses --      2.1140                 1.5313                 1.9516
 Frc consts  --      2.0050                 1.5040                 1.9704
 IR Inten    --      5.2688                21.0636                59.1343

                     55                     56                     57
                      A                      A                      A
 Frequencies --   1344.8430              1366.8477              1391.9508
 Red. masses --      2.9444                 1.1976                 4.1514
 Frc consts  --      3.1376                 1.3183                 4.7391
 IR Inten    --     18.6598                 4.7406                10.5434

                     58                     59                     60
                      A                      A                      A
 Frequencies --   1405.3762              1421.5370              1432.1500
 Red. masses --      1.4054                 1.6067                 1.7145
 Frc consts  --      1.6354                 1.9129                 2.0719
 IR Inten    --     49.2343                 1.9094                 1.3857

                     61                     62                     63
                      A                      A                      A
 Frequencies --   1446.5021              1447.2431              1464.5156
 Red. masses --      1.3260                 1.4382                 2.7323
 Frc consts  --      1.6347                 1.7748                 3.4528
 IR Inten    --      3.5688                 6.2552               100.5727

                     64                     65                     66
                      A                      A                      A
 Frequencies --   1497.7919              1511.1572              1511.4563
 Red. masses --      2.1630                 1.0551                 1.2621
 Frc consts  --      2.8590                 1.4195                 1.6988
 IR Inten    --     11.0711                 1.6478                 6.2887

                     67                     68                     69
                      A                      A                      A
 Frequencies --   1516.2360              1522.8783              1527.2914
 Red. masses --      1.2272                 1.1719                 1.1156
 Frc consts  --      1.6622                 1.6012                 1.5331
 IR Inten    --      3.8976                10.2733                 1.4876

                     70                     71                     72
                      A                      A                      A
 Frequencies --   1528.6928              1535.7476              1571.5683
 Red. masses --      1.2702                 1.0473                 3.3647
 Frc consts  --      1.7489                 1.4554                 4.8962
 IR Inten    --     31.1710                12.4618               117.1442

                     73                     74                     75
                      A                      A                      A
 Frequencies --   1622.2696              1654.0767              1664.0593
 Red. masses --      6.5571                 4.8253                 6.2652
 Frc consts  --     10.1674                 7.7784                10.2216
 IR Inten    --     65.5539                90.2647                26.2838

                     76                     77                     78
                      A                      A                      A
 Frequencies --   1694.3424              2969.5833              3029.2361
 Red. masses --      1.1004                 1.0724                 1.0718
 Frc consts  --      1.8613                 5.5720                 5.7949
 IR Inten    --     33.7854                62.4274                55.4717

                     79                     80                     81
                      A                      A                      A
 Frequencies --   3037.3375              3040.3104              3079.4347
 Red. masses --      1.0426                 1.0379                 1.0998
 Frc consts  --      5.6671                 5.6527                 6.1447
 IR Inten    --     38.5994                35.4805                30.3961

                     82                     83                     84
                      A                      A                      A
 Frequencies --   3084.4665              3088.9756              3126.5758
 Red. masses --      1.0907                 1.1001                 1.1005
 Frc consts  --      6.1140                 6.1845                 6.3383
 IR Inten    --     55.1070                11.7914                20.0391

                     85                     86                     87
                      A                      A                      A
 Frequencies --   3144.5636              3151.7416              3180.0567
 Red. masses --      1.0927                 1.0884                 1.0949
 Frc consts  --      6.3659                 6.3701                 6.5240
 IR Inten    --     13.2828                42.7122                 1.6784

                     88                     89                     90
                      A                      A                      A
 Frequencies --   3181.0463              3188.1429              3223.6833
 Red. masses --      1.0888                 1.0930                 1.0918
 Frc consts  --      6.4913                 6.5455                 6.6848
 IR Inten    --     18.7053                28.3699                11.1025

                     91                     92                     93
                      A                      A                      A
 Frequencies --   3474.6838              3543.4012              3558.2429
 Red. masses --      1.0503                 1.0744                 1.0917
 Frc consts  --      7.4713                 7.9480                 8.1441
 IR Inten    --      1.0350                 9.5657                 0.4052

 - Thermochemistry -
 -------------------
 Temperature   298.150 Kelvin.  Pressure   1.00000 Atm.
 Atom     1 has atomic number  6 and mass  12.00000

 Molecular mass:   215.14225 amu.
 Principal axes and moments of inertia in atomic units:
                           1         2         3
     Eigenvalues --  1966.676365419.909737182.17609
           X            1.00000   0.00258  -0.00091
           Y           -0.00258   1.00000   0.00047
           Z            0.00091  -0.00046   1.00000
 This molecule is an asymmetric top.
 Rotational symmetry number  1.
 Warning -- assumption of classical behavior for rotation
           may cause significant error
 Rotational temperatures (Kelvin)      0.04404     0.01598     0.01206
 Rotational constants (GHZ):           0.91766     0.33298     0.25128
 Zero-point vibrational energy     746553.8 (Joules/Mol)
                                  178.43063 (Kcal/Mol)
 Warning -- explicit consideration of  23 degrees of freedom as
           vibrations may cause significant error
 Vibrational temperatures:     42.29    80.99   118.52   153.40   160.34
          (Kelvin)            169.26   221.48   257.90   319.40   329.43
                              416.18   423.20   429.35   469.05   481.78
                              553.28   645.88   676.10   714.40   739.89
                              774.68   809.50   824.91   921.00   943.68
                              995.57  1039.90  1123.60  1153.02  1204.40
                             1206.71  1226.21  1278.62  1293.94  1299.26
                             1340.17  1380.29  1390.19  1412.57  1476.11
                             1516.93  1529.54  1561.60  1577.64  1594.73
                             1623.83  1656.09  1724.31  1734.23  1758.02
                             1807.07  1825.47  1857.63  1883.43  1934.93
                             1966.59  2002.71  2022.02  2045.27  2060.54
                             2081.19  2082.26  2107.11  2154.99  2174.22
                             2174.65  2181.53  2191.08  2197.43  2199.45
                             2209.60  2261.14  2334.08  2379.85  2394.21
                             2437.78  4272.57  4358.40  4370.05  4374.33
                             4430.62  4437.86  4444.35  4498.45  4524.33
                             4534.65  4575.39  4576.82  4587.03  4638.16
                             4999.29  5098.16  5119.52

 Zero-point correction=                           0.284347 (Hartree/Particle)
 Thermal correction to Energy=                    0.299554
 Thermal correction to Enthalpy=                  0.300498
 Thermal correction to Gibbs Free Energy=         0.241580
 Sum of electronic and zero-point Energies=           -669.663328
 Sum of electronic and thermal Energies=              -669.648122
 Sum of electronic and thermal Enthalpies=            -669.647177
 Sum of electronic and thermal Free Energies=         -669.706095

                     E (Thermal)             CV                S
                      KCal/Mol        Cal/Mol-Kelvin    Cal/Mol-Kelvin
 Total                  187.973             58.431            124.003
 Electronic               0.000              0.000              0.000
 Translational            0.889              2.981             42.002
 Rotational               0.889              2.981             32.704
 Vibrational            186.195             52.469             49.297
 Vibration     1          0.593              1.984              5.870
 Vibration     2          0.596              1.975              4.583
 Vibration     3          0.600              1.961              3.834
 Vibration     4          0.605              1.944              3.330
 Vibration     5          0.607              1.940              3.244
 Vibration     6          0.608              1.935              3.139
 Vibration     7          0.619              1.898              2.623
 Vibration     8          0.629              1.868              2.336
 Vibration     9          0.648              1.808              1.943
 Vibration    10          0.652              1.797              1.887
 Vibration    11          0.686              1.694              1.478
 Vibration    12          0.689              1.685              1.450
 Vibration    13          0.692              1.677              1.426
 Vibration    14          0.710              1.623              1.280
 Vibration    15          0.716              1.606              1.237
 Vibration    16          0.753              1.503              1.021
 Vibration    17          0.808              1.363              0.799
 Vibration    18          0.827              1.317              0.738
 Vibration    19          0.852              1.258              0.667
 Vibration    20          0.869              1.218              0.623
 Vibration    21          0.893              1.165              0.569
 Vibration    22          0.918              1.112              0.519
 Vibration    23          0.930              1.089              0.498

                           ! Non-Optimized Parameters !
 Normal termination of Gaussian 16 at Thu Dec 10 21:27:12 2020.

 ----------------------------------------------------------------------
 # B3LYP/6-311++G(d,p) empiricaldispersion=gd3bj scf=xqc pop=npa geom=c
 heck
 ----------------------------------------------------------------------

 ---------------------------------------
 CID_100127336_JID_6144_Energie_neutraal
 ---------------------------------------
 Structure from the checkpoint file:  "JID_6144.chk"
 Charge =  0 Multiplicity = 1

 SCF Done:  E(RB3LYP) =  -670.130917336     A.U. after   15 cycles
 Normal termination of Gaussian 16 at Thu Dec 10 21:31:38 2020.

 ----------------------------------------------------------------------
 # B3LYP/6-311++G(d,p) empiricaldispersion=gd3bj scf=xqc pop=npa geom=c
 heck
 ----------------------------------------------------------------------

 -------------------------------------
 CID_100127336_JID_6144_Energie_kation
 -------------------------------------
 Structure from the checkpoint file:  "JID_6144.chk"
 Charge =  1 Multiplicity = 2

 SCF Done:  E(UB3LYP) =  -669.858498958     A.U. after   22 cycles
 Normal termination of Gaussian 16 at Thu Dec 10 21:40:06 2020.
 Gaussian 16:  ES64L-G16RevA.03 25-Dec-2016

 ----------------------------------------------------------------------
 # B3LYP/6-311++G(d,p) empiricaldispersion=gd3bj scf=xqc pop=npa geom=c
 heck
 ----------------------------------------------------------------------

 ------------------------------------
 CID_100127336_JID_6144_Energie_anion
 ------------------------------------
 Structure from the checkpoint file:  "JID_6144.chk"
 Charge = -1 Multiplicity = 2

                         Standard orientation:
 ---------------------------------------------------------------------
 Center     Atomic      Atomic             Coordinates (Angstroms)
 Number     Number       Type             X           Y           Z
 ---------------------------------------------------------------------
      1          6           0       -3.645433   -2.304314   -0.011012
      2          6           0       -2.426804   -1.416092   -0.061832
      3          6           0       -2.550050   -0.035499    0.049571
      4          6           0       -1.379723    0.786376   -0.006177
      5          7           0       -1.545744    2.143201    0.035782
      6          6           0       -0.467679    2.893864   -0.054016
      7          6           0        0.849011    2.399110   -0.130249
      8          6           0        1.061688    1.031350   -0.132883
      9          6           0       -0.089380    0.175507   -0.128243
     10          6           0       -0.008702   -1.227987   -0.284735
     11          6           0       -1.149471   -1.995131   -0.250857
     12          7           0        2.352595    0.496234   -0.197347
     13          6           0        2.839667   -0.380000    0.885362
     14          6           0        3.832663   -1.401129    0.339464
     15          7           0        4.890926   -0.706409   -0.403029
     16          6           0       -3.904564    0.603880    0.212804
     17          1           0       -4.180821   -2.199219    0.941084
     18          1           0       -3.372872   -3.357321   -0.128123
     19          1           0       -4.362467   -2.051734   -0.802268
     20          1           0       -0.627501    3.972005   -0.035669
     21          1           0        1.688865    3.089001   -0.144437
     22          1           0        0.953106   -1.691105   -0.472644
     23          1           0       -1.077757   -3.071810   -0.383526
     24          1           0        3.036155    1.227683   -0.364597
     25          1           0        3.330509    0.223990    1.661591
     26          1           0        1.988251   -0.883579    1.346292
     27          1           0        4.289383   -1.931267    1.183322
     28          1           0        3.288969   -2.149321   -0.263567
     29          1           0        5.654744   -1.348560   -0.603339
     30          1           0        4.515071   -0.425758   -1.307589
     31          1           0       -4.411293    0.230796    1.112255
     32          1           0       -3.805337    1.686182    0.287236
     33          1           0       -4.558786    0.369216   -0.637047
 ---------------------------------------------------------------------

 SCF Done:  E(UB3LYP) =  -670.130095295     A.U. after   29 cycles

 The electronic state is 2-A.
 Alpha  occ. eigenvalues --  -14.19829 -14.18943 -14.15060 -10.08734 -10.08629
 Alpha  occ. eigenvalues --  -10.07319 -10.07037 -10.06369 -10.06001 -10.04843
 Alpha  occ. eigenvalues --  -10.04718 -10.03995 -10.03799 -10.03785 -10.03468
 Alpha  occ. eigenvalues --  -10.03160  -0.81874  -0.79621  -0.77233  -0.72004
 Alpha  occ. eigenvalues --   -0.66773  -0.64158  -0.63069  -0.60006  -0.58186
 Alpha  occ. eigenvalues --   -0.55066  -0.50792  -0.48806  -0.48190  -0.44693
 Alpha  occ. eigenvalues --   -0.40921  -0.39750  -0.37543  -0.37081  -0.36358
 Alpha  occ. eigenvalues --   -0.34402  -0.32943  -0.32175  -0.31583  -0.29942
 Alpha  occ. eigenvalues --   -0.29374  -0.28949  -0.28543  -0.27333  -0.27059
 Alpha  occ. eigenvalues --   -0.26860  -0.26448  -0.25667  -0.24812  -0.22016
 Alpha  occ. eigenvalues --   -0.21202  -0.20269  -0.19034  -0.14524  -0.12365
 Alpha  occ. eigenvalues --   -0.11848  -0.11418  -0.08563   0.04381
 Alpha virt. eigenvalues --    0.06361   0.07631   0.08552   0.08814   0.09353
 Alpha virt. eigenvalues --    0.09969   0.10644   0.10742   0.11603   0.11706
 Alpha virt. eigenvalues --    0.12357   0.12710   0.12936   0.13779   0.14085

  Beta  occ. eigenvalues --  -14.19836 -14.18898 -14.14810 -10.08717 -10.08606
  Beta  occ. eigenvalues --  -10.07077 -10.06990 -10.06280 -10.06007 -10.04794
  Beta  occ. eigenvalues --  -10.04782 -10.04007 -10.03742 -10.03616 -10.03474
  Beta  occ. eigenvalues --  -10.02969  -0.81674  -0.79339  -0.77109  -0.71750
  Beta  occ. eigenvalues --   -0.66509  -0.63995  -0.62847  -0.59871  -0.58080
  Beta  occ. eigenvalues --   -0.54916  -0.50563  -0.48708  -0.47925  -0.44520
  Beta  occ. eigenvalues --   -0.40762  -0.39683  -0.37343  -0.36972  -0.36276
  Beta  occ. eigenvalues --   -0.34303  -0.32866  -0.31984  -0.31491  -0.29824
  Beta  occ. eigenvalues --   -0.29150  -0.28829  -0.28400  -0.27256  -0.26903
  Beta  occ. eigenvalues --   -0.26770  -0.26162  -0.25585  -0.24666  -0.21905
  Beta  occ. eigenvalues --   -0.21035  -0.19496  -0.18296  -0.14408  -0.11849
  Beta  occ. eigenvalues --   -0.11496  -0.11000  -0.07511
  Beta virt. eigenvalues --    0.07042   0.07614   0.08524   0.08926   0.09007
  Beta virt. eigenvalues --    0.09405   0.09963   0.10682   0.10909   0.11652
  Beta virt. eigenvalues --    0.11733   0.12410   0.12862   0.13042   0.13791

 Mulliken charges and spin densities:
               1          2
     1  C   -0.425740  -0.042983
     2  C    0.818335   0.019689
     3  C    0.145297   0.145369
     4  C   -0.565934   0.002600
     5  N   -0.013053   0.110051
     6  C   -0.163836   0.070431
     7  C   -0.112122   0.073212
     8  C   -0.239365   0.009534
     9  C    0.404826  -0.183146
    10  C   -0.454542   0.149950
    11  C   -0.835180   0.182638
    12  N   -0.010743  -0.019085
    13  C   -0.396648   0.126352
    14  C    0.608226  -0.981409
    15  N   -0.368286  -0.021380
    16  C   -0.504545   0.006698
    17  H    0.132997  -0.000660
    18  H    0.132370   0.006421
    19  H    0.124399   0.007635
    20  H    0.134256  -0.003797
    21  H    0.026597   0.075405
    22  H   -0.005058   0.075278
    23  H    0.064681   0.021658
    24  H    0.226820   0.009355
    25  H    0.063880   0.074742
    26  H    0.190350  -0.024180
    27  H   -0.119300   0.239752
    28  H   -0.055233   0.184978
    29  H   -0.231459   0.478713
    30  H    0.033649   0.193414
    31  H    0.108383   0.009349
    32  H    0.167588  -0.000275
    33  H    0.118390   0.003693
 Sum of Mulliken charges =  -1.00000   1.00000

 Dipole moment (field-independent basis, Debye):
    X=             -3.7744    Y=             -0.9783    Z=              1.3806  Tot=              4.1363
 Quadrupole moment (field-independent basis, Debye-Ang):
   XX=           -167.5456   YY=           -122.2034   ZZ=           -112.9068
   XY=             12.2423   XZ=              4.4779   YZ=             -1.2784

 Summary of Natural Population Analysis:

                                       Natural Population
                Natural  -----------------------------------------------
    Atom  No    Charge         Core      Valence    Rydberg      Total
 -----------------------------------------------------------------------
      C    1   -0.29131      0.99965     2.28697    0.00469     3.29131
      C    2   -0.01352      0.99948     2.00641    0.00763     3.01352
      C    3    0.01128      0.99946     1.98047    0.00879     2.98872
      C    4    0.08405      0.99945     1.90270    0.01380     2.91595
      N    5   -0.22713      0.99968     2.71665    0.01080     3.72713
      C    6    0.05268      0.99962     1.93360    0.01410     2.94732
      C    7   -0.16247      0.99951     2.15217    0.01079     3.16247
      C    8    0.16419      0.99945     1.82535    0.01101     2.83581
      C    9   -0.06596      0.99945     2.05681    0.00969     3.06596
      C   10   -0.06803      0.99954     2.05732    0.01117     3.06803
      C   11   -0.09746      0.99953     2.08928    0.00865     3.09746
      N   12   -0.32765      0.99968     2.81672    0.01125     3.82765
      C   13   -0.08623      0.99961     2.07585    0.01078     3.08623
      C   14   -0.09234      0.99964     2.08093    0.01177     3.09234
      N   15   -0.42961      0.99977     2.91882    0.01102     3.92961
      C   16   -0.29155      0.99965     2.28805    0.00385     3.29155
      H   17    0.09815      0.00000     0.40077    0.00107     0.40185
      H   18    0.09624      0.00000     0.40291    0.00085     0.40376
      H   19    0.09822      0.00000     0.40070    0.00108     0.40178
      H   20    0.07741      0.00000     0.42144    0.00115     0.42259
      H   21    0.09365      0.00000     0.40532    0.00103     0.40635
      H   22    0.09566      0.00000     0.40204    0.00230     0.40434
      H   23    0.08919      0.00000     0.40953    0.00129     0.41081
      H   24    0.18090      0.00000     0.31656    0.00254     0.31910
      H   25    0.08367      0.00000     0.41500    0.00133     0.41633
      H   26    0.10242      0.00000     0.39643    0.00116     0.39758
      H   27    0.08750      0.00000     0.41138    0.00112     0.41250
      H   28    0.08006      0.00000     0.41808    0.00186     0.41994
      H   29    0.17634      0.00000     0.32056    0.00311     0.32366
      H   30    0.17743      0.00000     0.32022    0.00235     0.32257
      H   31    0.09330      0.00000     0.40551    0.00119     0.40670
      H   32    0.11729      0.00000     0.38147    0.00124     0.38271
      H   33    0.09368      0.00000     0.40510    0.00122     0.40632
 =======================================================================
   * Total *    0.00004     15.99317    41.82110    0.18568    57.99996

 Normal termination of Gaussian 16 at Thu Dec 10 21:51:15 2020.
