 Gaussian 16, Revision A.03,

 -----------------------------------------------------------
 # opt freq B3LYP/6-31G(d) empiricaldispersion=gd3bj scf=xqc
 -----------------------------------------------------------

 ------------------------------
 CID_81221622_JID_8194_neutraal
 ------------------------------
 Symbolic Z-matrix:
 Charge =  0 Multiplicity = 1

 SCF Done:  E(RB3LYP) =  -732.533194446     A.U. after   14 cycles
 SCF Done:  E(RB3LYP) =  -732.541470256     A.U. after   12 cycles
 SCF Done:  E(RB3LYP) =  -732.543629811     A.U. after   13 cycles
 SCF Done:  E(RB3LYP) =  -732.545360545     A.U. after   13 cycles
 SCF Done:  E(RB3LYP) =  -732.545512662     A.U. after   12 cycles
 SCF Done:  E(RB3LYP) =  -732.546029836     A.U. after   12 cycles
 SCF Done:  E(RB3LYP) =  -732.546039847     A.U. after   12 cycles
 SCF Done:  E(RB3LYP) =  -732.546619196     A.U. after   12 cycles
 SCF Done:  E(RB3LYP) =  -732.546629385     A.U. after   12 cycles
 SCF Done:  E(RB3LYP) =  -732.546704948     A.U. after   11 cycles
 SCF Done:  E(RB3LYP) =  -732.546707295     A.U. after    8 cycles
 SCF Done:  E(RB3LYP) =  -732.546708217     A.U. after    8 cycles
 SCF Done:  E(RB3LYP) =  -732.546708333     A.U. after    7 cycles
 Optimization completed.
    -- Stationary point found.
 Normal termination of Gaussian 16 at Fri Dec 11 19:29:00 2020.

 --------------------------------------------------------------------
 #N Geom=AllCheck Guess=TCheck SCRF=Check GenChk RB3LYP/6-31G(d) Freq
 --------------------------------------------------------------------

 Structure from the checkpoint file:  "JID_8194.chk"
 ------------------------------
 CID_81221622_JID_8194_neutraal
 ------------------------------
 Charge =  0 Multiplicity = 1

 SCF Done:  E(RB3LYP) =  -732.546708333     A.U. after    1 cycles

  Exact polarizability: 214.572 -19.914 187.042  27.617  12.440 128.802
 Approx polarizability: 304.995 -41.729 334.406  55.717  30.925 202.858

                      1                      2                      3
                      A                      A                      A
 Frequencies --     31.3176                53.1152                56.5282
 Red. masses --      4.1179                 3.9664                 3.8746
 Frc consts  --      0.0024                 0.0066                 0.0073
 IR Inten    --      0.0709                 0.5125                 0.1588

                      4                      5                      6
                      A                      A                      A
 Frequencies --     84.0847               114.2806               131.0106
 Red. masses --      2.7363                 3.5014                 3.5203
 Frc consts  --      0.0114                 0.0269                 0.0356
 IR Inten    --      0.1027                 1.0394                 0.8927

                      7                      8                      9
                      A                      A                      A
 Frequencies --    146.5421               184.8941               197.5576
 Red. masses --      2.7300                 3.9193                 1.4531
 Frc consts  --      0.0345                 0.0789                 0.0334
 IR Inten    --      1.0247                 2.1737                 0.1185

                     10                     11                     12
                      A                      A                      A
 Frequencies --    208.7230               226.0690               245.4040
 Red. masses --      1.6444                 1.1523                 1.8755
 Frc consts  --      0.0422                 0.0347                 0.0665
 IR Inten    --      0.1957                 0.3536                 0.0626

                     13                     14                     15
                      A                      A                      A
 Frequencies --    270.8510               290.0270               325.6282
 Red. masses --      1.7582                 2.5577                 2.9343
 Frc consts  --      0.0760                 0.1268                 0.1833
 IR Inten    --      1.1532                 1.1194                 3.2631

                     16                     17                     18
                      A                      A                      A
 Frequencies --    335.9667               374.0418               411.3122
 Red. masses --      2.4879                 2.2988                 2.4410
 Frc consts  --      0.1655                 0.1895                 0.2433
 IR Inten    --      0.7454                 0.1311                 1.2582

                     19                     20                     21
                      A                      A                      A
 Frequencies --    436.5066               445.3627               448.3946
 Red. masses --      3.3800                 3.4195                 2.8068
 Frc consts  --      0.3794                 0.3996                 0.3325
 IR Inten    --      0.7517                 1.6568                 0.8741

                     22                     23                     24
                      A                      A                      A
 Frequencies --    473.2156               483.7791               498.3182
 Red. masses --      2.4558                 3.3570                 4.7302
 Frc consts  --      0.3240                 0.4629                 0.6921
 IR Inten    --      4.5066                 0.1832                 0.9579

                     25                     26                     27
                      A                      A                      A
 Frequencies --    535.6184               568.3690               584.1851
 Red. masses --      5.0500                 4.4009                 4.6150
 Frc consts  --      0.8536                 0.8376                 0.9279
 IR Inten    --      0.4528                 1.4343                 2.2072

                     28                     29                     30
                      A                      A                      A
 Frequencies --    617.7549               661.7822               701.5599
 Red. masses --      2.6652                 3.2515                 4.8192
 Frc consts  --      0.5993                 0.8390                 1.3975
 IR Inten    --      0.9914                 2.8880                 6.6922

                     31                     32                     33
                      A                      A                      A
 Frequencies --    739.5632               772.9661               812.0561
 Red. masses --      1.7446                 1.2119                 2.2860
 Frc consts  --      0.5622                 0.4266                 0.8882
 IR Inten    --     63.2082                 3.8193                39.0814

                     34                     35                     36
                      A                      A                      A
 Frequencies --    824.6711               841.6734               845.5376
 Red. masses --      3.7604                 2.2791                 1.8104
 Frc consts  --      1.5068                 0.9512                 0.7626
 IR Inten    --      3.8804                13.5271                36.0545

                     37                     38                     39
                      A                      A                      A
 Frequencies --    854.1215               896.1344               900.0442
 Red. masses --      2.6968                 2.8402                 1.8941
 Frc consts  --      1.1591                 1.3438                 0.9040
 IR Inten    --      1.5082                 5.2859                 6.6057

                     40                     41                     42
                      A                      A                      A
 Frequencies --    936.2963               940.0462               949.4872
 Red. masses --      1.8273                 1.5381                 1.4364
 Frc consts  --      0.9438                 0.8008                 0.7630
 IR Inten    --      2.3790                 1.2136                 4.4137

                     43                     44                     45
                      A                      A                      A
 Frequencies --    965.8933               974.7070               978.9763
 Red. masses --      1.4079                 1.4779                 1.3319
 Frc consts  --      0.7739                 0.8273                 0.7521
 IR Inten    --      0.1433                 1.0827                 1.6406

                     46                     47                     48
                      A                      A                      A
 Frequencies --    989.4917               993.7989              1024.8645
 Red. masses --      1.7469                 1.3333                 2.0792
 Frc consts  --      1.0077                 0.7758                 1.2867
 IR Inten    --      1.0360                 1.2643                34.9505

                     49                     50                     51
                      A                      A                      A
 Frequencies --   1061.1468              1064.1034              1084.1898
 Red. masses --      2.6246                 2.6411                 1.7450
 Frc consts  --      1.7413                 1.7620                 1.2085
 IR Inten    --      2.4719                 0.7158                 0.2743

                     52                     53                     54
                      A                      A                      A
 Frequencies --   1110.0759              1129.0117              1146.5711
 Red. masses --      2.3450                 1.8690                 2.1676
 Frc consts  --      1.7026                 1.4036                 1.6789
 IR Inten    --      6.4172                 4.2860                 8.8826

                     55                     56                     57
                      A                      A                      A
 Frequencies --   1156.3234              1168.9325              1176.7475
 Red. masses --      1.9277                 1.2747                 1.6149
 Frc consts  --      1.5186                 1.0262                 1.3176
 IR Inten    --     15.0609                 3.6208                16.6598

                     58                     59                     60
                      A                      A                      A
 Frequencies --   1200.0712              1204.4857              1220.0289
 Red. masses --      1.3148                 1.6728                 1.7102
 Frc consts  --      1.1156                 1.4299                 1.4998
 IR Inten    --      3.2382                 5.3821                 7.3960

                     61                     62                     63
                      A                      A                      A
 Frequencies --   1239.7082              1256.5115              1278.1580
 Red. masses --      1.8416                 1.8850                 1.5620
 Frc consts  --      1.6675                 1.7535                 1.5034
 IR Inten    --      0.4293                 0.8282                 3.5807

                     64                     65                     66
                      A                      A                      A
 Frequencies --   1280.3555              1286.0411              1321.0929
 Red. masses --      1.9098                 1.5833                 1.4378
 Frc consts  --      1.8446                 1.5428                 1.4785
 IR Inten    --      2.4217                 1.4734                 3.1719

                     67                     68                     69
                      A                      A                      A
 Frequencies --   1355.9699              1366.5849              1377.3500
 Red. masses --      1.4783                 1.6276                 1.6497
 Frc consts  --      1.6015                 1.7909                 1.8439
 IR Inten    --      2.0903                 5.5674                 4.0384

                     70                     71                     72
                      A                      A                      A
 Frequencies --   1395.6283              1401.2341              1405.6080
 Red. masses --      1.6602                 1.3868                 4.0742
 Frc consts  --      1.9053                 1.6043                 4.7427
 IR Inten    --      0.5738                 8.2684                16.0229

                     73                     74                     75
                      A                      A                      A
 Frequencies --   1413.0192              1423.7797              1439.0285
 Red. masses --      1.4454                 1.2692                 1.9096
 Frc consts  --      1.7003                 1.5159                 2.3299
 IR Inten    --      2.3812                 6.1508                 1.5435

                     76                     77                     78
                      A                      A                      A
 Frequencies --   1446.3114              1476.1244              1480.8985
 Red. masses --      1.2325                 1.9955                 1.1622
 Frc consts  --      1.5190                 2.5619                 1.5017
 IR Inten    --      9.7269                 0.9960                 1.5357

                     79                     80                     81
                      A                      A                      A
 Frequencies --   1507.6797              1512.8455              1516.7952
 Red. masses --      1.1330                 1.1351                 1.0743
 Frc consts  --      1.5174                 1.5307                 1.4562
 IR Inten    --     12.6254                 0.7015                 1.9026

                     82                     83                     84
                      A                      A                      A
 Frequencies --   1519.7160              1523.1190              1523.7874
 Red. masses --      2.2579                 1.0696                 1.1536
 Frc consts  --      3.0724                 1.4620                 1.5781
 IR Inten    --      8.1239                 2.3762                 2.7274

                     85                     86                     87
                      A                      A                      A
 Frequencies --   1533.5607              1539.0682              1548.9975
 Red. masses --      1.0694                 1.0665                 1.0601
 Frc consts  --      1.4819                 1.4884                 1.4986
 IR Inten    --      7.3552                 5.7830                 9.9653

                     88                     89                     90
                      A                      A                      A
 Frequencies --   1552.9366              1558.0809              1626.9929
 Red. masses --      3.7134                 1.0512                 6.8566
 Frc consts  --      5.2763                 1.5036                10.6937
 IR Inten    --     28.7314                 2.8780                 5.0562

                     91                     92                     93
                      A                      A                      A
 Frequencies --   1657.4232              1670.5476              2991.1700
 Red. masses --      5.2396                 6.0839                 1.0742
 Frc consts  --      8.4803                10.0034                 5.6626
 IR Inten    --     12.3165                 5.1840                23.4814

                     94                     95                     96
                      A                      A                      A
 Frequencies --   2996.9623              3015.9667              3037.9541
 Red. masses --      1.0575                 1.0827                 1.0400
 Frc consts  --      5.5962                 5.8023                 5.6554
 IR Inten    --     41.5892                42.1666                24.5708

                     97                     98                     99
                      A                      A                      A
 Frequencies --   3044.1821              3054.6765              3063.0192
 Red. masses --      1.0403                 1.0629                 1.0658
 Frc consts  --      5.6801                 5.8433                 5.8912
 IR Inten    --     44.1314                21.3404                75.6055

                    100                    101                    102
                      A                      A                      A
 Frequencies --   3067.4274              3095.2098              3095.2436
 Red. masses --      1.0830                 1.1030                 1.1009
 Frc consts  --      6.0037                 6.2258                 6.2142
 IR Inten    --     55.0874                 6.9440                15.8570

                    103                    104                    105
                      A                      A                      A
 Frequencies --   3104.8389              3108.0224              3121.5292
 Red. masses --      1.0999                 1.1023                 1.0951
 Frc consts  --      6.2474                 6.2736                 6.2869
 IR Inten    --     63.0476                32.7553                46.4297

                    106                    107                    108
                      A                      A                      A
 Frequencies --   3125.2986              3155.6642              3163.2202
 Red. masses --      1.0978                 1.0974                 1.0893
 Frc consts  --      6.3174                 6.4386                 6.4220
 IR Inten    --     20.7453                15.3477                28.5488

                    109                    110                    111
                      A                      A                      A
 Frequencies --   3181.8924              3185.7791              3189.0361
 Red. masses --      1.0863                 1.0891                 1.0902
 Frc consts  --      6.4799                 6.5127                 6.5327
 IR Inten    --      1.7743                 3.8132                27.0846

                    112                    113                    114
                      A                      A                      A
 Frequencies --   3208.3214              3214.5475              3536.3003
 Red. masses --      1.0963                 1.0960                 1.0727
 Frc consts  --      6.6485                 6.6729                 7.9038
 IR Inten    --     26.9039                22.9632                 7.3132

 - Thermochemistry -
 -------------------
 Temperature   298.150 Kelvin.  Pressure   1.00000 Atm.
 Atom     1 has atomic number  6 and mass  12.00000

 Molecular mass:   242.17830 amu.
 Principal axes and moments of inertia in atomic units:
                           1         2         3
     Eigenvalues --  2383.507426371.091996901.46282
           X            0.99996  -0.00213   0.00849
           Y            0.00213   1.00000   0.00019
           Z           -0.00849  -0.00017   0.99996
 This molecule is an asymmetric top.
 Rotational symmetry number  1.
 Warning -- assumption of classical behavior for rotation
           may cause significant error
 Rotational temperatures (Kelvin)      0.03634     0.01359     0.01255
 Rotational constants (GHZ):           0.75718     0.28327     0.26150
 Zero-point vibrational energy     928873.0 (Joules/Mol)
                                  222.00597 (Kcal/Mol)
 Warning -- explicit consideration of  28 degrees of freedom as
           vibrations may cause significant error
 Vibrational temperatures:     45.06    76.42    81.33   120.98   164.42
          (Kelvin)            188.49   210.84   266.02   284.24   300.31
                              325.26   353.08   389.69   417.28   468.51
                              483.38   538.16   591.79   628.04   640.78
                              645.14   680.85   696.05   716.97   770.64
                              817.76   840.51   888.81   952.16  1009.39
                             1064.07  1112.13  1168.37  1186.52  1210.98
                             1216.54  1228.89  1289.34  1294.96  1347.12
                             1352.52  1366.10  1389.70  1402.39  1408.53
                             1423.66  1429.86  1474.55  1526.75  1531.01
                             1559.91  1597.15  1624.40  1649.66  1663.69
                             1681.83  1693.08  1726.63  1732.99  1755.35
                             1783.66  1807.84  1838.98  1842.15  1850.33
                             1900.76  1950.94  1966.21  1981.70  2008.00
                             2016.06  2022.36  2033.02  2048.50  2070.44
                             2080.92  2123.81  2130.68  2169.21  2176.65
                             2182.33  2186.53  2191.43  2192.39  2206.45
                             2214.38  2228.66  2234.33  2241.73  2340.88
                             2384.66  2403.55  4303.63  4311.96  4339.30
                             4370.94  4379.90  4395.00  4407.00  4413.34
                             4453.32  4453.37  4467.17  4471.75  4491.18
                             4496.61  4540.30  4551.17  4578.03  4583.63
                             4588.31  4616.06  4625.02  5087.95

 Zero-point correction=                           0.353789 (Hartree/Particle)
 Thermal correction to Energy=                    0.370878
 Thermal correction to Enthalpy=                  0.371823
 Thermal correction to Gibbs Free Energy=         0.309244
 Sum of electronic and zero-point Energies=           -732.192919
 Sum of electronic and thermal Energies=              -732.175830
 Sum of electronic and thermal Enthalpies=            -732.174886
 Sum of electronic and thermal Free Energies=         -732.237464

                     E (Thermal)             CV                S
                      KCal/Mol        Cal/Mol-Kelvin    Cal/Mol-Kelvin
 Total                  232.730             67.514            131.708
 Electronic               0.000              0.000              0.000
 Translational            0.889              2.981             42.355
 Rotational               0.889              2.981             33.016
 Vibrational            230.952             61.552             56.337
 Vibration     1          0.594              1.983              5.744
 Vibration     2          0.596              1.976              4.698
 Vibration     3          0.596              1.975              4.575
 Vibration     4          0.601              1.960              3.793
 Vibration     5          0.607              1.938              3.195
 Vibration     6          0.612              1.922              2.931
 Vibration     7          0.617              1.906              2.717
 Vibration     8          0.631              1.860              2.278
 Vibration     9          0.637              1.843              2.156
 Vibration    10          0.642              1.827              2.055
 Vibration    11          0.650              1.801              1.910
 Vibration    12          0.660              1.770              1.763
 Vibration    13          0.675              1.727              1.591
 Vibration    14          0.686              1.692              1.474
 Vibration    15          0.710              1.624              1.282
 Vibration    16          0.717              1.604              1.231
 Vibration    17          0.745              1.525              1.063
 Vibration    18          0.775              1.446              0.922
 Vibration    19          0.797              1.391              0.838
 Vibration    20          0.805              1.371              0.810
 Vibration    21          0.807              1.364              0.801
 Vibration    22          0.830              1.309              0.729
 Vibration    23          0.840              1.286              0.700
 Vibration    24          0.854              1.254              0.662
 Vibration    25          0.891              1.171              0.575
 Vibration    26          0.924              1.100              0.507
 Vibration    27          0.941              1.066              0.478
 Vibration    28          0.978              0.994              0.420

 Optimization completed.
    -- Stationary point found.
 Normal termination of Gaussian 16 at Fri Dec 11 19:48:44 2020.

 ----------------------------------------------------------------------
 # B3LYP/6-311++G(d,p) empiricaldispersion=gd3bj scf=xqc pop=npa geom=c
 heck
 ----------------------------------------------------------------------

 --------------------------------------
 CID_81221622_JID_8194_Energie_neutraal
 --------------------------------------
 Structure from the checkpoint file:  "JID_8194.chk"
 Charge =  0 Multiplicity = 1

 SCF Done:  E(RB3LYP) =  -732.738118366     A.U. after   15 cycles
 Normal termination of Gaussian 16 at Fri Dec 11 19:56:52 2020.

 ----------------------------------------------------------------------
 # B3LYP/6-311++G(d,p) empiricaldispersion=gd3bj scf=xqc pop=npa geom=c
 heck
 ----------------------------------------------------------------------

 ------------------------------------
 CID_81221622_JID_8194_Energie_kation
 ------------------------------------
 Structure from the checkpoint file:  "JID_8194.chk"
 Charge =  1 Multiplicity = 2

 SCF Done:  E(UB3LYP) =  -732.464903484     A.U. after   21 cycles
 Normal termination of Gaussian 16 at Fri Dec 11 20:12:29 2020.
 Gaussian 16:  ES64L-G16RevA.03 25-Dec-2016

 ----------------------------------------------------------------------
 # B3LYP/6-311++G(d,p) empiricaldispersion=gd3bj scf=xqc pop=npa geom=c
 heck
 ----------------------------------------------------------------------

 -----------------------------------
 CID_81221622_JID_8194_Energie_anion
 -----------------------------------
 Structure from the checkpoint file:  "JID_8194.chk"
 Charge = -1 Multiplicity = 2

                         Standard orientation:
 ---------------------------------------------------------------------
 Center     Atomic      Atomic             Coordinates (Angstroms)
 Number     Number       Type             X           Y           Z
 ---------------------------------------------------------------------
      1          6           0       -4.115582   -0.101902   -1.126069
      2          6           0       -3.198754    0.263731    0.048951
      3          6           0       -4.036493    0.537366    1.304412
      4          6           0       -2.132849   -0.823831    0.322876
      5          6           0       -1.348919   -1.266409   -0.936598
      6          6           0       -0.639452   -0.159034   -1.747526
      7          6           0        0.389400    0.641564   -0.986264
      8          6           0        0.183819    1.974312   -0.680186
      9          6           0        1.118142    2.725436    0.071614
     10          6           0        2.279876    2.141997    0.518466
     11          6           0        2.554394    0.786107    0.206245
     12          6           0        1.611640    0.029658   -0.560737
     13          7           0        1.840085   -1.271453   -0.905406
     14          6           0        2.960813   -1.837394   -0.505494
     15          6           0        3.948307   -1.181916    0.268954
     16          6           0        3.740753    0.130133    0.619795
     17          7           0       -1.297714   -0.400172    1.454241
     18          6           0       -0.429999   -1.425419    2.015277
     19          1           0       -4.607889   -1.066558   -0.946450
     20          1           0       -3.579002   -0.173883   -2.077008
     21          1           0       -4.902644    0.651252   -1.246240
     22          1           0       -2.667772    1.192719   -0.208844
     23          1           0       -4.627722   -0.349233    1.569871
     24          1           0       -3.394116    0.776688    2.153944
     25          1           0       -4.735795    1.364797    1.135177
     26          1           0       -2.675241   -1.716658    0.673492
     27          1           0       -0.597441   -2.004965   -0.645804
     28          1           0       -2.035281   -1.785776   -1.616426
     29          1           0       -0.144240   -0.646570   -2.594730
     30          1           0       -1.379609    0.533923   -2.162825
     31          1           0       -0.731940    2.455181   -1.013853
     32          1           0        0.906356    3.766517    0.297384
     33          1           0        3.000727    2.705835    1.104803
     34          1           0        3.110092   -2.874576   -0.803294
     35          1           0        4.845632   -1.714442    0.568062
     36          1           0        4.472656    0.678251    1.208113
     37          1           0       -0.743504    0.406797    1.183094
     38          1           0        0.319265   -1.841904    1.322066
     39          1           0        0.106045   -1.006312    2.873895
     40          1           0       -1.045747   -2.256111    2.381434
 ---------------------------------------------------------------------

 SCF Done:  E(UB3LYP) =  -732.749050107     A.U. after   27 cycles

 The electronic state is 2-A.
 Alpha  occ. eigenvalues --  -14.16755 -14.13096 -10.07962 -10.06649 -10.06296
 Alpha  occ. eigenvalues --  -10.06258 -10.05277 -10.05179 -10.04112 -10.03616
 Alpha  occ. eigenvalues --  -10.03555 -10.03258 -10.02550 -10.02171 -10.01971
 Alpha  occ. eigenvalues --  -10.01901 -10.01607 -10.01329  -0.78544  -0.78085
 Alpha  occ. eigenvalues --   -0.69913  -0.69289  -0.66187  -0.63374  -0.59674
 Alpha  occ. eigenvalues --   -0.59493  -0.58517  -0.56081  -0.52135  -0.49137
 Alpha  occ. eigenvalues --   -0.48482  -0.47508  -0.44994  -0.42493  -0.37929
 Alpha  occ. eigenvalues --   -0.36811  -0.36053  -0.35739  -0.35193  -0.33619
 Alpha  occ. eigenvalues --   -0.32861  -0.30495  -0.30306  -0.29416  -0.29257
 Alpha  occ. eigenvalues --   -0.28759  -0.28270  -0.27081  -0.26647  -0.26262
 Alpha  occ. eigenvalues --   -0.25409  -0.24744  -0.24367  -0.23761  -0.23357
 Alpha  occ. eigenvalues --   -0.22648  -0.21399  -0.20536  -0.19962  -0.19379
 Alpha  occ. eigenvalues --   -0.18723  -0.15234  -0.10643  -0.10407  -0.09848
 Alpha  occ. eigenvalues --   -0.08222   0.04621
 Alpha virt. eigenvalues --    0.07164   0.08814   0.08955   0.09156   0.09920
 Alpha virt. eigenvalues --    0.10376   0.10947   0.11149   0.11613   0.11965
 Alpha virt. eigenvalues --    0.12271   0.12550   0.13326   0.13508   0.13937

  Beta  occ. eigenvalues --  -14.16750 -14.12673 -10.07963 -10.06648 -10.06296
  Beta  occ. eigenvalues --  -10.06257 -10.05277 -10.05241 -10.03963 -10.03633
  Beta  occ. eigenvalues --  -10.03539 -10.03352 -10.02515 -10.02093 -10.01948
  Beta  occ. eigenvalues --  -10.01636 -10.01337 -10.00898  -0.78419  -0.77636
  Beta  occ. eigenvalues --   -0.69593  -0.69201  -0.65816  -0.63031  -0.59411
  Beta  occ. eigenvalues --   -0.59197  -0.58509  -0.55973  -0.52051  -0.48922
  Beta  occ. eigenvalues --   -0.47926  -0.47406  -0.44870  -0.42275  -0.37575
  Beta  occ. eigenvalues --   -0.36789  -0.35946  -0.35584  -0.35059  -0.33557
  Beta  occ. eigenvalues --   -0.32827  -0.30419  -0.30275  -0.29359  -0.29165
  Beta  occ. eigenvalues --   -0.28753  -0.28138  -0.26950  -0.26502  -0.25599
  Beta  occ. eigenvalues --   -0.25319  -0.24623  -0.24197  -0.23535  -0.23290
  Beta  occ. eigenvalues --   -0.22599  -0.21144  -0.20395  -0.19724  -0.19004
  Beta  occ. eigenvalues --   -0.17941  -0.13611  -0.10172  -0.09799  -0.09386
  Beta  occ. eigenvalues --   -0.06639
  Beta virt. eigenvalues --    0.07090   0.08724   0.08892   0.09073   0.09844
  Beta virt. eigenvalues --    0.10230   0.10613   0.10904   0.11113   0.11561
  Beta virt. eigenvalues --    0.11910   0.12213   0.12676   0.13282   0.13537

 Mulliken charges and spin densities:
               1          2
     1  C   -0.738222  -0.011503
     2  C    0.329430   0.011680
     3  C   -0.509993   0.001386
     4  C   -0.447771  -0.044374
     5  C   -0.314151   0.047039
     6  C   -0.304268  -0.146438
     7  C    0.562212   0.188173
     8  C   -0.461255   0.134299
     9  C   -0.505075   0.045530
    10  C   -0.195454   0.201823
    11  C    0.109826  -0.126291
    12  C   -0.736570  -0.092259
    13  N   -0.024561   0.190974
    14  C   -0.006416   0.152954
    15  C   -0.585961   0.050059
    16  C    0.354182   0.339296
    17  N   -0.023640   0.008592
    18  C   -0.404804  -0.013284
    19  H    0.122779   0.010840
    20  H    0.113400   0.007852
    21  H    0.119386   0.007189
    22  H    0.171623  -0.004919
    23  H    0.109681  -0.000404
    24  H    0.155890   0.000856
    25  H    0.114059   0.000597
    26  H    0.139703  -0.002350
    27  H    0.185880   0.003777
    28  H    0.091517   0.029728
    29  H    0.154881   0.044262
    30  H    0.134214   0.012890
    31  H    0.062554   0.003725
    32  H    0.118336  -0.003236
    33  H    0.090496  -0.016772
    34  H    0.117386  -0.006388
    35  H    0.101375  -0.002360
    36  H    0.108858  -0.024342
    37  H    0.292133  -0.003183
    38  H    0.157536  -0.002160
    39  H    0.128812   0.000013
    40  H    0.111990   0.006728
 Sum of Mulliken charges =  -1.00000   1.00000

 Dipole moment (field-independent basis, Debye):
    X=             -5.2630    Y=             -0.0944    Z=              0.9490  Tot=              5.3487
 Quadrupole moment (field-independent basis, Debye-Ang):
   XX=           -151.9282   YY=           -130.1760   ZZ=           -129.4919
   XY=              1.6137   XZ=              6.0228   YZ=             -0.8195

 Summary of Natural Population Analysis:

                                       Natural Population
                Natural  -----------------------------------------------
    Atom  No    Charge         Core      Valence    Rydberg      Total
 -----------------------------------------------------------------------
      C    1   -0.28395      0.99966     2.27977    0.00451     3.28395
      C    2   -0.12040      0.99960     2.11302    0.00778     3.12040
      C    3   -0.28313      0.99966     2.27866    0.00482     3.28313
      C    4   -0.00067      0.99957     1.98826    0.01283     3.00067
      C    5   -0.19795      0.99960     2.18877    0.00958     3.19795
      C    6   -0.20050      0.99960     2.19076    0.01013     3.20050
      C    7    0.01918      0.99947     1.96964    0.01170     2.98082
      C    8   -0.10313      0.99952     2.09348    0.01013     3.10313
      C    9   -0.10611      0.99957     2.09763    0.00891     3.10611
      C   10   -0.05223      0.99954     2.04421    0.00848     3.05223
      C   11   -0.06007      0.99949     2.05271    0.00787     3.06007
      C   12    0.07478      0.99944     1.91224    0.01353     2.92522
      N   13   -0.20097      0.99968     2.68810    0.01319     3.70097
      C   14    0.05527      0.99962     1.93082    0.01429     2.94473
      C   15   -0.13260      0.99956     2.12408    0.00896     3.13260
      C   16   -0.00233      0.99953     1.99419    0.00861     3.00233
      N   17   -0.35447      0.99974     2.84255    0.01217     3.85447
      C   18   -0.17924      0.99967     2.17280    0.00677     3.17924
      H   19    0.09287      0.00000     0.40628    0.00085     0.40713
      H   20    0.10140      0.00000     0.39778    0.00082     0.39860
      H   21    0.09372      0.00000     0.40551    0.00077     0.40628
      H   22    0.09859      0.00000     0.39962    0.00178     0.40141
      H   23    0.08965      0.00000     0.40946    0.00089     0.41035
      H   24    0.11194      0.00000     0.38700    0.00106     0.38806
      H   25    0.08987      0.00000     0.40934    0.00079     0.41013
      H   26    0.08321      0.00000     0.41562    0.00117     0.41679
      H   27    0.11329      0.00000     0.38539    0.00132     0.38671
      H   28    0.09018      0.00000     0.40872    0.00110     0.40982
      H   29    0.11068      0.00000     0.38786    0.00147     0.38932
      H   30    0.08870      0.00000     0.40990    0.00139     0.41130
      H   31    0.08839      0.00000     0.41041    0.00120     0.41161
      H   32    0.08859      0.00000     0.41001    0.00140     0.41141
      H   33    0.08564      0.00000     0.41269    0.00167     0.41436
      H   34    0.07461      0.00000     0.42412    0.00128     0.42539
      H   35    0.08972      0.00000     0.40910    0.00119     0.41028
      H   36    0.08290      0.00000     0.41544    0.00166     0.41710
      H   37    0.18852      0.00000     0.30964    0.00184     0.31148
      H   38    0.09248      0.00000     0.40601    0.00151     0.40752
      H   39    0.09242      0.00000     0.40682    0.00076     0.40758
      H   40    0.08114      0.00000     0.41799    0.00087     0.41886
 =======================================================================
   * Total *    0.00000     17.99252    47.80640    0.20108    66.00000

 Normal termination of Gaussian 16 at Fri Dec 11 20:31:54 2020.
