 Gaussian 16, Revision A.03,

 ----------------------------------------------------------------------
 # opt=(cartesian,calcfc) freq B3LYP/6-31G(d) empiricaldispersion=gd3bj
  scf=xqc
 ----------------------------------------------------------------------

 ------------------------------
 CID_57247694_JID_1502_neutraal
 ------------------------------
 Symbolic Z-matrix:
 Charge =  0 Multiplicity = 1

 SCF Done:  E(RB3LYP) =  -533.911487053     A.U. after   14 cycles
 SCF Done:  E(RB3LYP) =  -533.912927816     A.U. after   12 cycles
 SCF Done:  E(RB3LYP) =  -533.914117351     A.U. after   12 cycles
 SCF Done:  E(RB3LYP) =  -533.914319767     A.U. after   11 cycles
 SCF Done:  E(RB3LYP) =  -533.914424799     A.U. after   11 cycles
 SCF Done:  E(RB3LYP) =  -533.914474845     A.U. after   10 cycles
 SCF Done:  E(RB3LYP) =  -533.914455923     A.U. after   12 cycles
 SCF Done:  E(RB3LYP) =  -533.914540601     A.U. after   10 cycles
 SCF Done:  E(RB3LYP) =  -533.913341864     A.U. after   13 cycles
 SCF Done:  E(RB3LYP) =  -533.914416778     A.U. after   11 cycles
 SCF Done:  E(RB3LYP) =  -533.914886319     A.U. after    3 cycles
 SCF Done:  E(RB3LYP) =  -533.914886736     A.U. after    8 cycles
 SCF Done:  E(RB3LYP) =  -533.914886508     A.U. after    8 cycles
 SCF Done:  E(RB3LYP) =  -533.914886756     A.U. after    9 cycles
 SCF Done:  E(RB3LYP) =  -533.914886926     A.U. after    8 cycles
 SCF Done:  E(RB3LYP) =  -533.914887071     A.U. after    7 cycles
 Optimization completed.
    -- Stationary point found.
 Normal termination of Gaussian 16 at Thu Dec 17 20:21:20 2020.

 --------------------------------------------------------------------
 #N Geom=AllCheck Guess=TCheck SCRF=Check GenChk RB3LYP/6-31G(d) Freq
 --------------------------------------------------------------------

 Structure from the checkpoint file:  "JID_1502.chk"
 ------------------------------
 CID_57247694_JID_1502_neutraal
 ------------------------------
 Charge =  0 Multiplicity = 1

 SCF Done:  E(RB3LYP) =  -533.914887071     A.U. after    1 cycles

  Exact polarizability:  96.793  13.686  83.225 -10.600   2.501  80.373
 Approx polarizability: 126.796  20.204 128.901 -19.044  12.452 127.862

                      1                      2                      3
                      A                      A                      A
 Frequencies --     23.1331                25.0941                56.8481
 Red. masses --      3.6698                 4.3888                 4.5456
 Frc consts  --      0.0012                 0.0016                 0.0087
 IR Inten    --      2.5280                 0.4429                 2.9767

                      4                      5                      6
                      A                      A                      A
 Frequencies --     78.2996               169.6761               195.2945
 Red. masses --      4.0965                 2.5128                 3.9865
 Frc consts  --      0.0148                 0.0426                 0.0896
 IR Inten    --      3.2556                19.8539                12.3383

                      7                      8                      9
                      A                      A                      A
 Frequencies --    249.1876               273.3033               320.5353
 Red. masses --      1.7375                 1.6516                 3.0231
 Frc consts  --      0.0636                 0.0727                 0.1830
 IR Inten    --     27.7657                60.7036                 6.2445

                     10                     11                     12
                      A                      A                      A
 Frequencies --    354.3305               427.2769               474.5014
 Red. masses --      2.4682                 2.8518                 1.8075
 Frc consts  --      0.1826                 0.3068                 0.2398
 IR Inten    --      1.1100                 2.8309                56.7804

                     13                     14                     15
                      A                      A                      A
 Frequencies --    488.2302               549.1074               654.6378
 Red. masses --      1.7166                 2.4508                 3.7504
 Frc consts  --      0.2411                 0.4354                 0.9470
 IR Inten    --     44.8166                 9.9673                 2.8950

                     16                     17                     18
                      A                      A                      A
 Frequencies --    678.8751               690.1238               751.6494
 Red. masses --      3.1379                 4.7138                 1.4540
 Frc consts  --      0.8521                 1.3227                 0.4840
 IR Inten    --      1.7146                 4.4743                 1.1366

                     19                     20                     21
                      A                      A                      A
 Frequencies --    761.1854               780.9304               810.7873
 Red. masses --      1.3678                 1.3551                 2.6818
 Frc consts  --      0.4669                 0.4869                 1.0387
 IR Inten    --     24.0680                35.4901                 1.8073

                     22                     23                     24
                      A                      A                      A
 Frequencies --    913.5777               929.0901               943.5483
 Red. masses --      2.5380                 2.8177                 2.5864
 Frc consts  --      1.2480                 1.4331                 1.3567
 IR Inten    --      8.6588                16.6391                25.3171

                     25                     26                     27
                      A                      A                      A
 Frequencies --    996.0545              1033.6239              1058.2765
 Red. masses --      1.8588                 3.0713                 2.6962
 Frc consts  --      1.0866                 1.9333                 1.7791
 IR Inten    --      5.0161                41.9661               126.0382

                     28                     29                     30
                      A                      A                      A
 Frequencies --   1095.5858              1096.8921              1105.9807
 Red. masses --      2.4181                 1.5655                 1.8157
 Frc consts  --      1.7101                 1.1098                 1.3085
 IR Inten    --     11.4313                52.8644                20.5453

                     31                     32                     33
                      A                      A                      A
 Frequencies --   1120.8427              1150.9712              1207.3704
 Red. masses --      2.5606                 3.0525                 1.2338
 Frc consts  --      1.8953                 2.3825                 1.0597
 IR Inten    --      4.6980                 7.3460                 3.1261

                     34                     35                     36
                      A                      A                      A
 Frequencies --   1228.7571              1271.0813              1287.0627
 Red. masses --      1.3756                 1.6732                 1.5716
 Frc consts  --      1.2237                 1.5927                 1.5339
 IR Inten    --     15.0960                17.6000                19.7787

                     37                     38                     39
                      A                      A                      A
 Frequencies --   1310.0795              1341.8718              1391.8606
 Red. masses --      1.4517                 1.1401                 1.4400
 Frc consts  --      1.4680                 1.2095                 1.6436
 IR Inten    --     40.8576                 3.5826                 4.6482

                     40                     41                     42
                      A                      A                      A
 Frequencies --   1401.3185              1405.6150              1410.5364
 Red. masses --      1.8072                 1.7014                 1.3092
 Frc consts  --      2.0909                 1.9806                 1.5347
 IR Inten    --     17.0045                 9.6536                25.2523

                     43                     44                     45
                      A                      A                      A
 Frequencies --   1431.6255              1440.9439              1448.9661
 Red. masses --      1.3773                 1.3339                 4.1570
 Frc consts  --      1.6632                 1.6318                 5.1421
 IR Inten    --     29.0575                25.9887                11.4709

                     46                     47                     48
                      A                      A                      A
 Frequencies --   1508.0464              1513.8231              1523.9441
 Red. masses --      1.0822                 1.1076                 1.2711
 Frc consts  --      1.4501                 1.4954                 1.7393
 IR Inten    --      4.1462                17.8234                20.6114

                     49                     50                     51
                      A                      A                      A
 Frequencies --   1536.2508              1544.2100              1638.2498
 Red. masses --      2.4723                 1.1403                 4.7425
 Frc consts  --      3.4378                 1.6021                 7.4993
 IR Inten    --     31.3689                 0.8824               223.9912

                     52                     53                     54
                      A                      A                      A
 Frequencies --   3034.3166              3038.7012              3052.7059
 Red. masses --      1.0682                 1.0653                 1.0615
 Frc consts  --      5.7946                 5.7958                 5.8282
 IR Inten    --     39.9212                12.1572                16.7857

                     55                     56                     57
                      A                      A                      A
 Frequencies --   3074.7886              3086.9603              3094.9135
 Red. masses --      1.0651                 1.0893                 1.1016
 Frc consts  --      5.9329                 6.1159                 6.2168
 IR Inten    --     13.8012                34.6853                48.9851

                     58                     59                     60
                      A                      A                      A
 Frequencies --   3107.8921              3125.0792              3269.2514
 Red. masses --      1.0991                 1.1086                 1.0944
 Frc consts  --      6.2549                 6.3788                 6.8915
 IR Inten    --     46.7102                35.0113                 8.7752

                     61                     62                     63
                      A                      A                      A
 Frequencies --   3273.1377              3653.4295              3762.3730
 Red. masses --      1.0986                 1.0808                 1.0664
 Frc consts  --      6.9349                 8.4999                 8.8941
 IR Inten    --      3.4496                51.2801                 7.6888

 - Thermochemistry -
 -------------------
 Temperature   298.150 Kelvin.  Pressure   1.00000 Atm.
 Atom     1 has atomic number  6 and mass  12.00000

 Molecular mass:   156.08988 amu.
 Principal axes and moments of inertia in atomic units:
                           1         2         3
     Eigenvalues --  1011.030642633.406503072.89191
           X            0.99992   0.01039  -0.00677
           Y           -0.01047   0.99988  -0.01150
           Z            0.00665   0.01157   0.99991
 This molecule is an asymmetric top.
 Rotational symmetry number  1.
 Warning -- assumption of classical behavior for rotation
           may cause significant error
 Rotational temperatures (Kelvin)      0.08567     0.03289     0.02819
 Rotational constants (GHZ):           1.78505     0.68533     0.58731
 Zero-point vibrational energy     512436.0 (Joules/Mol)
                                  122.47515 (Kcal/Mol)
 Warning -- explicit consideration of  14 degrees of freedom as
           vibrations may cause significant error
 Vibrational temperatures:     33.28    36.10    81.79   112.66   244.13
          (Kelvin)            280.99   358.53   393.22   461.18   509.80
                              614.76   682.70   702.45   790.04   941.88
                              976.75   992.93  1081.46  1095.18  1123.58
                             1166.54  1314.43  1336.75  1357.56  1433.10
                             1487.15  1522.62  1576.30  1578.18  1591.26
                             1612.64  1655.99  1737.14  1767.91  1828.80
                             1851.80  1884.91  1930.65  2002.58  2016.18
                             2022.37  2029.45  2059.79  2073.20  2084.74
                             2169.74  2178.05  2192.62  2210.32  2221.77
                             2357.08  4365.70  4372.01  4392.16  4423.94
                             4441.45  4452.89  4471.56  4496.29  4703.72
                             4709.32  5256.47  5413.22

 Zero-point correction=                           0.195177 (Hartree/Particle)
 Thermal correction to Energy=                    0.206435
 Thermal correction to Enthalpy=                  0.207380
 Thermal correction to Gibbs Free Energy=         0.155604
 Sum of electronic and zero-point Energies=           -533.719710
 Sum of electronic and thermal Energies=              -533.708452
 Sum of electronic and thermal Enthalpies=            -533.707507
 Sum of electronic and thermal Free Energies=         -533.759284

                     E (Thermal)             CV                S
                      KCal/Mol        Cal/Mol-Kelvin    Cal/Mol-Kelvin
 Total                  129.540             40.656            108.972
 Electronic               0.000              0.000              0.000
 Translational            0.889              2.981             41.045
 Rotational               0.889              2.981             30.482
 Vibrational            127.763             34.694             37.445
 Vibration     1          0.593              1.985              6.345
 Vibration     2          0.593              1.985              6.184
 Vibration     3          0.596              1.975              4.564
 Vibration     4          0.600              1.964              3.933
 Vibration     5          0.625              1.880              2.439
 Vibration     6          0.636              1.846              2.177
 Vibration     7          0.662              1.764              1.736
 Vibration     8          0.676              1.723              1.575
 Vibration     9          0.706              1.634              1.307
 Vibration    10          0.730              1.566              1.147
 Vibration    11          0.789              1.411              0.868
 Vibration    12          0.831              1.307              0.725
 Vibration    13          0.844              1.276              0.688
 Vibration    14          0.904              1.142              0.546

 Normal termination of Gaussian 16 at Thu Dec 17 20:25:38 2020.

 ----------------------------------------------------------------------
 # B3LYP/6-311++G(d,p) empiricaldispersion=gd3bj scf=xqc pop=npa geom=c
 heck
 ----------------------------------------------------------------------

 --------------------------------------
 CID_57247694_JID_1502_Energie_neutraal
 --------------------------------------
 Structure from the checkpoint file:  "JID_1502.chk"
 Charge =  0 Multiplicity = 1

 SCF Done:  E(RB3LYP) =  -534.081350263     A.U. after   14 cycles
 Normal termination of Gaussian 16 at Thu Dec 17 20:27:02 2020.

 ----------------------------------------------------------------------
 # B3LYP/6-311++G(d,p) empiricaldispersion=gd3bj scf=xqc pop=npa geom=c
 heck
 ----------------------------------------------------------------------

 ------------------------------------
 CID_57247694_JID_1502_Energie_kation
 ------------------------------------
 Structure from the checkpoint file:  "JID_1502.chk"
 Charge =  1 Multiplicity = 2

 SCF Done:  E(UB3LYP) =  -533.784039371     A.U. after   19 cycles
 Normal termination of Gaussian 16 at Thu Dec 17 20:29:33 2020.
 Gaussian 16:  ES64L-G16RevA.03 25-Dec-2016

 ----------------------------------------------------------------------
 # B3LYP/6-311++G(d,p) empiricaldispersion=gd3bj scf=xqc pop=npa geom=c
 heck
 ----------------------------------------------------------------------

 -----------------------------------
 CID_57247694_JID_1502_Energie_anion
 -----------------------------------
 Structure from the checkpoint file:  "JID_1502.chk"
 Charge = -1 Multiplicity = 2

                         Standard orientation:
 ---------------------------------------------------------------------
 Center     Atomic      Atomic             Coordinates (Angstroms)
 Number     Number       Type             X           Y           Z
 ---------------------------------------------------------------------
      1          6           0       -1.535651   -0.515236   -1.061871
      2          6           0       -1.312526    0.539495   -0.206281
      3          7           0       -2.198217    0.372861    0.835707
      4          6           0       -2.921180   -0.767381    0.568465
      5          7           0       -2.541297   -1.323089   -0.556298
      6          8           0       -0.505255    1.623945   -0.191415
      7          6           0        0.794337    1.477014   -0.794352
      8          6           0        1.866791    1.259469    0.268963
      9          6           0        1.727082   -0.030792    1.088756
     10          6           0        1.898263   -1.320482    0.281188
     11          8           0        3.173131   -1.408269   -0.354558
     12          1           0       -1.052864   -0.738574   -2.001844
     13          1           0       -2.278801    0.994989    1.626671
     14          1           0       -3.702048   -1.122879    1.226330
     15          1           0        0.771997    0.663699   -1.526595
     16          1           0        0.975977    2.410429   -1.334639
     17          1           0        2.847329    1.272040   -0.227783
     18          1           0        1.854866    2.123424    0.943852
     19          1           0        2.486314   -0.018655    1.879858
     20          1           0        0.748555   -0.053405    1.584641
     21          1           0        1.845122   -2.179630    0.956909
     22          1           0        1.081626   -1.436023   -0.445319
     23          1           0        3.152811   -0.841736   -1.139376
 ---------------------------------------------------------------------

 SCF Done:  E(UB3LYP) =  -534.072115960     A.U. after   30 cycles

 The electronic state is 2-A.
 Alpha  occ. eigenvalues --  -19.05818 -19.01894 -14.26187 -14.19509 -10.15700
 Alpha  occ. eigenvalues --  -10.12826 -10.12072 -10.11136 -10.07768 -10.07112
 Alpha  occ. eigenvalues --  -10.06633  -0.98106  -0.91897  -0.90658  -0.77021
 Alpha  occ. eigenvalues --   -0.69901  -0.64797  -0.61509  -0.55899  -0.51419
 Alpha  occ. eigenvalues --   -0.49918  -0.47870  -0.45725  -0.41183  -0.39399
 Alpha  occ. eigenvalues --   -0.38427  -0.36854  -0.35546  -0.33682  -0.32521
 Alpha  occ. eigenvalues --   -0.31842  -0.31057  -0.28726  -0.27003  -0.25295
 Alpha  occ. eigenvalues --   -0.24367  -0.23144  -0.21922  -0.18212  -0.17510
 Alpha  occ. eigenvalues --   -0.17232  -0.11136   0.04242
 Alpha virt. eigenvalues --    0.05984   0.07973   0.08616   0.09258   0.09637
 Alpha virt. eigenvalues --    0.10964   0.11361   0.11997   0.12222   0.12868
 Alpha virt. eigenvalues --    0.13749   0.14285   0.14911   0.15422   0.16218

  Beta  occ. eigenvalues --  -19.05803 -19.01852 -14.26139 -14.19511 -10.15702
  Beta  occ. eigenvalues --  -10.12792 -10.12059 -10.11125 -10.07753 -10.07082
  Beta  occ. eigenvalues --  -10.06624  -0.98082  -0.91802  -0.90625  -0.76973
  Beta  occ. eigenvalues --   -0.69854  -0.64759  -0.61458  -0.55834  -0.51329
  Beta  occ. eigenvalues --   -0.49871  -0.47814  -0.45649  -0.41116  -0.39348
  Beta  occ. eigenvalues --   -0.38375  -0.36808  -0.35498  -0.33648  -0.32480
  Beta  occ. eigenvalues --   -0.31804  -0.31025  -0.28694  -0.26959  -0.25251
  Beta  occ. eigenvalues --   -0.24322  -0.23100  -0.21885  -0.18183  -0.17478
  Beta  occ. eigenvalues --   -0.17207  -0.11123
  Beta virt. eigenvalues --    0.07046   0.07734   0.08553   0.09067   0.09965
  Beta virt. eigenvalues --    0.10445   0.11172   0.11614   0.12010   0.12596
  Beta virt. eigenvalues --    0.13157   0.14092   0.14435   0.15101   0.15680

 Mulliken charges and spin densities:
               1          2
     1  C    0.211233  -0.346275
     2  C    0.677745  -0.859409
     3  N   -0.308972   0.149455
     4  C    0.178698  -0.191349
     5  N   -0.185752   0.027824
     6  O   -0.165831   0.051798
     7  C    0.583016  -0.695810
     8  C    0.534943  -1.147328
     9  C   -0.629491   0.672483
    10  C    0.587295  -1.028272
    11  O   -0.263019   0.006284
    12  H   -0.041666   0.191780
    13  H   -0.567328   0.901552
    14  H   -0.396909   0.554456
    15  H   -0.156012   0.263731
    16  H   -0.728892   0.922752
    17  H   -0.170184   0.312565
    18  H   -0.133807   0.306108
    19  H   -0.123490   0.302476
    20  H   -0.049199   0.170066
    21  H    0.173143  -0.015647
    22  H    0.097253   0.067511
    23  H   -0.122773   0.383247
 Sum of Mulliken charges =  -1.00000   1.00000

 Dipole moment (field-independent basis, Debye):
    X=              0.0326    Y=             -1.3610    Z=             -0.1945  Tot=              1.3752
 Quadrupole moment (field-independent basis, Debye-Ang):
   XX=           -128.9528   YY=           -105.1449   ZZ=           -102.1912
   XY=             -0.6255   XZ=             11.2854   YZ=             -4.0986

 Summary of Natural Population Analysis:

                                       Natural Population
                Natural  -----------------------------------------------
    Atom  No    Charge         Core      Valence    Rydberg      Total
 -----------------------------------------------------------------------
      C    1   -0.08337      0.99950     2.07121    0.01265     3.08337
      C    2    0.22215      0.99940     1.76118    0.01727     2.77785
      N    3   -0.28308      0.99967     2.77187    0.01154     3.78308
      C    4    0.09321      0.99966     1.88837    0.01876     2.90679
      N    5   -0.25384      0.99973     2.74380    0.01031     3.75384
      O    6   -0.27985      0.99985     3.26999    0.01000     4.27985
      C    7   -0.00698      0.99955     1.99492    0.01251     3.00698
      C    8   -0.20556      0.99962     2.19600    0.00995     3.20556
      C    9   -0.20463      0.99962     2.19771    0.00730     3.20463
      C   10   -0.01393      0.99959     2.00233    0.01201     3.01393
      O   11   -0.37212      0.99990     3.36545    0.00678     4.37212
      H   12    0.09947      0.00000     0.39906    0.00147     0.40053
      H   13    0.21336      0.00000     0.27187    0.01477     0.28664
      H   14    0.09296      0.00000     0.40550    0.00154     0.40704
      H   15    0.08580      0.00000     0.41192    0.00228     0.41420
      H   16    0.09431      0.00000     0.40377    0.00192     0.40569
      H   17    0.10225      0.00000     0.39556    0.00219     0.39775
      H   18    0.10329      0.00000     0.39515    0.00156     0.39671
      H   19    0.09886      0.00000     0.39992    0.00122     0.40114
      H   20    0.10186      0.00000     0.39649    0.00165     0.39814
      H   21    0.08402      0.00000     0.41470    0.00128     0.41598
      H   22    0.08167      0.00000     0.41645    0.00188     0.41833
      H   23    0.23015      0.00000     0.26523    0.00462     0.26985
 =======================================================================
   * Total *   -0.00000     10.99609    30.83845    0.16546    42.00000

 Normal termination of Gaussian 16 at Thu Dec 17 20:33:28 2020.
