 Gaussian 16, Revision A.03,

 -----------------------------------------------------------
 # opt freq B3LYP/6-31G(d) empiricaldispersion=gd3bj scf=xqc
 -----------------------------------------------------------

 -------------------------------
 CID_148169347_JID_5890_neutraal
 -------------------------------
 Symbolic Z-matrix:
 Charge =  0 Multiplicity = 1

 SCF Done:  E(RB3LYP) =  -668.971475755     A.U. after   15 cycles
 SCF Done:  E(RB3LYP) =  -668.975802270     A.U. after   12 cycles
 SCF Done:  E(RB3LYP) =  -668.976069222     A.U. after   13 cycles
 SCF Done:  E(RB3LYP) =  -668.976657263     A.U. after   12 cycles
 SCF Done:  E(RB3LYP) =  -668.976809417     A.U. after   12 cycles
 SCF Done:  E(RB3LYP) =  -668.976876627     A.U. after   11 cycles
 SCF Done:  E(RB3LYP) =  -668.976885534     A.U. after   10 cycles
 SCF Done:  E(RB3LYP) =  -668.976895163     A.U. after   10 cycles
 SCF Done:  E(RB3LYP) =  -668.976897917     A.U. after   10 cycles
 SCF Done:  E(RB3LYP) =  -668.976899768     A.U. after    9 cycles
 SCF Done:  E(RB3LYP) =  -668.976900285     A.U. after    8 cycles
 SCF Done:  E(RB3LYP) =  -668.976900457     A.U. after    7 cycles
 SCF Done:  E(RB3LYP) =  -668.976900517     A.U. after    7 cycles
 Optimization completed.
    -- Stationary point found.
 Normal termination of Gaussian 16 at Thu Dec 10 17:25:18 2020.

 --------------------------------------------------------------------
 #N Geom=AllCheck Guess=TCheck SCRF=Check GenChk RB3LYP/6-31G(d) Freq
 --------------------------------------------------------------------

 Structure from the checkpoint file:  "JID_5890.chk"
 -------------------------------
 CID_148169347_JID_5890_neutraal
 -------------------------------
 Charge =  0 Multiplicity = 1

 SCF Done:  E(RB3LYP) =  -668.976900517     A.U. after    1 cycles

  Exact polarizability: 174.477  18.639 137.467 -12.135   9.739  97.203
 Approx polarizability: 235.071  35.680 226.005 -21.606  26.095 149.544

                      1                      2                      3
                      A                      A                      A
 Frequencies --     27.0000                30.2096                44.0280
 Red. masses --      3.7272                 4.8488                 3.2690
 Frc consts  --      0.0016                 0.0026                 0.0037
 IR Inten    --      0.2391                 0.4165                 0.1861

                      4                      5                      6
                      A                      A                      A
 Frequencies --     84.9402               109.2938               157.4179
 Red. masses --      7.1485                 3.8828                 4.1779
 Frc consts  --      0.0304                 0.0273                 0.0610
 IR Inten    --      0.5437                 1.9549                 0.3247

                      7                      8                      9
                      A                      A                      A
 Frequencies --    205.9305               220.8373               240.6992
 Red. masses --      4.4254                 2.0729                 2.3374
 Frc consts  --      0.1106                 0.0596                 0.0798
 IR Inten    --      3.6140                 2.0836                 1.1254

                     10                     11                     12
                      A                      A                      A
 Frequencies --    249.6672               287.2275               296.3101
 Red. masses --      1.4729                 1.2454                 1.1074
 Frc consts  --      0.0541                 0.0605                 0.0573
 IR Inten    --      0.3289                 0.8176                 0.6456

                     13                     14                     15
                      A                      A                      A
 Frequencies --    312.5307               346.4688               370.5275
 Red. masses --      2.1065                 2.0974                 2.4115
 Frc consts  --      0.1212                 0.1483                 0.1951
 IR Inten    --      7.8797                 0.2426                 1.4047

                     16                     17                     18
                      A                      A                      A
 Frequencies --    402.4012               412.2559               412.8552
 Red. masses --      6.9683                 2.2056                 4.0629
 Frc consts  --      0.6648                 0.2209                 0.4080
 IR Inten    --      3.2864                 0.9120                 0.1023

                     19                     20                     21
                      A                      A                      A
 Frequencies --    425.9657               490.5949               528.8089
 Red. masses --      2.1293                 2.8029                 2.6863
 Frc consts  --      0.2276                 0.3975                 0.4426
 IR Inten    --      4.7975                12.5699                 2.9666

                     22                     23                     24
                      A                      A                      A
 Frequencies --    552.2341               644.7266               684.5562
 Red. masses --      2.8863                 5.9673                 3.2380
 Frc consts  --      0.5186                 1.4614                 0.8940
 IR Inten    --     10.7174                10.1412                 4.7269

                     25                     26                     27
                      A                      A                      A
 Frequencies --    706.7282               718.3201               757.9052
 Red. masses --      5.6966                 2.9295                 1.4503
 Frc consts  --      1.6764                 0.8906                 0.4908
 IR Inten    --      6.0587                 2.7938                74.4590

                     28                     29                     30
                      A                      A                      A
 Frequencies --    791.1084               809.7022               815.3351
 Red. masses --      3.1619                 1.3766                 5.1683
 Frc consts  --      1.1659                 0.5318                 2.0243
 IR Inten    --     14.2604                 5.6706                42.9342

                     31                     32                     33
                      A                      A                      A
 Frequencies --    883.4086               927.8610               946.5601
 Red. masses --      2.1126                 2.5839                 1.8689
 Frc consts  --      0.9714                 1.3106                 0.9866
 IR Inten    --      0.9811                 2.1424                 3.3958

                     34                     35                     36
                      A                      A                      A
 Frequencies --    953.4846               973.9505               976.7327
 Red. masses --      1.7952                 1.8891                 1.4411
 Frc consts  --      0.9616                 1.0558                 0.8100
 IR Inten    --      0.3778                 3.6171                 0.8509

                     37                     38                     39
                      A                      A                      A
 Frequencies --    990.7974               993.3246              1004.0754
 Red. masses --      1.6035                 1.4433                 1.3711
 Frc consts  --      0.9274                 0.8391                 0.8144
 IR Inten    --      2.9010                 0.0439                 0.0468

                     40                     41                     42
                      A                      A                      A
 Frequencies --   1012.4170              1046.2205              1073.8611
 Red. masses --      8.1819                 2.0713                 1.4818
 Frc consts  --      4.9411                 1.3358                 1.0068
 IR Inten    --      3.3507                 1.7201                 0.4950

                     43                     44                     45
                      A                      A                      A
 Frequencies --   1094.2737              1105.4272              1126.6528
 Red. masses --      1.7775                 2.3083                 1.4917
 Frc consts  --      1.2541                 1.6619                 1.1156
 IR Inten    --      4.5248                 7.3313                 0.6403

                     46                     47                     48
                      A                      A                      A
 Frequencies --   1188.9124              1219.8506              1254.7090
 Red. masses --      1.4318                 1.6694                 2.5511
 Frc consts  --      1.1924                 1.4636                 2.3663
 IR Inten    --     71.4438                50.0610                49.8021

                     49                     50                     51
                      A                      A                      A
 Frequencies --   1262.5508              1272.2141              1301.1247
 Red. masses --      3.5717                 1.9830                 2.2403
 Frc consts  --      3.3545                 1.8910                 2.2345
 IR Inten    --     61.9892                65.1967                 9.4742

                     52                     53                     54
                      A                      A                      A
 Frequencies --   1311.0311              1333.9715              1377.7174
 Red. masses --      1.9622                 1.7208                 1.8406
 Frc consts  --      1.9871                 1.8041                 2.0584
 IR Inten    --     97.5003                59.6958                 8.2263

                     55                     56                     57
                      A                      A                      A
 Frequencies --   1395.3344              1426.1562              1430.6159
 Red. masses --      1.4553                 1.3532                 1.2469
 Frc consts  --      1.6694                 1.6216                 1.5036
 IR Inten    --     12.4036                50.7041                 7.1130

                     58                     59                     60
                      A                      A                      A
 Frequencies --   1431.3927              1445.9781              1460.1869
 Red. masses --      1.3820                 1.8158                 1.2258
 Frc consts  --      1.6683                 2.2368                 1.5399
 IR Inten    --    119.9928                17.3553                 6.2439

                     61                     62                     63
                      A                      A                      A
 Frequencies --   1495.1029              1508.0098              1512.5548
 Red. masses --      2.5862                 1.0795                 1.0593
 Frc consts  --      3.4061                 1.4464                 1.4279
 IR Inten    --    103.6293                 2.6375                 0.8232

                     64                     65                     66
                      A                      A                      A
 Frequencies --   1515.9252              1521.5947              1523.4859
 Red. masses --      1.0745                 1.0661                 1.0550
 Frc consts  --      1.4548                 1.4543                 1.4427
 IR Inten    --      9.0324                15.6772                 4.6563

                     67                     68                     69
                      A                      A                      A
 Frequencies --   1539.8730              1542.1407              1545.1814
 Red. masses --      2.0088                 1.0684                 1.2267
 Frc consts  --      2.8064                 1.4971                 1.7257
 IR Inten    --    284.7552                 2.8497                79.0456

                     70                     71                     72
                      A                      A                      A
 Frequencies --   1554.7755              1624.3382              1649.6440
 Red. masses --      1.0797                 5.2158                 5.4776
 Frc consts  --      1.5378                 8.1082                 8.7826
 IR Inten    --     33.4402               138.8975               237.9340

                     73                     74                     75
                      A                      A                      A
 Frequencies --   1790.5649              3035.5517              3038.2582
 Red. masses --      8.3245                 1.0357                 1.0466
 Frc consts  --     15.7250                 5.6229                 5.6924
 IR Inten    --    300.2375                20.4761                11.2751

                     76                     77                     78
                      A                      A                      A
 Frequencies --   3041.3611              3048.7647              3054.5300
 Red. masses --      1.0538                 1.0465                 1.0608
 Frc consts  --      5.7430                 5.7308                 5.8314
 IR Inten    --     48.9214                33.3885                20.4742

                     79                     80                     81
                      A                      A                      A
 Frequencies --   3092.5871              3098.4402              3104.9817
 Red. masses --      1.0999                 1.1022                 1.1017
 Frc consts  --      6.1980                 6.2344                 6.2579
 IR Inten    --      5.1519                 5.5482                41.4277

                     82                     83                     84
                      A                      A                      A
 Frequencies --   3106.7970              3111.3350              3121.5794
 Red. masses --      1.1020                 1.1005                 1.1011
 Frc consts  --      6.2669                 6.2765                 6.3214
 IR Inten    --     28.3443                59.4318                28.2403

                     85                     86                     87
                      A                      A                      A
 Frequencies --   3126.6136              3179.9913              3183.1458
 Red. masses --      1.1017                 1.0906                 1.0916
 Frc consts  --      6.3453                 6.4980                 6.5164
 IR Inten    --     37.8426                23.4658                20.8641

                     88                     89                     90
                      A                      A                      A
 Frequencies --   3194.2654              3238.1334              3581.5350
 Red. masses --      1.0887                 1.0958                 1.0755
 Frc consts  --      6.5450                 6.7699                 8.1283
 IR Inten    --      4.8712                 7.4455                49.9846

 - Thermochemistry -
 -------------------
 Temperature   298.150 Kelvin.  Pressure   1.00000 Atm.
 Atom     1 has atomic number  6 and mass  12.00000

 Molecular mass:   207.13716 amu.
 Principal axes and moments of inertia in atomic units:
                           1         2         3
     Eigenvalues --  1737.119314931.517475898.80772
           X            0.99993  -0.01124   0.00200
           Y            0.01124   0.99994   0.00012
           Z           -0.00200  -0.00009   1.00000
 This molecule is an asymmetric top.
 Rotational symmetry number  1.
 Warning -- assumption of classical behavior for rotation
           may cause significant error
 Rotational temperatures (Kelvin)      0.04986     0.01756     0.01468
 Rotational constants (GHZ):           1.03893     0.36596     0.30595
 Zero-point vibrational energy     723970.6 (Joules/Mol)
                                  173.03314 (Kcal/Mol)
 Warning -- explicit consideration of  22 degrees of freedom as
           vibrations may cause significant error
 Vibrational temperatures:     38.85    43.46    63.35   122.21   157.25
          (Kelvin)            226.49   296.29   317.74   346.31   359.22
                              413.26   426.32   449.66   498.49   533.11
                              578.97   593.14   594.01   612.87   705.86
                              760.84   794.54   927.62   984.92  1016.82
                             1033.50  1090.46  1138.23  1164.98  1173.09
                             1271.03  1334.99  1361.89  1371.85  1401.30
                             1405.30  1425.54  1429.17  1444.64  1456.64
                             1505.28  1545.05  1574.42  1590.46  1621.00
                             1710.58  1755.09  1805.25  1816.53  1830.43
                             1872.03  1886.28  1919.29  1982.23  2007.58
                             2051.92  2058.34  2059.45  2080.44  2100.88
                             2151.12  2169.69  2176.23  2181.08  2189.24
                             2191.96  2215.53  2218.80  2223.17  2236.98
                             2337.06  2373.47  2576.22  4367.48  4371.38
                             4375.84  4386.49  4394.79  4449.54  4457.96
                             4467.38  4469.99  4476.52  4491.26  4498.50
                             4575.30  4579.84  4595.84  4658.95  5153.03

 Zero-point correction=                           0.275746 (Hartree/Particle)
 Thermal correction to Energy=                    0.290696
 Thermal correction to Enthalpy=                  0.291640
 Thermal correction to Gibbs Free Energy=         0.232556
 Sum of electronic and zero-point Energies=           -668.701155
 Sum of electronic and thermal Energies=              -668.686205
 Sum of electronic and thermal Enthalpies=            -668.685261
 Sum of electronic and thermal Free Energies=         -668.744345

                     E (Thermal)             CV                S
                      KCal/Mol        Cal/Mol-Kelvin    Cal/Mol-Kelvin
 Total                  182.414             56.890            124.353
 Electronic               0.000              0.000              0.000
 Translational            0.889              2.981             41.889
 Rotational               0.889              2.981             32.291
 Vibrational            180.637             50.928             50.173
 Vibration     1          0.593              1.984              6.038
 Vibration     2          0.594              1.984              5.816
 Vibration     3          0.595              1.980              5.069
 Vibration     4          0.601              1.960              3.773
 Vibration     5          0.606              1.942              3.281
 Vibration     6          0.621              1.894              2.581
 Vibration     7          0.640              1.831              2.079
 Vibration     8          0.648              1.809              1.952
 Vibration     9          0.658              1.778              1.798
 Vibration    10          0.662              1.763              1.733
 Vibration    11          0.684              1.697              1.490
 Vibration    12          0.690              1.681              1.438
 Vibration    13          0.701              1.650              1.349
 Vibration    14          0.724              1.582              1.182
 Vibration    15          0.743              1.533              1.078
 Vibration    16          0.768              1.465              0.954
 Vibration    17          0.776              1.444              0.919
 Vibration    18          0.777              1.442              0.917
 Vibration    19          0.788              1.414              0.872
 Vibration    20          0.846              1.271              0.682
 Vibration    21          0.884              1.186              0.590
 Vibration    22          0.908              1.135              0.540

                           ! Non-Optimized Parameters !
 Normal termination of Gaussian 16 at Thu Dec 10 17:35:00 2020.

 ----------------------------------------------------------------------
 # B3LYP/6-311++G(d,p) empiricaldispersion=gd3bj scf=xqc pop=npa geom=c
 heck
 ----------------------------------------------------------------------

 ---------------------------------------
 CID_148169347_JID_5890_Energie_neutraal
 ---------------------------------------
 Structure from the checkpoint file:  "JID_5890.chk"
 Charge =  0 Multiplicity = 1

 SCF Done:  E(RB3LYP) =  -669.162652103     A.U. after   15 cycles
 Normal termination of Gaussian 16 at Thu Dec 10 17:39:27 2020.

 ----------------------------------------------------------------------
 # B3LYP/6-311++G(d,p) empiricaldispersion=gd3bj scf=xqc pop=npa geom=c
 heck
 ----------------------------------------------------------------------

 -------------------------------------
 CID_148169347_JID_5890_Energie_kation
 -------------------------------------
 Structure from the checkpoint file:  "JID_5890.chk"
 Charge =  1 Multiplicity = 2

 SCF Done:  E(UB3LYP) =  -668.834254221     A.U. after   31 cycles
 Normal termination of Gaussian 16 at Thu Dec 10 17:54:20 2020.
 Gaussian 16:  ES64L-G16RevA.03 25-Dec-2016

 ----------------------------------------------------------------------
 # B3LYP/6-311++G(d,p) empiricaldispersion=gd3bj scf=xqc pop=npa geom=c
 heck
 ----------------------------------------------------------------------

 ------------------------------------
 CID_148169347_JID_5890_Energie_anion
 ------------------------------------
 Structure from the checkpoint file:  "JID_5890.chk"
 Charge = -1 Multiplicity = 2

                         Standard orientation:
 ---------------------------------------------------------------------
 Center     Atomic      Atomic             Coordinates (Angstroms)
 Number     Number       Type             X           Y           Z
 ---------------------------------------------------------------------
      1          6           0        1.855953   -0.285923    1.523636
      2          6           0        2.575913   -0.704735    0.229966
      3          6           0        4.075732   -0.879361    0.526902
      4          6           0        1.999920   -2.045452   -0.258553
      5          6           0        2.441195    0.378804   -0.866174
      6          6           0        1.008923    0.755903   -1.282921
      7          6           0        0.358735    1.718797   -0.310045
      8          8           0        0.928509    2.720903    0.090505
      9          7           0       -0.964222    1.525416    0.108192
     10          6           0       -1.878050    0.487060    0.027414
     11          7           0       -3.068245    0.783431    0.587618
     12          6           0       -3.987617   -0.179070    0.555006
     13          6           0       -3.755547   -1.428362   -0.022562
     14          6           0       -2.489122   -1.618494   -0.564215
     15          7           0       -1.541464   -0.676104   -0.544431
     16          1           0        0.769603   -0.257289    1.388464
     17          1           0        2.181930    0.704301    1.859791
     18          1           0        2.063024   -1.004691    2.325610
     19          1           0        4.237065   -1.653919    1.286092
     20          1           0        4.625987   -1.173872   -0.375176
     21          1           0        4.514940    0.053931    0.898936
     22          1           0        0.922185   -1.977039   -0.439372
     23          1           0        2.484836   -2.367984   -1.188440
     24          1           0        2.162112   -2.829093    0.491512
     25          1           0        2.950491    1.292226   -0.538555
     26          1           0        2.970431    0.023958   -1.759849
     27          1           0        1.060239    1.314146   -2.227643
     28          1           0        0.385426   -0.117785   -1.453619
     29          1           0       -1.306313    2.303912    0.661741
     30          1           0       -4.946842    0.061710    1.009800
     31          1           0       -4.512861   -2.202953   -0.043204
     32          1           0       -2.209014   -2.560979   -1.030512
 ---------------------------------------------------------------------

 SCF Done:  E(UB3LYP) =  -669.165689023     A.U. after   32 cycles

 The electronic state is 2-A.
 Alpha  occ. eigenvalues --  -18.97093 -14.21950 -14.15725 -14.14568 -10.15363
 Alpha  occ. eigenvalues --  -10.13196 -10.07480 -10.05696 -10.05595 -10.05445
 Alpha  occ. eigenvalues --  -10.05059 -10.04752 -10.04594 -10.04407 -10.03346
 Alpha  occ. eigenvalues --   -0.92602  -0.85667  -0.77997  -0.73856  -0.71972
 Alpha  occ. eigenvalues --   -0.64531  -0.63196  -0.58102  -0.57526  -0.55051
 Alpha  occ. eigenvalues --   -0.51759  -0.51236  -0.44759  -0.42249  -0.40892
 Alpha  occ. eigenvalues --   -0.37658  -0.35970  -0.35017  -0.34542  -0.33706
 Alpha  occ. eigenvalues --   -0.33320  -0.31542  -0.30618  -0.29904  -0.28410
 Alpha  occ. eigenvalues --   -0.28023  -0.27494  -0.26409  -0.25992  -0.25448
 Alpha  occ. eigenvalues --   -0.25006  -0.24528  -0.21390  -0.21056  -0.20455
 Alpha  occ. eigenvalues --   -0.18800  -0.17557  -0.16826  -0.14317  -0.10799
 Alpha  occ. eigenvalues --   -0.10513   0.05093
 Alpha virt. eigenvalues --    0.06864   0.08581   0.08770   0.09559   0.09654
 Alpha virt. eigenvalues --    0.10269   0.10575   0.11329   0.11564   0.12177
 Alpha virt. eigenvalues --    0.12530   0.12895   0.14008   0.14514   0.14745

  Beta  occ. eigenvalues --  -18.97033 -14.21977 -14.15577 -14.14115 -10.15287
  Beta  occ. eigenvalues --  -10.13212 -10.07480 -10.05579 -10.05428 -10.05384
  Beta  occ. eigenvalues --  -10.05069 -10.04587 -10.04397 -10.04262 -10.03465
  Beta  occ. eigenvalues --   -0.92487  -0.85316  -0.77759  -0.73123  -0.71953
  Beta  occ. eigenvalues --   -0.64447  -0.62821  -0.58075  -0.57508  -0.54893
  Beta  occ. eigenvalues --   -0.51696  -0.50522  -0.44477  -0.42128  -0.40757
  Beta  occ. eigenvalues --   -0.37519  -0.35878  -0.34863  -0.34422  -0.33631
  Beta  occ. eigenvalues --   -0.33221  -0.31352  -0.30498  -0.29436  -0.28225
  Beta  occ. eigenvalues --   -0.27808  -0.27332  -0.26159  -0.25739  -0.25389
  Beta  occ. eigenvalues --   -0.24739  -0.24489  -0.21367  -0.21017  -0.20353
  Beta  occ. eigenvalues --   -0.18103  -0.16483  -0.15139  -0.14233  -0.10140
  Beta  occ. eigenvalues --   -0.09986
  Beta virt. eigenvalues --    0.07013   0.08646   0.08799   0.09524   0.09822
  Beta virt. eigenvalues --    0.10419   0.10546   0.11392   0.11506   0.11648
  Beta virt. eigenvalues --    0.12099   0.12470   0.12819   0.13981   0.14455

 Mulliken charges and spin densities:
               1          2
     1  C   -0.434012  -0.155971
     2  C   -0.065070   0.794353
     3  C    0.158000  -0.675219
     4  C   -0.626974  -0.074993
     5  C    0.098147  -0.666055
     6  C   -0.044989   0.111683
     7  C   -0.321366   0.074454
     8  O   -0.308827   0.023122
     9  N   -0.175605  -0.017519
    10  C   -0.508442  -0.025672
    11  N   -0.114703   0.051214
    12  C   -0.122410   0.393518
    13  C   -0.243780  -0.101171
    14  C   -0.022423   0.268821
    15  N   -0.140754   0.203924
    16  H    0.149984   0.025976
    17  H    0.147236   0.003823
    18  H    0.106615   0.034094
    19  H   -0.064264   0.191260
    20  H   -0.048473   0.173816
    21  H    0.052152   0.077168
    22  H    0.207889  -0.030464
    23  H    0.003656   0.120322
    24  H    0.093648   0.027894
    25  H    0.218439  -0.009921
    26  H    0.017099   0.115448
    27  H    0.023007   0.159841
    28  H    0.332381  -0.080201
    29  H    0.311367   0.000592
    30  H    0.133865  -0.028078
    31  H    0.102117   0.010750
    32  H    0.086489   0.003192
 Sum of Mulliken charges =  -1.00000   1.00000

 Dipole moment (field-independent basis, Debye):
    X=              1.8227    Y=             -1.7753    Z=             -0.1841  Tot=              2.5510
 Quadrupole moment (field-independent basis, Debye-Ang):
   XX=           -146.0343   YY=           -118.8391   ZZ=           -106.7722
   XY=              0.7183   XZ=              1.5052   YZ=             -1.1884

 Summary of Natural Population Analysis:

                                       Natural Population
                Natural  -----------------------------------------------
    Atom  No    Charge         Core      Valence    Rydberg      Total
 -----------------------------------------------------------------------
      C    1   -0.28920      0.99963     2.28363    0.00593     3.28920
      C    2   -0.04908      0.99959     2.04017    0.00933     3.04908
      C    3   -0.28044      0.99963     2.27510    0.00571     3.28044
      C    4   -0.28997      0.99963     2.28432    0.00602     3.28997
      C    5   -0.18455      0.99959     2.17362    0.01135     3.18455
      C    6   -0.24938      0.99957     2.24075    0.00906     3.24938
      C    7    0.36347      0.99968     1.61442    0.02243     2.63653
      O    8   -0.32309      0.99987     3.31721    0.00601     4.32309
      N    9   -0.31982      0.99962     2.80711    0.01308     3.81982
      C   10    0.29161      0.99960     1.69057    0.01822     2.70839
      N   11   -0.25796      0.99968     2.74874    0.00953     3.75796
      C   12    0.12602      0.99962     1.85942    0.01494     2.87398
      C   13   -0.18878      0.99956     2.18101    0.00821     3.18878
      C   14    0.09882      0.99961     1.88794    0.01363     2.90118
      N   15   -0.22853      0.99966     2.71830    0.01056     3.72853
      H   16    0.10854      0.00000     0.39035    0.00111     0.39146
      H   17    0.10211      0.00000     0.39705    0.00084     0.39789
      H   18    0.09439      0.00000     0.40479    0.00082     0.40561
      H   19    0.09595      0.00000     0.40314    0.00091     0.40405
      H   20    0.09672      0.00000     0.40230    0.00098     0.40328
      H   21    0.09756      0.00000     0.40156    0.00088     0.40244
      H   22    0.11379      0.00000     0.38504    0.00118     0.38621
      H   23    0.09397      0.00000     0.40518    0.00086     0.40603
      H   24    0.09435      0.00000     0.40482    0.00084     0.40565
      H   25    0.10450      0.00000     0.39422    0.00128     0.39550
      H   26    0.09496      0.00000     0.40409    0.00095     0.40504
      H   27    0.10920      0.00000     0.38968    0.00112     0.39080
      H   28    0.12885      0.00000     0.36935    0.00180     0.37115
      H   29    0.20143      0.00000     0.29702    0.00155     0.29857
      H   30    0.07349      0.00000     0.42523    0.00128     0.42651
      H   31    0.09520      0.00000     0.40369    0.00111     0.40480
      H   32    0.07588      0.00000     0.42261    0.00151     0.42412
 =======================================================================
   * Total *    0.00000     14.99454    40.82242    0.18304    56.00000

 Normal termination of Gaussian 16 at Thu Dec 10 18:08:21 2020.
