 Gaussian 16, Revision A.03,

 -----------------------------------------------------------
 # opt freq B3LYP/6-31G(d) empiricaldispersion=gd3bj scf=xqc
 -----------------------------------------------------------

 --------------------------------
 CID_102334585_JID_10682_neutraal
 --------------------------------
 Symbolic Z-matrix:
 Charge =  0 Multiplicity = 1

 SCF Done:  E(RB3LYP) =  -863.238945406     A.U. after   15 cycles
 SCF Done:  E(RB3LYP) =  -863.243447486     A.U. after   13 cycles
 SCF Done:  E(RB3LYP) =  -863.244482217     A.U. after   13 cycles
 SCF Done:  E(RB3LYP) =  -863.245255796     A.U. after   13 cycles
 SCF Done:  E(RB3LYP) =  -863.245687501     A.U. after   12 cycles
 SCF Done:  E(RB3LYP) =  -863.245805621     A.U. after   11 cycles
 SCF Done:  E(RB3LYP) =  -863.245834639     A.U. after   11 cycles
 SCF Done:  E(RB3LYP) =  -863.245839082     A.U. after    9 cycles
 SCF Done:  E(RB3LYP) =  -863.245840092     A.U. after    9 cycles
 SCF Done:  E(RB3LYP) =  -863.245840912     A.U. after    8 cycles
 SCF Done:  E(RB3LYP) =  -863.245859928     A.U. after    8 cycles
 SCF Done:  E(RB3LYP) =  -863.245859957     A.U. after    7 cycles
 SCF Done:  E(RB3LYP) =  -863.245859978     A.U. after    8 cycles
 SCF Done:  E(RB3LYP) =  -863.245859993     A.U. after    7 cycles
 SCF Done:  E(RB3LYP) =  -863.245859997     A.U. after    6 cycles
 Optimization completed on the basis of negligible forces.
    -- Stationary point found.
 Normal termination of Gaussian 16 at Sat Dec 12 16:48:14 2020.

 --------------------------------------------------------------------
 #N Geom=AllCheck Guess=TCheck SCRF=Check GenChk RB3LYP/6-31G(d) Freq
 --------------------------------------------------------------------

 Structure from the checkpoint file:  "JID_10682.chk"
 --------------------------------
 CID_102334585_JID_10682_neutraal
 --------------------------------
 Charge =  0 Multiplicity = 1

 SCF Done:  E(RB3LYP) =  -863.245859996     A.U. after    1 cycles

  Exact polarizability: 312.371  22.865 229.419  12.361  -2.648 107.917
 Approx polarizability: 414.772  49.489 401.895  30.019  -8.168 180.169

                      1                      2                      3
                      A                      A                      A
 Frequencies --     13.7478                21.2781                32.2057
 Red. masses --      1.0371                 3.6668                 4.9192
 Frc consts  --      0.0001                 0.0010                 0.0030
 IR Inten    --      0.2263                 0.0084                 0.3945

                      4                      5                      6
                      A                      A                      A
 Frequencies --     38.7990                54.2922                87.3535
 Red. masses --      3.7244                 4.3517                 3.8970
 Frc consts  --      0.0033                 0.0076                 0.0175
 IR Inten    --      0.2103                 0.7594                 0.2340

                      7                      8                      9
                      A                      A                      A
 Frequencies --    107.7889               112.1667               152.4725
 Red. masses --      4.4816                 4.6404                 3.9484
 Frc consts  --      0.0307                 0.0344                 0.0541
 IR Inten    --      2.4264                 0.2466                 1.0571

                     10                     11                     12
                      A                      A                      A
 Frequencies --    173.0696               199.0695               205.2688
 Red. masses --      4.8670                 3.2421                 3.9740
 Frc consts  --      0.0859                 0.0757                 0.0987
 IR Inten    --      0.7636                 0.3709                 0.8154

                     13                     14                     15
                      A                      A                      A
 Frequencies --    252.1395               279.5511               290.1204
 Red. masses --      1.4418                 3.7084                 2.8668
 Frc consts  --      0.0540                 0.1708                 0.1422
 IR Inten    --      0.5539                 1.0090                 2.7476

                     16                     17                     18
                      A                      A                      A
 Frequencies --    319.4833               329.5708               360.9901
 Red. masses --      3.5544                 3.4199                 3.8591
 Frc consts  --      0.2138                 0.2189                 0.2963
 IR Inten    --      6.6265                 0.7555                 9.3930

                     19                     20                     21
                      A                      A                      A
 Frequencies --    384.8326               395.3453               416.4739
 Red. masses --      6.1981                 3.9057                 2.9776
 Frc consts  --      0.5408                 0.3597                 0.3043
 IR Inten    --      0.0892                 2.1295                 1.7899

                     22                     23                     24
                      A                      A                      A
 Frequencies --    426.3015               440.3880               487.3171
 Red. masses --      3.1443                 1.2538                 4.0498
 Frc consts  --      0.3367                 0.1433                 0.5666
 IR Inten    --      1.0837                83.9661                 4.4131

                     25                     26                     27
                      A                      A                      A
 Frequencies --    518.0654               520.2868               534.0901
 Red. masses --      3.2534                 3.4363                 4.5235
 Frc consts  --      0.5145                 0.5481                 0.7602
 IR Inten    --     12.4140                11.2874                28.8839

                     28                     29                     30
                      A                      A                      A
 Frequencies --    549.0580               636.2606               659.3832
 Red. masses --      3.2077                 6.0287                 6.8312
 Frc consts  --      0.5698                 1.4379                 1.7499
 IR Inten    --      6.1126                 1.9251                 1.1648

                     31                     32                     33
                      A                      A                      A
 Frequencies --    662.5993               689.4482               707.6687
 Red. masses --      4.4013                 5.3154                 4.7203
 Frc consts  --      1.1385                 1.4886                 1.3928
 IR Inten    --     16.3340                 9.4223                17.0922

                     34                     35                     36
                      A                      A                      A
 Frequencies --    729.7488               751.8834               794.8364
 Red. masses --      3.4073                 4.6603                 3.9279
 Frc consts  --      1.0691                 1.5523                 1.4621
 IR Inten    --      1.3645                25.1617                 1.3048

                     37                     38                     39
                      A                      A                      A
 Frequencies --    825.7797               827.0195               833.9384
 Red. masses --      1.4295                 1.3822                 4.6232
 Frc consts  --      0.5743                 0.5570                 1.8944
 IR Inten    --      8.8938                31.4476                 5.2933

                     40                     41                     42
                      A                      A                      A
 Frequencies --    847.2234               852.7474               883.7850
 Red. masses --      1.2840                 1.7978                 4.2493
 Frc consts  --      0.5430                 0.7702                 1.9555
 IR Inten    --      0.3252                20.0376                 4.3432

                     43                     44                     45
                      A                      A                      A
 Frequencies --    898.3322               954.6239               958.5994
 Red. masses --      1.9897                 1.3054                 1.3492
 Frc consts  --      0.9460                 0.7009                 0.7305
 IR Inten    --      2.5287                 1.2244                 0.1018

                     46                     47                     48
                      A                      A                      A
 Frequencies --    962.8243               965.5269              1005.4832
 Red. masses --      1.2894                 1.3166                 8.9323
 Frc consts  --      0.7043                 0.7231                 5.3207
 IR Inten    --      0.1407                 4.9900               271.3212

                     49                     50                     51
                      A                      A                      A
 Frequencies --   1019.2621              1021.5778              1036.2329
 Red. masses --      1.4270                 1.1235                 2.9066
 Frc consts  --      0.8735                 0.6908                 1.8389
 IR Inten    --      3.2096                26.6949                12.1799

                     52                     53                     54
                      A                      A                      A
 Frequencies --   1041.5000              1074.5416              1081.2462
 Red. masses --      2.7949                 1.5171                 6.8852
 Frc consts  --      1.7862                 1.0321                 4.7426
 IR Inten    --      3.8749                 6.9290                55.6835

                     55                     56                     57
                      A                      A                      A
 Frequencies --   1138.0917              1149.4808              1154.5305
 Red. masses --      2.4471                 1.4922                 1.3715
 Frc consts  --      1.8675                 1.1617                 1.0771
 IR Inten    --     28.2398                 4.0506                 6.8772

                     58                     59                     60
                      A                      A                      A
 Frequencies --   1186.5894              1213.8707              1219.9591
 Red. masses --      1.2715                 1.1774                 1.3361
 Frc consts  --      1.0548                 1.0221                 1.1716
 IR Inten    --      0.7138                49.4232                12.5655

                     61                     62                     63
                      A                      A                      A
 Frequencies --   1220.9727              1246.4125              1254.2014
 Red. masses --      1.2097                 2.2039                 2.5924
 Frc consts  --      1.0626                 2.0173                 2.4027
 IR Inten    --      4.2863                 0.2737                 5.1018

                     64                     65                     66
                      A                      A                      A
 Frequencies --   1301.8053              1304.1014              1334.9716
 Red. masses --      2.0341                 3.2181                 2.1130
 Frc consts  --      2.0311                 3.2246                 2.2187
 IR Inten    --     85.8438               195.4153                35.6233

                     67                     68                     69
                      A                      A                      A
 Frequencies --   1346.0548              1354.3011              1358.2222
 Red. masses --      1.4346                 2.3757                 2.4057
 Frc consts  --      1.5315                 2.5673                 2.6148
 IR Inten    --      3.7890                92.4879                10.2914

                     70                     71                     72
                      A                      A                      A
 Frequencies --   1359.2051              1376.7551              1411.6963
 Red. masses --      3.9953                 1.5424                 1.6693
 Frc consts  --      4.3488                 1.7225                 1.9600
 IR Inten    --     21.2385                33.6444                43.4496

                     73                     74                     75
                      A                      A                      A
 Frequencies --   1442.4081              1463.1997              1469.3319
 Red. masses --      1.2497                 2.7228                 2.9000
 Frc consts  --      1.5318                 3.4346                 3.6889
 IR Inten    --      1.8190                 0.2404                 9.7102

                     76                     77                     78
                      A                      A                      A
 Frequencies --   1500.2676              1514.7939              1521.3447
 Red. masses --      1.1960                 1.0459                 1.0477
 Frc consts  --      1.5861                 1.4140                 1.4287
 IR Inten    --     15.7443                 5.3579                 5.6484

                     79                     80                     81
                      A                      A                      A
 Frequencies --   1523.5731              1535.7630              1565.5586
 Red. masses --      1.1118                 1.0633                 2.4378
 Frc consts  --      1.5206                 1.4776                 3.5204
 IR Inten    --      9.3757                42.0647                71.3463

                     82                     83                     84
                      A                      A                      A
 Frequencies --   1568.4279              1622.2497              1628.1079
 Red. masses --      2.5141                 5.2994                 6.6096
 Frc consts  --      3.6439                 8.2170                10.3226
 IR Inten    --     37.0011                 2.9669                17.1359

                     85                     86                     87
                      A                      A                      A
 Frequencies --   1663.0258              1674.3610              1675.3159
 Red. masses --      5.7656                 5.7167                 5.8610
 Frc consts  --      9.3949                 9.4427                 9.6920
 IR Inten    --      0.7658                28.1920                97.6885

                     88                     89                     90
                      A                      A                      A
 Frequencies --   1701.1328              3026.8225              3041.9113
 Red. masses --      5.4032                 1.0348                 1.0382
 Frc consts  --      9.2125                 5.5855                 5.6602
 IR Inten    --      3.7518                54.7914                45.8929

                     91                     92                     93
                      A                      A                      A
 Frequencies --   3085.8273              3093.8796              3126.1031
 Red. masses --      1.1066                 1.0997                 1.1010
 Frc consts  --      6.2087                 6.2021                 6.3394
 IR Inten    --     41.2445                20.7857                17.6289

                     94                     95                     96
                      A                      A                      A
 Frequencies --   3160.4877              3174.2550              3175.7045
 Red. masses --      1.0998                 1.0870                 1.0880
 Frc consts  --      6.4726                 6.4531                 6.4651
 IR Inten    --     29.6670                16.2865                17.6852

                     97                     98                     99
                      A                      A                      A
 Frequencies --   3180.6716              3190.0028              3193.0104
 Red. masses --      1.0898                 1.0890                 1.0923
 Frc consts  --      6.4960                 6.5292                 6.5616
 IR Inten    --     13.6495                11.8093                27.9423

                    100                    101                    102
                      A                      A                      A
 Frequencies --   3203.4949              3206.9413              3211.7562
 Red. masses --      1.0888                 1.0914                 1.0884
 Frc consts  --      6.5832                 6.6134                 6.6150
 IR Inten    --      8.5306                14.0522                 4.9536

                    103                    104                    105
                      A                      A                      A
 Frequencies --   3229.6779              3230.8629              3752.9743
 Red. masses --      1.0932                 1.0932                 1.0675
 Frc consts  --      6.7183                 6.7231                 8.8587
 IR Inten    --     14.3670                 2.9026               116.0358

 - Thermochemistry -
 -------------------
 Temperature   298.150 Kelvin.  Pressure   1.00000 Atm.
 Atom     1 has atomic number  6 and mass  12.00000

 Molecular mass:   267.12593 amu.
 Principal axes and moments of inertia in atomic units:
                           1         2         3
     Eigenvalues --  3306.56968********************
           X            0.99999  -0.00395  -0.00167
           Y            0.00396   0.99996   0.00821
           Z            0.00164  -0.00822   0.99996
 This molecule is an asymmetric top.
 Rotational symmetry number  1.
 Warning -- assumption of classical behavior for rotation
           may cause significant error
 Rotational temperatures (Kelvin)      0.02619     0.00688     0.00565
 Rotational constants (GHZ):           0.54580     0.14345     0.11766
 Zero-point vibrational energy     793770.5 (Joules/Mol)
                                  189.71570 (Kcal/Mol)
 Warning -- explicit consideration of  28 degrees of freedom as
           vibrations may cause significant error
 Vibrational temperatures:     19.78    30.61    46.34    55.82    78.11
          (Kelvin)            125.68   155.08   161.38   219.37   249.01
                              286.42   295.34   362.77   402.21   417.42
                              459.67   474.18   519.38   553.69   568.81
                              599.21   613.35   633.62   701.14   745.38
                              748.58   768.44   789.97   915.44   948.71
                              953.33   991.96  1018.18  1049.95  1081.79
                             1143.59  1188.11  1189.90  1199.85  1218.97
                             1226.91  1271.57  1292.50  1373.49  1379.21
                             1385.29  1389.18  1446.67  1466.49  1469.82
                             1490.91  1498.49  1546.03  1555.67  1637.46
                             1653.85  1661.11  1707.24  1746.49  1755.25
                             1756.71  1793.31  1804.52  1873.01  1876.31
                             1920.73  1936.67  1948.54  1954.18  1955.59
                             1980.84  2031.12  2075.30  2105.22  2114.04
                             2158.55  2179.45  2188.88  2192.08  2209.62
                             2252.49  2256.62  2334.06  2342.48  2392.72
                             2409.03  2410.41  2447.55  4354.92  4376.63
                             4439.82  4451.40  4497.77  4547.24  4567.04
                             4569.13  4576.28  4589.70  4594.03  4609.11
                             4614.07  4621.00  4646.79  4648.49  5399.69

 Zero-point correction=                           0.302331 (Hartree/Particle)
 Thermal correction to Energy=                    0.321153
 Thermal correction to Enthalpy=                  0.322097
 Thermal correction to Gibbs Free Energy=         0.251794
 Sum of electronic and zero-point Energies=           -862.943529
 Sum of electronic and thermal Energies=              -862.924707
 Sum of electronic and thermal Enthalpies=            -862.923763
 Sum of electronic and thermal Free Energies=         -862.994066

                     E (Thermal)             CV                S
                      KCal/Mol        Cal/Mol-Kelvin    Cal/Mol-Kelvin
 Total                  201.526             70.965            147.964
 Electronic               0.000              0.000              0.000
 Translational            0.889              2.981             42.647
 Rotational               0.889              2.981             34.811
 Vibrational            199.749             65.004             70.507
 Vibration     1          0.593              1.986              7.379
 Vibration     2          0.593              1.985              6.511
 Vibration     3          0.594              1.983              5.689
 Vibration     4          0.594              1.981              5.319
 Vibration     5          0.596              1.976              4.655
 Vibration     6          0.601              1.958              3.718
 Vibration     7          0.606              1.943              3.308
 Vibration     8          0.607              1.939              3.231
 Vibration     9          0.619              1.900              2.641
 Vibration    10          0.627              1.876              2.402
 Vibration    11          0.637              1.841              2.142
 Vibration    12          0.640              1.832              2.085
 Vibration    13          0.664              1.759              1.716
 Vibration    14          0.680              1.711              1.536
 Vibration    15          0.686              1.692              1.473
 Vibration    16          0.705              1.636              1.313
 Vibration    17          0.712              1.616              1.262
 Vibration    18          0.735              1.553              1.118
 Vibration    19          0.754              1.503              1.020
 Vibration    20          0.762              1.480              0.980
 Vibration    21          0.780              1.434              0.904
 Vibration    22          0.788              1.413              0.871
 Vibration    23          0.800              1.382              0.825
 Vibration    24          0.843              1.278              0.691
 Vibration    25          0.873              1.210              0.614
 Vibration    26          0.875              1.205              0.609
 Vibration    27          0.889              1.175              0.578
 Vibration    28          0.904              1.142              0.546

 Optimization completed on the basis of negligible forces.
    -- Stationary point found.
 Normal termination of Gaussian 16 at Sat Dec 12 17:03:40 2020.

 ----------------------------------------------------------------------
 # B3LYP/6-311++G(d,p) empiricaldispersion=gd3bj scf=xqc pop=npa geom=c
 heck
 ----------------------------------------------------------------------

 ----------------------------------------
 CID_102334585_JID_10682_Energie_neutraal
 ----------------------------------------
 Structure from the checkpoint file:  "JID_10682.chk"
 Charge =  0 Multiplicity = 1

 SCF Done:  E(RB3LYP) =  -863.481838349     A.U. after   16 cycles
 Normal termination of Gaussian 16 at Sat Dec 12 17:10:08 2020.

 ----------------------------------------------------------------------
 # B3LYP/6-311++G(d,p) empiricaldispersion=gd3bj scf=xqc pop=npa geom=c
 heck
 ----------------------------------------------------------------------

 --------------------------------------
 CID_102334585_JID_10682_Energie_kation
 --------------------------------------
 Structure from the checkpoint file:  "JID_10682.chk"
 Charge =  1 Multiplicity = 2

 SCF Done:  E(UB3LYP) =  -863.217697114     A.U. after   25 cycles
 Normal termination of Gaussian 16 at Sat Dec 12 17:23:54 2020.
 Gaussian 16:  ES64L-G16RevA.03 25-Dec-2016

 ----------------------------------------------------------------------
 # B3LYP/6-311++G(d,p) empiricaldispersion=gd3bj scf=xqc pop=npa geom=c
 heck
 ----------------------------------------------------------------------

 -------------------------------------
 CID_102334585_JID_10682_Energie_anion
 -------------------------------------
 Structure from the checkpoint file:  "JID_10682.chk"
 Charge = -1 Multiplicity = 2

                         Standard orientation:
 ---------------------------------------------------------------------
 Center     Atomic      Atomic             Coordinates (Angstroms)
 Number     Number       Type             X           Y           Z
 ---------------------------------------------------------------------
      1          6           0       -6.693989   -1.288089    0.077530
      2          6           0       -5.248654   -0.857433    0.065198
      3          6           0       -4.894591    0.456423   -0.281358
      4          6           0       -3.570348    0.870743   -0.285938
      5          6           0       -2.532306   -0.016459    0.059680
      6          6           0       -2.890017   -1.331247    0.399721
      7          6           0       -4.220659   -1.742185    0.403179
      8          6           0       -1.119917    0.358947    0.076316
      9          6           0       -0.610294    1.587631   -0.146569
     10          6           0        0.808338    1.933019   -0.111763
     11          7           0        1.036713    3.208874   -0.173477
     12          8           0        2.405202    3.514622   -0.154111
     13          6           0        1.853138    0.880559   -0.008213
     14          6           0        2.826283    0.914915    1.004702
     15          6           0        3.784212   -0.081370    1.104288
     16          6           0        3.804263   -1.137180    0.180705
     17          6           0        2.848885   -1.182422   -0.839719
     18          6           0        1.882169   -0.178657   -0.919866
     19          8           0        4.787857   -2.063411    0.362067
     20          6           0        4.856564   -3.146506   -0.550446
     21          1           0       -7.252368   -0.786154    0.878201
     22          1           0       -7.193844   -1.039242   -0.866192
     23          1           0       -6.787770   -2.367072    0.234113
     24          1           0       -5.675204    1.162801   -0.554931
     25          1           0       -3.336237    1.892790   -0.567297
     26          1           0       -2.108232   -2.038287    0.666655
     27          1           0       -4.464640   -2.767086    0.672033
     28          1           0       -0.430964   -0.451062    0.303779
     29          1           0       -1.262413    2.435259   -0.340256
     30          1           0        2.390853    4.481535   -0.228191
     31          1           0        2.826347    1.734096    1.714633
     32          1           0        4.534801   -0.065510    1.887757
     33          1           0        2.845371   -1.983048   -1.569582
     34          1           0        1.142083   -0.219136   -1.713001
     35          1           0        3.941467   -3.752701   -0.525050
     36          1           0        5.027865   -2.797240   -1.577069
     37          1           0        5.702958   -3.755886   -0.229584
 ---------------------------------------------------------------------

 SCF Done:  E(UB3LYP) =  -863.492427544     A.U. after   33 cycles
 SCF Done:  E(UB3LYP) =  -863.492427544     a.u. after    1 cycles

 The electronic state is 2-A.
 Alpha  occ. eigenvalues --  -19.06440 -19.02116 -14.18693 -10.14728 -10.12925
 Alpha  occ. eigenvalues --  -10.06935 -10.06493 -10.06396 -10.06291 -10.06081
 Alpha  occ. eigenvalues --  -10.05934 -10.05351 -10.04054 -10.03922 -10.03868
 Alpha  occ. eigenvalues --  -10.03339 -10.03178 -10.03078 -10.01187 -10.00777
 Alpha  occ. eigenvalues --   -0.98117  -0.94022  -0.75284  -0.72604  -0.71933
 Alpha  occ. eigenvalues --   -0.66123  -0.65920  -0.64194  -0.61514  -0.61189
 Alpha  occ. eigenvalues --   -0.60262  -0.55871  -0.50808  -0.50305  -0.48299
 Alpha  occ. eigenvalues --   -0.47283  -0.44261  -0.43992  -0.41187  -0.39092
 Alpha  occ. eigenvalues --   -0.38934  -0.38629  -0.36202  -0.34713  -0.33752
 Alpha  occ. eigenvalues --   -0.33555  -0.32488  -0.31845  -0.31626  -0.31059
 Alpha  occ. eigenvalues --   -0.30742  -0.28852  -0.28453  -0.27992  -0.27549
 Alpha  occ. eigenvalues --   -0.26792  -0.26666  -0.25677  -0.23478  -0.23228
 Alpha  occ. eigenvalues --   -0.22465  -0.22142  -0.20830  -0.19773  -0.17606
 Alpha  occ. eigenvalues --   -0.15004  -0.13874  -0.13266  -0.12558  -0.11357
 Alpha  occ. eigenvalues --   -0.07275   0.04103
 Alpha virt. eigenvalues --    0.05911   0.07575   0.08541   0.08776   0.09130
 Alpha virt. eigenvalues --    0.09356   0.09662   0.09929   0.10007   0.10497
 Alpha virt. eigenvalues --    0.10774   0.11370   0.11604   0.11772   0.12424

  Beta  occ. eigenvalues --  -19.06429 -19.02007 -14.17987 -10.14728 -10.12874
  Beta  occ. eigenvalues --  -10.06943 -10.06507 -10.06375 -10.06262 -10.06071
  Beta  occ. eigenvalues --  -10.05956 -10.05354 -10.04124 -10.03945 -10.03614
  Beta  occ. eigenvalues --  -10.03271 -10.03075 -10.02940 -10.01000 -10.00561
  Beta  occ. eigenvalues --   -0.98088  -0.93538  -0.75184  -0.72330  -0.71463
  Beta  occ. eigenvalues --   -0.66008  -0.65533  -0.64134  -0.61166  -0.60994
  Beta  occ. eigenvalues --   -0.60145  -0.55629  -0.50764  -0.50108  -0.47943
  Beta  occ. eigenvalues --   -0.47044  -0.44224  -0.43763  -0.41012  -0.39057
  Beta  occ. eigenvalues --   -0.38898  -0.38430  -0.36039  -0.34649  -0.33546
  Beta  occ. eigenvalues --   -0.33388  -0.32355  -0.31769  -0.31452  -0.30791
  Beta  occ. eigenvalues --   -0.30618  -0.28803  -0.28332  -0.27903  -0.27269
  Beta  occ. eigenvalues --   -0.26599  -0.25786  -0.25187  -0.23200  -0.22802
  Beta  occ. eigenvalues --   -0.22311  -0.22022  -0.20673  -0.19644  -0.16504
  Beta  occ. eigenvalues --   -0.14879  -0.13010  -0.12543  -0.12053  -0.10685
  Beta  occ. eigenvalues --   -0.05253
  Beta virt. eigenvalues --    0.05898   0.07518   0.08530   0.08769   0.09155
  Beta virt. eigenvalues --    0.09343   0.09496   0.09906   0.09945   0.10283
  Beta virt. eigenvalues --    0.10479   0.11125   0.11361   0.11738   0.11904

 Mulliken charges and spin densities:
               1          2
     1  C   -0.521170  -0.022170
     2  C    0.603534   0.161264
     3  C   -0.577480  -0.041706
     4  C   -0.757151   0.150913
     5  C    1.029765   0.026090
     6  C   -0.322674   0.105024
     7  C   -0.656641  -0.004602
     8  C   -0.037552   0.162587
     9  C   -0.932463   0.056070
    10  C   -0.075248  -0.022869
    11  N   -0.428386   0.310240
    12  O   -0.032746   0.021531
    13  C    1.449032   0.032454
    14  C   -0.149283   0.024299
    15  C   -0.376457  -0.012108
    16  C   -0.701073   0.027075
    17  C    0.157601  -0.013533
    18  C   -0.529439   0.035883
    19  O   -0.159224   0.001748
    20  C   -0.320619  -0.001836
    21  H    0.115784   0.022792
    22  H    0.114019   0.012725
    23  H    0.126082   0.000990
    24  H    0.134393   0.003123
    25  H    0.043659  -0.007377
    26  H    0.102961  -0.001568
    27  H    0.083434   0.000682
    28  H    0.039724  -0.017642
    29  H    0.200807  -0.011383
    30  H    0.248048  -0.000882
    31  H    0.177828  -0.002283
    32  H    0.160694   0.001109
    33  H    0.155801   0.002485
    34  H    0.193259  -0.002303
    35  H    0.143399   0.002834
    36  H    0.143422  -0.000640
    37  H    0.154363   0.000985
 Sum of Mulliken charges =  -1.00000   1.00000

 Dipole moment (field-independent basis, Debye):
    X=              4.5178    Y=             -4.1883    Z=             -0.8551  Tot=              6.2196
 Quadrupole moment (field-independent basis, Debye-Ang):
   XX=           -178.2952   YY=           -131.8841   ZZ=           -128.1284
   XY=            -10.6486   XZ=             -1.7173   YZ=              4.0210

 Summary of Natural Population Analysis:

                                       Natural Population
                Natural  -----------------------------------------------
    Atom  No    Charge         Core      Valence    Rydberg      Total
 -----------------------------------------------------------------------
      C    1   -0.29123      0.99965     2.28717    0.00441     3.29123
      C    2    0.01334      0.99952     1.97865    0.00850     2.98666
      C    3   -0.12252      0.99953     2.11453    0.00846     3.12252
      C    4   -0.06601      0.99955     2.05784    0.00861     3.06601
      C    5   -0.01639      0.99939     2.00800    0.00901     3.01639
      C    6   -0.07551      0.99956     2.06690    0.00906     3.07551
      C    7   -0.11983      0.99953     2.11180    0.00850     3.11983
      C    8   -0.07122      0.99954     2.06327    0.00841     3.07122
      C    9   -0.06349      0.99950     2.05577    0.00823     3.06349
      C   10    0.05794      0.99954     1.92453    0.01799     2.94206
      N   11    0.00877      0.99962     2.47372    0.01789     3.49123
      O   12   -0.28948      0.99990     3.28233    0.00726     4.28948
      C   13   -0.03989      0.99948     2.02773    0.01268     3.03989
      C   14   -0.06873      0.99953     2.06104    0.00816     3.06873
      C   15   -0.13021      0.99953     2.12202    0.00867     3.13021
      C   16    0.15997      0.99939     1.82914    0.01150     2.84003
      C   17   -0.15482      0.99952     2.14780    0.00750     3.15482
      C   18   -0.07776      0.99954     2.07000    0.00822     3.07776
      O   19   -0.27648      0.99985     3.26682    0.00980     4.27648
      C   20   -0.10092      0.99961     2.09312    0.00818     3.10092
      H   21    0.09802      0.00000     0.40092    0.00106     0.40198
      H   22    0.09710      0.00000     0.40189    0.00101     0.40290
      H   23    0.09492      0.00000     0.40418    0.00090     0.40508
      H   24    0.08938      0.00000     0.40957    0.00105     0.41062
      H   25    0.09362      0.00000     0.40486    0.00152     0.40638
      H   26    0.09060      0.00000     0.40787    0.00153     0.40940
      H   27    0.08890      0.00000     0.41001    0.00109     0.41110
      H   28    0.08856      0.00000     0.40988    0.00155     0.41144
      H   29    0.09302      0.00000     0.40519    0.00179     0.40698
      H   30    0.22545      0.00000     0.27201    0.00254     0.27455
      H   31    0.10577      0.00000     0.39327    0.00095     0.39423
      H   32    0.10072      0.00000     0.39827    0.00101     0.39928
      H   33    0.09882      0.00000     0.40013    0.00105     0.40118
      H   34    0.10666      0.00000     0.39204    0.00130     0.39334
      H   35    0.08263      0.00000     0.41586    0.00151     0.41737
      H   36    0.08164      0.00000     0.41684    0.00152     0.41836
      H   37    0.08868      0.00000     0.41054    0.00078     0.41132
 =======================================================================
   * Total *    0.00000     19.99128    50.79551    0.21321    71.00000

 Normal termination of Gaussian 16 at Sat Dec 12 17:40:35 2020.
