 Gaussian 16, Revision A.03,

 -----------------------------------------------------------
 # opt freq B3LYP/6-31G(d) empiricaldispersion=gd3bj scf=xqc
 -----------------------------------------------------------

 ------------------------------
 CID_82286584_JID_6192_neutraal
 ------------------------------
 Symbolic Z-matrix:
 Charge =  0 Multiplicity = 1

 SCF Done:  E(RB3LYP) =  -712.064230889     A.U. after   14 cycles
 SCF Done:  E(RB3LYP) =  -712.068114303     A.U. after   12 cycles
 SCF Done:  E(RB3LYP) =  -712.068617641     A.U. after   11 cycles
 SCF Done:  E(RB3LYP) =  -712.068707542     A.U. after   11 cycles
 SCF Done:  E(RB3LYP) =  -712.068754356     A.U. after   11 cycles
 SCF Done:  E(RB3LYP) =  -712.068770184     A.U. after   10 cycles
 SCF Done:  E(RB3LYP) =  -712.068773969     A.U. after   10 cycles
 SCF Done:  E(RB3LYP) =  -712.068774516     A.U. after    7 cycles
 SCF Done:  E(RB3LYP) =  -712.068774600     A.U. after    7 cycles
 Optimization completed.
    -- Stationary point found.
 Normal termination of Gaussian 16 at Thu Dec 10 21:12:41 2020.

 --------------------------------------------------------------------
 #N Geom=AllCheck Guess=TCheck SCRF=Check GenChk RB3LYP/6-31G(d) Freq
 --------------------------------------------------------------------

 Structure from the checkpoint file:  "JID_6192.chk"
 ------------------------------
 CID_82286584_JID_6192_neutraal
 ------------------------------
 Charge =  0 Multiplicity = 1

 SCF Done:  E(RB3LYP) =  -712.068774600     A.U. after    1 cycles

  Exact polarizability: 203.008   0.930 140.208 -13.463  -3.163 102.602
 Approx polarizability: 258.848  -0.064 233.889 -25.225 -11.954 154.911

                      1                      2                      3
                      A                      A                      A
 Frequencies --     23.7699                54.0878                69.8502
 Red. masses --      3.9015                 3.5735                 3.5555
 Frc consts  --      0.0013                 0.0062                 0.0102
 IR Inten    --      0.1790                 1.3811                 0.8028

                      4                      5                      6
                      A                      A                      A
 Frequencies --    102.4257               123.4273               166.1873
 Red. masses --      2.9658                 2.2530                 3.2655
 Frc consts  --      0.0183                 0.0202                 0.0531
 IR Inten    --      2.5939                 4.7210                 0.3459

                      7                      8                      9
                      A                      A                      A
 Frequencies --    196.8443               225.7970               243.7574
 Red. masses --      3.7156                 1.1949                 2.7815
 Frc consts  --      0.0848                 0.0359                 0.0974
 IR Inten    --      0.1057                 0.5323                 0.2374

                     10                     11                     12
                      A                      A                      A
 Frequencies --    251.2074               281.2143               291.6609
 Red. masses --      1.6389                 1.6189                 1.8716
 Frc consts  --      0.0609                 0.0754                 0.0938
 IR Inten    --      0.5254                 0.3620                 1.3415

                     13                     14                     15
                      A                      A                      A
 Frequencies --    316.9982               330.1431               361.5834
 Red. masses --      1.4010                 2.4851                 2.5956
 Frc consts  --      0.0829                 0.1596                 0.1999
 IR Inten    --      0.7993                 3.9651                 1.9724

                     16                     17                     18
                      A                      A                      A
 Frequencies --    382.7606               409.3656               416.8724
 Red. masses --      3.7490                 2.3541                 3.1060
 Frc consts  --      0.3236                 0.2324                 0.3180
 IR Inten    --      1.3613                 1.9347                 2.1851

                     19                     20                     21
                      A                      A                      A
 Frequencies --    440.3705               472.5647               478.9914
 Red. masses --      2.4009                 3.2559                 6.2517
 Frc consts  --      0.2743                 0.4284                 0.8451
 IR Inten    --      6.3397                 1.2151                 0.9616

                     22                     23                     24
                      A                      A                      A
 Frequencies --    505.1661               543.6620               561.8815
 Red. masses --      3.5142                 3.0866                 5.2092
 Frc consts  --      0.5284                 0.5375                 0.9690
 IR Inten    --      5.1145                 2.1863                 6.0809

                     25                     26                     27
                      A                      A                      A
 Frequencies --    634.0814               667.3418               709.7513
 Red. masses --      3.8244                 2.7966                 4.3964
 Frc consts  --      0.9060                 0.7338                 1.3049
 IR Inten    --      2.3919                 7.2319                 8.6945

                     28                     29                     30
                      A                      A                      A
 Frequencies --    729.9793               764.7612               781.8340
 Red. masses --      3.1091                 5.2337                 3.5257
 Frc consts  --      0.9761                 1.8035                 1.2698
 IR Inten    --     19.2389                 9.8682                19.6734

                     31                     32                     33
                      A                      A                      A
 Frequencies --    803.2598               833.6849               880.7965
 Red. masses --      1.6078                 1.5374                 1.4538
 Frc consts  --      0.6112                 0.6296                 0.6645
 IR Inten    --     66.9673                10.7843                 7.0893

                     34                     35                     36
                      A                      A                      A
 Frequencies --    896.4997               904.9293               909.9102
 Red. masses --      2.0360                 2.3316                 1.8326
 Frc consts  --      0.9641                 1.1250                 0.8940
 IR Inten    --      2.7911                31.9458                 5.2329

                     37                     38                     39
                      A                      A                      A
 Frequencies --    940.6633               944.5339               949.9900
 Red. masses --      1.3130                 1.5138                 2.8102
 Frc consts  --      0.6845                 0.7957                 1.4943
 IR Inten    --      1.8287                 0.2255                25.4392

                     40                     41                     42
                      A                      A                      A
 Frequencies --    978.2461              1000.8898              1037.4837
 Red. masses --      2.4139                 1.6317                 1.3592
 Frc consts  --      1.3610                 0.9631                 0.8620
 IR Inten    --      1.9598                 2.9269                 3.7580

                     43                     44                     45
                      A                      A                      A
 Frequencies --   1089.2142              1101.0764              1104.4940
 Red. masses --      3.5256                 3.0885                 2.1549
 Frc consts  --      2.4644                 2.2061                 1.5488
 IR Inten    --     10.8777                74.9397                12.2489

                     46                     47                     48
                      A                      A                      A
 Frequencies --   1138.8407              1139.3128              1160.2643
 Red. masses --      2.0338                 2.1753                 1.6121
 Frc consts  --      1.5541                 1.6636                 1.2787
 IR Inten    --      9.1272                 5.0689                17.6024

                     49                     50                     51
                      A                      A                      A
 Frequencies --   1169.0504              1185.3188              1188.6749
 Red. masses --      1.4008                 1.7085                 1.8793
 Frc consts  --      1.1280                 1.4143                 1.5645
 IR Inten    --      1.0211                54.8040                 8.8377

                     52                     53                     54
                      A                      A                      A
 Frequencies --   1210.8408              1239.5668              1272.0507
 Red. masses --      2.0956                 1.9449                 2.4135
 Frc consts  --      1.8103                 1.7607                 2.3009
 IR Inten    --     33.9308                26.3749                45.9416

                     55                     56                     57
                      A                      A                      A
 Frequencies --   1277.0383              1300.8689              1309.8197
 Red. masses --      1.3063                 1.5214                 1.6894
 Frc consts  --      1.2552                 1.5169                 1.7077
 IR Inten    --     10.6815                43.8901                 8.5739

                     58                     59                     60
                      A                      A                      A
 Frequencies --   1324.6581              1338.4026              1363.0240
 Red. masses --      2.2759                 2.2560                 2.1496
 Frc consts  --      2.3530                 2.3811                 2.3529
 IR Inten    --     75.5501               208.2155                22.4678

                     61                     62                     63
                      A                      A                      A
 Frequencies --   1378.8479              1411.0075              1423.3333
 Red. masses --      2.0434                 1.3675                 1.2425
 Frc consts  --      2.2889                 1.6041                 1.4831
 IR Inten    --     31.7199                 0.7905                 5.8145

                     64                     65                     66
                      A                      A                      A
 Frequencies --   1428.5632              1441.3124              1480.9206
 Red. masses --      1.4292                 1.2407                 2.7667
 Frc consts  --      1.7185                 1.5186                 3.5750
 IR Inten    --     18.5159                 8.6019                17.0428

                     67                     68                     69
                      A                      A                      A
 Frequencies --   1483.4997              1498.5240              1509.1376
 Red. masses --      1.1680                 1.2097                 1.0759
 Frc consts  --      1.5145                 1.6005                 1.4437
 IR Inten    --      0.7338                19.1731                 1.2073

                     70                     71                     72
                      A                      A                      A
 Frequencies --   1514.9653              1523.0277              1525.7222
 Red. masses --      1.0548                 1.1323                 1.0920
 Frc consts  --      1.4264                 1.5475                 1.4976
 IR Inten    --      0.5334                15.5384                 2.7197

                     73                     74                     75
                      A                      A                      A
 Frequencies --   1526.8820              1528.4936              1540.4031
 Red. masses --      1.0922                 1.1071                 1.0788
 Frc consts  --      1.5002                 1.5239                 1.5082
 IR Inten    --      0.9305                 7.5670                 4.4373

                     76                     77                     78
                      A                      A                      A
 Frequencies --   1542.7000              1554.8841              1559.4755
 Red. masses --      1.0633                 1.1778                 2.3518
 Frc consts  --      1.4910                 1.6777                 3.3698
 IR Inten    --      2.7827                56.7468               141.8485

                     79                     80                     81
                      A                      A                      A
 Frequencies --   1642.5478              1677.4111              2969.6149
 Red. masses --      7.5596                 6.5934                 1.0600
 Frc consts  --     12.0166                10.9304                 5.5074
 IR Inten    --     39.4807                 2.6196                97.4182

                     82                     83                     84
                      A                      A                      A
 Frequencies --   3022.6761              3032.0775              3039.8763
 Red. masses --      1.0653                 1.0706                 1.0375
 Frc consts  --      5.7346                 5.7990                 5.6488
 IR Inten    --     35.9345                46.6470                42.2812

                     85                     86                     87
                      A                      A                      A
 Frequencies --   3043.1024              3060.8678              3077.9453
 Red. masses --      1.0650                 1.0369                 1.0960
 Frc consts  --      5.8108                 5.7237                 6.1178
 IR Inten    --     59.6690                11.8556                17.7125

                     88                     89                     90
                      A                      A                      A
 Frequencies --   3088.3502              3103.9438              3116.3306
 Red. masses --      1.0728                 1.1005                 1.1016
 Frc consts  --      6.0288                 6.2470                 6.3033
 IR Inten    --     36.1404                35.0283                 7.3910

                     91                     92                     93
                      A                      A                      A
 Frequencies --   3122.8236              3127.6484              3128.0847
 Red. masses --      1.1021                 1.1022                 1.0953
 Frc consts  --      6.3321                 6.3525                 6.3147
 IR Inten    --     72.2730                22.7330                53.1728

                     94                     95                     96
                      A                      A                      A
 Frequencies --   3130.1479              3146.6021              3196.4022
 Red. masses --      1.1023                 1.1020                 1.0902
 Frc consts  --      6.3630                 6.4285                 6.5624
 IR Inten    --     23.8026                20.3336                 8.5288

                     97                     98                     99
                      A                      A                      A
 Frequencies --   3206.1464              3237.2520              3475.2956
 Red. masses --      1.0894                 1.0924                 1.0736
 Frc consts  --      6.5980                 6.7451                 7.6399
 IR Inten    --      6.2971                 4.8261                 2.1149

 - Thermochemistry -
 -------------------
 Temperature   298.150 Kelvin.  Pressure   1.00000 Atm.
 Atom     1 has atomic number  6 and mass  12.00000

 Molecular mass:   221.14158 amu.
 Principal axes and moments of inertia in atomic units:
                           1         2         3
     Eigenvalues --  1382.899997035.627677652.23829
           X            1.00000   0.00043   0.00150
           Y           -0.00045   0.99991   0.01311
           Z           -0.00149  -0.01311   0.99991
 This molecule is an asymmetric top.
 Rotational symmetry number  1.
 Warning -- assumption of classical behavior for rotation
           may cause significant error
 Rotational temperatures (Kelvin)      0.06263     0.01231     0.01132
 Rotational constants (GHZ):           1.30504     0.25651     0.23584
 Zero-point vibrational energy     801788.6 (Joules/Mol)
                                  191.63208 (Kcal/Mol)
 Warning -- explicit consideration of  24 degrees of freedom as
           vibrations may cause significant error
 Vibrational temperatures:     34.20    77.82   100.50   147.37   177.58
          (Kelvin)            239.11   283.22   324.87   350.71   361.43
                              404.60   419.64   456.09   475.00   520.24
                              550.71   588.99   599.79   633.59   679.92
                              689.16   726.82   782.21   808.42   912.30
                              960.16  1021.17  1050.28  1100.32  1124.88
                             1155.71  1199.49  1267.27  1289.86  1301.99
                             1309.16  1353.40  1358.97  1366.82  1407.48
                             1440.06  1492.71  1567.14  1584.20  1589.12
                             1638.54  1639.22  1669.36  1682.00  1705.41
                             1710.24  1742.13  1783.46  1830.20  1837.37
                             1871.66  1884.54  1905.89  1925.66  1961.09
                             1983.85  2030.13  2047.86  2055.38  2073.73
                             2130.71  2134.43  2156.04  2171.31  2179.70
                             2191.30  2195.17  2196.84  2199.16  2216.30
                             2219.60  2237.13  2243.74  2363.26  2413.42
                             4272.61  4348.96  4362.48  4373.70  4378.35
                             4403.91  4428.48  4443.45  4465.88  4483.70
                             4493.05  4499.99  4500.62  4503.58  4527.26
                             4598.91  4612.93  4657.68  5000.18

 Zero-point correction=                           0.305385 (Hartree/Particle)
 Thermal correction to Energy=                    0.320770
 Thermal correction to Enthalpy=                  0.321714
 Thermal correction to Gibbs Free Energy=         0.262687
 Sum of electronic and zero-point Energies=           -711.763389
 Sum of electronic and thermal Energies=              -711.748004
 Sum of electronic and thermal Enthalpies=            -711.747060
 Sum of electronic and thermal Free Energies=         -711.806087

                     E (Thermal)             CV                S
                      KCal/Mol        Cal/Mol-Kelvin    Cal/Mol-Kelvin
 Total                  201.286             60.542            124.233
 Electronic               0.000              0.000              0.000
 Translational            0.889              2.981             42.084
 Rotational               0.889              2.981             32.676
 Vibrational            199.509             54.581             49.473
 Vibration     1          0.593              1.985              6.291
 Vibration     2          0.596              1.976              4.662
 Vibration     3          0.598              1.968              4.158
 Vibration     4          0.604              1.947              3.408
 Vibration     5          0.610              1.929              3.046
 Vibration     6          0.624              1.884              2.478
 Vibration     7          0.636              1.844              2.162
 Vibration     8          0.650              1.802              1.912
 Vibration     9          0.659              1.773              1.775
 Vibration    10          0.663              1.761              1.722
 Vibration    11          0.681              1.708              1.526
 Vibration    12          0.687              1.689              1.464
 Vibration    13          0.704              1.641              1.326
 Vibration    14          0.713              1.615              1.259
 Vibration    15          0.736              1.551              1.115
 Vibration    16          0.752              1.507              1.028
 Vibration    17          0.774              1.450              0.929
 Vibration    18          0.780              1.434              0.903
 Vibration    19          0.800              1.382              0.825
 Vibration    20          0.829              1.311              0.730
 Vibration    21          0.835              1.297              0.713
 Vibration    22          0.860              1.239              0.645
 Vibration    23          0.899              1.154              0.557
 Vibration    24          0.918              1.114              0.520

                           ! Non-Optimized Parameters !
 Normal termination of Gaussian 16 at Thu Dec 10 21:25:09 2020.

 ----------------------------------------------------------------------
 # B3LYP/6-311++G(d,p) empiricaldispersion=gd3bj scf=xqc pop=npa geom=c
 heck
 ----------------------------------------------------------------------

 --------------------------------------
 CID_82286584_JID_6192_Energie_neutraal
 --------------------------------------
 Structure from the checkpoint file:  "JID_6192.chk"
 Charge =  0 Multiplicity = 1

 SCF Done:  E(RB3LYP) =  -712.265128669     A.U. after   15 cycles
 Normal termination of Gaussian 16 at Thu Dec 10 21:31:35 2020.

 ----------------------------------------------------------------------
 # B3LYP/6-311++G(d,p) empiricaldispersion=gd3bj scf=xqc pop=npa geom=c
 heck
 ----------------------------------------------------------------------

 ------------------------------------
 CID_82286584_JID_6192_Energie_kation
 ------------------------------------
 Structure from the checkpoint file:  "JID_6192.chk"
 Charge =  1 Multiplicity = 2

 SCF Done:  E(UB3LYP) =  -711.993112547     A.U. after   26 cycles
 Normal termination of Gaussian 16 at Thu Dec 10 21:47:13 2020.
 Gaussian 16:  ES64L-G16RevA.03 25-Dec-2016

 ----------------------------------------------------------------------
 # B3LYP/6-311++G(d,p) empiricaldispersion=gd3bj scf=xqc pop=npa geom=c
 heck
 ----------------------------------------------------------------------

 -----------------------------------
 CID_82286584_JID_6192_Energie_anion
 -----------------------------------
 Structure from the checkpoint file:  "JID_6192.chk"
 Charge = -1 Multiplicity = 2

                         Standard orientation:
 ---------------------------------------------------------------------
 Center     Atomic      Atomic             Coordinates (Angstroms)
 Number     Number       Type             X           Y           Z
 ---------------------------------------------------------------------
      1          6           0        2.318738   -0.693463    1.452476
      2          6           0        2.859097   -0.469379    0.034930
      3          6           0        4.071188   -1.390774   -0.213528
      4          6           0        1.767024   -0.811698   -1.017270
      5          6           0        0.395258   -0.236758   -0.752772
      6          6           0       -0.652174   -1.082649   -0.379524
      7          6           0       -1.925610   -0.582796   -0.111345
      8          6           0       -2.166752    0.795263   -0.204550
      9          6           0       -1.130346    1.646162   -0.587689
     10          6           0        0.134951    1.137898   -0.864363
     11          8           0       -3.402831    1.339513    0.062798
     12          6           0       -4.267518    0.457027    0.773039
     13          6           0       -4.227936   -0.928405    0.148752
     14          8           0       -2.914169   -1.472615    0.245510
     15          7           0        3.200333    0.956546   -0.151934
     16          6           0        4.091717    1.563850    0.830419
     17          1           0        1.888676   -1.697135    1.534604
     18          1           0        1.535036    0.032154    1.685072
     19          1           0        3.112185   -0.609501    2.202261
     20          1           0        3.816222   -2.441678   -0.034426
     21          1           0        4.419336   -1.302385   -1.250647
     22          1           0        4.906365   -1.135761    0.447522
     23          1           0        2.135536   -0.476069   -1.997463
     24          1           0        1.687555   -1.903386   -1.079278
     25          1           0       -0.500564   -2.155054   -0.295273
     26          1           0       -1.339447    2.709249   -0.657225
     27          1           0        0.942018    1.808730   -1.132406
     28          1           0       -5.268725    0.891943    0.716519
     29          1           0       -3.958686    0.397787    1.826165
     30          1           0       -4.889836   -1.621988    0.673737
     31          1           0       -4.531259   -0.868470   -0.905880
     32          1           0        3.614539    1.056174   -1.077737
     33          1           0        5.035875    1.020380    1.011963
     34          1           0        4.347277    2.571943    0.488552
     35          1           0        3.575747    1.666391    1.789571
 ---------------------------------------------------------------------

 SCF Done:  E(UB3LYP) =  -712.251723063     A.U. after   33 cycles
 SCF Done:  E(UB3LYP) =  -712.251723063     a.u. after    1 cycles

 The electronic state is 2-A.
 Alpha  occ. eigenvalues --  -19.06249 -19.06239 -14.20034 -10.13911 -10.13882
 Alpha  occ. eigenvalues --  -10.13713 -10.13605 -10.11594 -10.09130 -10.08154
 Alpha  occ. eigenvalues --  -10.07818 -10.07639 -10.07603 -10.06925 -10.06403
 Alpha  occ. eigenvalues --  -10.06282  -0.99691  -0.96120  -0.81564  -0.76477
 Alpha  occ. eigenvalues --   -0.70352  -0.67874  -0.66078  -0.63202  -0.59951
 Alpha  occ. eigenvalues --   -0.59118  -0.57655  -0.55675  -0.52261  -0.47519
 Alpha  occ. eigenvalues --   -0.45799  -0.44609  -0.42286  -0.42175  -0.38926
 Alpha  occ. eigenvalues --   -0.37313  -0.36439  -0.36115  -0.35445  -0.34906
 Alpha  occ. eigenvalues --   -0.34325  -0.33882  -0.31880  -0.31058  -0.30668
 Alpha  occ. eigenvalues --   -0.30160  -0.29815  -0.28731  -0.28537  -0.26904
 Alpha  occ. eigenvalues --   -0.26725  -0.25360  -0.24515  -0.24363  -0.24018
 Alpha  occ. eigenvalues --   -0.21579  -0.21358  -0.14637  -0.12967  -0.11959
 Alpha  occ. eigenvalues --    0.04040
 Alpha virt. eigenvalues --    0.05186   0.07028   0.07192   0.07975   0.08177
 Alpha virt. eigenvalues --    0.08228   0.08666   0.09210   0.09611   0.09938
 Alpha virt. eigenvalues --    0.10094   0.10420   0.10744   0.11628   0.12601

  Beta  occ. eigenvalues --  -19.06250 -19.06240 -14.20017 -10.13880 -10.13850
  Beta  occ. eigenvalues --  -10.13706 -10.13596 -10.11594 -10.09101 -10.08149
  Beta  occ. eigenvalues --  -10.07819 -10.07637 -10.07592 -10.06914 -10.06371
  Beta  occ. eigenvalues --  -10.06263  -0.99683  -0.96114  -0.81537  -0.76461
  Beta  occ. eigenvalues --   -0.70324  -0.67839  -0.66061  -0.63172  -0.59912
  Beta  occ. eigenvalues --   -0.59073  -0.57593  -0.55626  -0.52244  -0.47470
  Beta  occ. eigenvalues --   -0.45762  -0.44585  -0.42253  -0.42151  -0.38888
  Beta  occ. eigenvalues --   -0.37270  -0.36404  -0.36071  -0.35407  -0.34880
  Beta  occ. eigenvalues --   -0.34295  -0.33861  -0.31850  -0.31031  -0.30659
  Beta  occ. eigenvalues --   -0.30125  -0.29784  -0.28708  -0.28510  -0.26879
  Beta  occ. eigenvalues --   -0.26699  -0.25335  -0.24486  -0.24341  -0.23987
  Beta  occ. eigenvalues --   -0.21557  -0.21336  -0.14621  -0.12945  -0.11923
  Beta virt. eigenvalues --    0.06043   0.06717   0.07386   0.07649   0.08177
  Beta virt. eigenvalues --    0.08502   0.08744   0.09008   0.09445   0.10011
  Beta virt. eigenvalues --    0.10173   0.10341   0.10738   0.10981   0.11826

 Mulliken charges and spin densities:
               1          2
     1  C   -0.249267  -0.619068
     2  C   -1.416139   1.658813
     3  C    0.922649  -1.414350
     4  C    0.411433  -1.497337
     5  C    1.618134   0.200213
     6  C   -0.906585   0.376789
     7  C   -0.049258  -0.083721
     8  C   -0.069472  -0.106623
     9  C   -0.360162  -0.021607
    10  C   -0.103525  -0.299218
    11  O   -0.184496   0.051955
    12  C    0.319313  -0.574330
    13  C    0.342226  -0.603880
    14  O   -0.193178   0.057761
    15  N    0.007547  -0.010270
    16  C    0.543946  -0.878892
    17  H    0.004411   0.142665
    18  H    0.110702   0.047648
    19  H    0.106147   0.047978
    20  H   -0.056030   0.200906
    21  H   -0.381280   0.530554
    22  H   -0.042349   0.164036
    23  H   -0.107831   0.291767
    24  H    0.280478  -0.114749
    25  H   -0.077598   0.249646
    26  H    0.036402   0.144146
    27  H    0.150678   0.043455
    28  H   -0.780623   0.979669
    29  H    0.166984  -0.003779
    30  H   -0.742648   0.937423
    31  H    0.170270  -0.007357
    32  H    0.002695   0.231308
    33  H   -0.229703   0.362679
    34  H   -0.205405   0.334921
    35  H   -0.038464   0.180847
 Sum of Mulliken charges =  -1.00000   1.00000

 Dipole moment (field-independent basis, Debye):
    X=              1.3997    Y=              0.0682    Z=             -0.4741  Tot=              1.4794
 Quadrupole moment (field-independent basis, Debye-Ang):
   XX=           -226.4651   YY=           -133.6380   ZZ=           -128.1776
   XY=             -5.0968   XZ=             10.9426   YZ=              2.0353

 Summary of Natural Population Analysis:

                                       Natural Population
                Natural  -----------------------------------------------
    Atom  No    Charge         Core      Valence    Rydberg      Total
 -----------------------------------------------------------------------
      C    1   -0.29387      0.99961     2.28855    0.00571     3.29387
      C    2    0.06468      0.99958     1.92178    0.01396     2.93532
      C    3   -0.29479      0.99962     2.28774    0.00743     3.29479
      C    4   -0.19514      0.99955     2.18418    0.01141     3.19514
      C    5   -0.01811      0.99952     2.00897    0.00963     3.01811
      C    6   -0.11314      0.99948     2.10564    0.00803     3.11314
      C    7    0.12606      0.99933     1.86184    0.01277     2.87394
      C    8    0.12246      0.99933     1.86622    0.01199     2.87754
      C    9   -0.11435      0.99953     2.10547    0.00934     3.11435
      C   10   -0.10047      0.99951     2.09259    0.00837     3.10047
      O   11   -0.27662      0.99987     3.26750    0.00925     4.27662
      C   12   -0.02434      0.99958     2.01211    0.01265     3.02434
      C   13   -0.02394      0.99958     2.01187    0.01249     3.02394
      O   14   -0.27588      0.99987     3.26672    0.00929     4.27588
      N   15   -0.34584      0.99972     2.83272    0.01339     3.84584
      C   16   -0.18033      0.99965     2.17157    0.00911     3.18033
      H   17    0.10215      0.00000     0.39699    0.00086     0.39785
      H   18    0.10902      0.00000     0.38999    0.00099     0.39098
      H   19    0.09998      0.00000     0.39917    0.00085     0.40002
      H   20    0.09929      0.00000     0.39974    0.00097     0.40071
      H   21    0.09998      0.00000     0.39857    0.00145     0.40002
      H   22    0.10097      0.00000     0.39796    0.00106     0.39903
      H   23    0.10343      0.00000     0.39534    0.00123     0.39657
      H   24    0.10018      0.00000     0.39842    0.00140     0.39982
      H   25    0.10351      0.00000     0.39487    0.00162     0.39649
      H   26    0.10471      0.00000     0.39421    0.00108     0.39529
      H   27    0.11045      0.00000     0.38826    0.00129     0.38955
      H   28    0.09976      0.00000     0.39765    0.00259     0.40024
      H   29    0.08590      0.00000     0.41262    0.00147     0.41410
      H   30    0.09995      0.00000     0.39748    0.00257     0.40005
      H   31    0.08538      0.00000     0.41320    0.00142     0.41462
      H   32    0.17200      0.00000     0.32488    0.00312     0.32800
      H   33    0.07947      0.00000     0.41885    0.00168     0.42053
      H   34    0.09595      0.00000     0.40318    0.00087     0.40405
      H   35    0.09151      0.00000     0.40740    0.00108     0.40849
 =======================================================================
   * Total *   -0.00000     15.99332    43.81426    0.19242    60.00000

 Normal termination of Gaussian 16 at Thu Dec 10 22:07:12 2020.
