 Gaussian 16, Revision A.03,

 -----------------------------------------------------------
 # opt freq B3LYP/6-31G(d) empiricaldispersion=gd3bj scf=xqc
 -----------------------------------------------------------

 -------------------------------
 CID_116606796_JID_4516_neutraal
 -------------------------------
 Symbolic Z-matrix:
 Charge =  0 Multiplicity = 1

 SCF Done:  E(RB3LYP) =  -596.302591440     A.U. after   15 cycles
 SCF Done:  E(RB3LYP) =  -596.305955710     A.U. after   13 cycles
 SCF Done:  E(RB3LYP) =  -596.305256040     A.U. after   12 cycles
 SCF Done:  E(RB3LYP) =  -596.306540312     A.U. after   12 cycles
 SCF Done:  E(RB3LYP) =  -596.306987094     A.U. after   12 cycles
 SCF Done:  E(RB3LYP) =  -596.307239113     A.U. after   12 cycles
 SCF Done:  E(RB3LYP) =  -596.307430314     A.U. after   14 cycles
 SCF Done:  E(RB3LYP) =  -596.307510538     A.U. after   11 cycles
 SCF Done:  E(RB3LYP) =  -596.307513909     A.U. after   12 cycles
 SCF Done:  E(RB3LYP) =  -596.307548495     A.U. after   11 cycles
 SCF Done:  E(RB3LYP) =  -596.307549970     A.U. after   10 cycles
 SCF Done:  E(RB3LYP) =  -596.307550486     A.U. after    8 cycles
 SCF Done:  E(RB3LYP) =  -596.307550542     A.U. after    8 cycles
 SCF Done:  E(RB3LYP) =  -596.307550548     A.U. after    7 cycles
 Optimization completed.
    -- Stationary point found.
 Normal termination of Gaussian 16 at Thu Dec 10 10:01:28 2020.

 --------------------------------------------------------------------
 #N Geom=AllCheck Guess=TCheck SCRF=Check GenChk RB3LYP/6-31G(d) Freq
 --------------------------------------------------------------------

 Structure from the checkpoint file:  "JID_4516.chk"
 -------------------------------
 CID_116606796_JID_4516_neutraal
 -------------------------------
 Charge =  0 Multiplicity = 1

 SCF Done:  E(RB3LYP) =  -596.307550548     A.U. after    1 cycles

  Exact polarizability: 145.045   9.185 139.543 -16.679  10.942  96.418
 Approx polarizability: 194.900  13.306 236.548 -32.332  31.322 150.289

                      1                      2                      3
                      A                      A                      A
 Frequencies --     23.3591                27.2447                43.2555
 Red. masses --      4.3314                 4.4085                 4.0874
 Frc consts  --      0.0014                 0.0019                 0.0045
 IR Inten    --      0.0343                 0.4800                 0.4954

                      4                      5                      6
                      A                      A                      A
 Frequencies --     66.8496                86.5733               105.3598
 Red. masses --      3.2716                 5.2969                 3.1586
 Frc consts  --      0.0086                 0.0234                 0.0207
 IR Inten    --      0.1751                 2.1085                 0.2245

                      7                      8                      9
                      A                      A                      A
 Frequencies --    182.1763               196.6848               266.7623
 Red. masses --      2.7062                 4.6254                 2.4366
 Frc consts  --      0.0529                 0.1054                 0.1022
 IR Inten    --      1.4593                 0.9793                20.0882

                     10                     11                     12
                      A                      A                      A
 Frequencies --    301.6896               305.4858               321.9625
 Red. masses --      2.3012                 1.8975                 2.3583
 Frc consts  --      0.1234                 0.1043                 0.1440
 IR Inten    --      5.5924                23.9674                17.4760

                     13                     14                     15
                      A                      A                      A
 Frequencies --    360.4215               408.9533               417.2836
 Red. masses --      2.2661                 2.3064                 2.9856
 Frc consts  --      0.1734                 0.2273                 0.3063
 IR Inten    --      6.5033                 3.2376                 0.0224

                     16                     17                     18
                      A                      A                      A
 Frequencies --    471.0197               488.4723               539.9080
 Red. masses --      2.5106                 3.3458                 4.2265
 Frc consts  --      0.3282                 0.4704                 0.7259
 IR Inten    --      9.1173                 9.6294                 2.1124

                     19                     20                     21
                      A                      A                      A
 Frequencies --    624.4700               640.3814               648.7662
 Red. masses --      4.0414                 5.2510                 1.8446
 Frc consts  --      0.9285                 1.2687                 0.4574
 IR Inten    --      7.7526                 2.1883                16.0297

                     22                     23                     24
                      A                      A                      A
 Frequencies --    713.3582               737.6703               753.5729
 Red. masses --      2.3698                 1.9950                 2.2395
 Frc consts  --      0.7105                 0.6396                 0.7493
 IR Inten    --     16.0529                16.8465                27.6201

                     25                     26                     27
                      A                      A                      A
 Frequencies --    785.5112               842.6240               863.2654
 Red. masses --      2.5640                 3.3387                 1.2467
 Frc consts  --      0.9321                 1.3967                 0.5474
 IR Inten    --      0.7220                 1.3296                 0.2196

                     28                     29                     30
                      A                      A                      A
 Frequencies --    924.2368               928.4770               945.7698
 Red. masses --      1.5658                 1.3954                 1.3519
 Frc consts  --      0.7880                 0.7088                 0.7125
 IR Inten    --     74.0446                 1.2526                36.4168

                     31                     32                     33
                      A                      A                      A
 Frequencies --    957.6691               958.7345               971.2450
 Red. masses --      2.2480                 2.3162                 1.4432
 Frc consts  --      1.2147                 1.2543                 0.8021
 IR Inten    --      5.9750                 4.3397                38.4866

                     34                     35                     36
                      A                      A                      A
 Frequencies --    973.4125               998.3571              1014.9434
 Red. masses --      1.4523                 1.2592                 3.0662
 Frc consts  --      0.8108                 0.7395                 1.8609
 IR Inten    --     46.8470                 0.4957                34.6547

                     37                     38                     39
                      A                      A                      A
 Frequencies --   1022.3399              1046.5962              1061.1820
 Red. masses --      6.0727                 1.1003                 2.2460
 Frc consts  --      3.7396                 0.7101                 1.4902
 IR Inten    --      0.8255                15.6288                 3.2115

                     40                     41                     42
                      A                      A                      A
 Frequencies --   1091.8868              1121.1199              1126.7182
 Red. masses --      1.8302                 1.4212                 1.6126
 Frc consts  --      1.2856                 1.0524                 1.2062
 IR Inten    --      7.6582                18.9503                 2.8252

                     43                     44                     45
                      A                      A                      A
 Frequencies --   1149.8223              1194.4888              1215.2501
 Red. masses --      2.2662                 1.1036                 1.4158
 Frc consts  --      1.7653                 0.9277                 1.2320
 IR Inten    --     44.6300                 0.1563                10.9319

                     46                     47                     48
                      A                      A                      A
 Frequencies --   1218.4860              1220.5345              1235.6869
 Red. masses --      1.5102                 1.5492                 1.7517
 Frc consts  --      1.3210                 1.3598                 1.5759
 IR Inten    --     10.3531                 0.8059                27.1963

                     49                     50                     51
                      A                      A                      A
 Frequencies --   1262.5943              1306.0837              1335.7299
 Red. masses --      1.3439                 1.5112                 1.2478
 Frc consts  --      1.2623                 1.5188                 1.3117
 IR Inten    --     11.2252                12.3676                 1.5607

                     52                     53                     54
                      A                      A                      A
 Frequencies --   1355.7810              1361.2312              1366.1202
 Red. masses --      1.5488                 1.6763                 2.8190
 Frc consts  --      1.6773                 1.8301                 3.0997
 IR Inten    --      1.8411                 0.3957                 7.6254

                     55                     56                     57
                      A                      A                      A
 Frequencies --   1374.1817              1436.1791              1473.6803
 Red. masses --      1.3110                 1.3094                 1.1763
 Frc consts  --      1.4587                 1.5912                 1.5051
 IR Inten    --      8.3307                 7.0593                 1.7932

                     58                     59                     60
                      A                      A                      A
 Frequencies --   1499.7477              1506.9543              1511.9539
 Red. masses --      1.3974                 1.5528                 1.1146
 Frc consts  --      1.8519                 2.0777                 1.5013
 IR Inten    --      4.7803                 7.6235                 6.6839

                     61                     62                     63
                      A                      A                      A
 Frequencies --   1546.8168              1646.2488              1664.7940
 Red. masses --      2.1874                 5.5579                 5.5204
 Frc consts  --      3.0836                 8.8747                 9.0144
 IR Inten    --     13.0595                 2.2166                 6.9070

                     64                     65                     66
                      A                      A                      A
 Frequencies --   1703.9803              1733.0820              1801.6537
 Red. masses --      1.0879                 4.4340                10.6067
 Frc consts  --      1.8611                 7.8466                20.2849
 IR Inten    --     22.7360                 6.9736               139.2991

                     67                     68                     69
                      A                      A                      A
 Frequencies --   3041.7218              3067.1716              3085.5716
 Red. masses --      1.0652                 1.0579                 1.0843
 Frc consts  --      5.8068                 5.8635                 6.0822
 IR Inten    --     16.7743                10.0199                18.8627

                     70                     71                     72
                      A                      A                      A
 Frequencies --   3110.8402              3122.8139              3142.9626
 Red. masses --      1.0978                 1.1065                 1.0828
 Frc consts  --      6.2595                 6.3573                 6.3017
 IR Inten    --      7.4933                11.2095                20.5625

                     73                     74                     75
                      A                      A                      A
 Frequencies --   3157.7223              3180.2681              3185.3999
 Red. masses --      1.0676                 1.0861                 1.0870
 Frc consts  --      6.2720                 6.4721                 6.4985
 IR Inten    --      4.6127                 5.8873                 0.0696

                     76                     77                     78
                      A                      A                      A
 Frequencies --   3194.4092              3202.1860              3212.8250
 Red. masses --      1.0906                 1.0943                 1.0981
 Frc consts  --      6.5570                 6.6110                 6.6780
 IR Inten    --      9.7678                30.1361                19.4724

                     79                     80                     81
                      A                      A                      A
 Frequencies --   3237.2713              3447.2973              3530.8094
 Red. masses --      1.1158                 1.0499                 1.0912
 Frc consts  --      6.8898                 7.3509                 8.0146
 IR Inten    --     17.2494                 1.2794                 1.4575

 - Thermochemistry -
 -------------------
 Temperature   298.150 Kelvin.  Pressure   1.00000 Atm.
 Atom     1 has atomic number  6 and mass  12.00000

 Molecular mass:   189.11536 amu.
 Principal axes and moments of inertia in atomic units:
                           1         2         3
     Eigenvalues --  1591.334914386.313484932.28681
           X            0.99989   0.01452  -0.00177
           Y           -0.01455   0.99971  -0.01929
           Z            0.00149   0.01932   0.99981
 This molecule is an asymmetric top.
 Rotational symmetry number  1.
 Warning -- assumption of classical behavior for rotation
           may cause significant error
 Rotational temperatures (Kelvin)      0.05443     0.01975     0.01756
 Rotational constants (GHZ):           1.13411     0.41145     0.36590
 Zero-point vibrational energy     648412.6 (Joules/Mol)
                                  154.97433 (Kcal/Mol)
 Warning -- explicit consideration of  18 degrees of freedom as
           vibrations may cause significant error
 Vibrational temperatures:     33.61    39.20    62.24    96.18   124.56
          (Kelvin)            151.59   262.11   282.99   383.81   434.06
                              439.53   463.23   518.57   588.39   600.38
                              677.69   702.80   776.81   898.47   921.37
                              933.43  1026.36  1061.34  1084.22  1130.18
                             1212.35  1242.05  1329.77  1335.87  1360.75
                             1377.87  1379.41  1397.40  1400.52  1436.41
                             1460.28  1470.92  1505.82  1526.80  1570.98
                             1613.04  1621.10  1654.34  1718.60  1748.47
                             1753.13  1756.08  1777.88  1816.59  1879.16
                             1921.82  1950.67  1958.51  1965.54  1977.14
                             2066.34  2120.30  2157.80  2168.17  2175.36
                             2225.52  2368.58  2395.27  2451.65  2493.52
                             2592.18  4376.36  4412.98  4439.45  4475.81
                             4493.03  4522.02  4543.26  4575.70  4583.08
                             4596.04  4607.23  4622.54  4657.71  4959.89
                             5080.05

 Zero-point correction=                           0.246967 (Hartree/Particle)
 Thermal correction to Energy=                    0.260859
 Thermal correction to Enthalpy=                  0.261803
 Thermal correction to Gibbs Free Energy=         0.203904
 Sum of electronic and zero-point Energies=           -596.060583
 Sum of electronic and thermal Energies=              -596.046691
 Sum of electronic and thermal Enthalpies=            -596.045747
 Sum of electronic and thermal Free Energies=         -596.103647

                     E (Thermal)             CV                S
                      KCal/Mol        Cal/Mol-Kelvin    Cal/Mol-Kelvin
 Total                  163.692             51.699            121.860
 Electronic               0.000              0.000              0.000
 Translational            0.889              2.981             41.617
 Rotational               0.889              2.981             31.910
 Vibrational            161.914             45.737             48.333
 Vibration     1          0.593              1.985              6.326
 Vibration     2          0.593              1.984              6.021
 Vibration     3          0.595              1.980              5.104
 Vibration     4          0.598              1.970              4.244
 Vibration     5          0.601              1.959              3.736
 Vibration     6          0.605              1.945              3.353
 Vibration     7          0.630              1.864              2.306
 Vibration     8          0.636              1.845              2.164
 Vibration     9          0.672              1.734              1.617
 Vibration    10          0.694              1.670              1.408
 Vibration    11          0.696              1.663              1.387
 Vibration    12          0.707              1.631              1.300
 Vibration    13          0.735              1.554              1.120
 Vibration    14          0.773              1.451              0.930
 Vibration    15          0.780              1.433              0.901
 Vibration    16          0.828              1.314              0.735
 Vibration    17          0.844              1.276              0.688
 Vibration    18          0.895              1.162              0.565

 Optimization completed.
    -- Stationary point found.
 Normal termination of Gaussian 16 at Thu Dec 10 10:10:15 2020.

 ----------------------------------------------------------------------
 # B3LYP/6-311++G(d,p) empiricaldispersion=gd3bj scf=xqc pop=npa geom=c
 heck
 ----------------------------------------------------------------------

 ---------------------------------------
 CID_116606796_JID_4516_Energie_neutraal
 ---------------------------------------
 Structure from the checkpoint file:  "JID_4516.chk"
 Charge =  0 Multiplicity = 1

 SCF Done:  E(RB3LYP) =  -596.480597642     A.U. after   14 cycles
 Normal termination of Gaussian 16 at Thu Dec 10 10:14:45 2020.

 ----------------------------------------------------------------------
 # B3LYP/6-311++G(d,p) empiricaldispersion=gd3bj scf=xqc pop=npa geom=c
 heck
 ----------------------------------------------------------------------

 -------------------------------------
 CID_116606796_JID_4516_Energie_kation
 -------------------------------------
 Structure from the checkpoint file:  "JID_4516.chk"
 Charge =  1 Multiplicity = 2

 SCF Done:  E(UB3LYP) =  -596.177379706     A.U. after   23 cycles
 Normal termination of Gaussian 16 at Thu Dec 10 10:23:47 2020.
 Gaussian 16:  ES64L-G16RevA.03 25-Dec-2016

 ----------------------------------------------------------------------
 # B3LYP/6-311++G(d,p) empiricaldispersion=gd3bj scf=xqc pop=npa geom=c
 heck
 ----------------------------------------------------------------------

 ------------------------------------
 CID_116606796_JID_4516_Energie_anion
 ------------------------------------
 Structure from the checkpoint file:  "JID_4516.chk"
 Charge = -1 Multiplicity = 2

                         Standard orientation:
 ---------------------------------------------------------------------
 Center     Atomic      Atomic             Coordinates (Angstroms)
 Number     Number       Type             X           Y           Z
 ---------------------------------------------------------------------
      1          6           0        3.488069    2.151490   -0.071788
      2          6           0        3.180020    0.888496   -0.368979
      3          6           0        2.883253   -0.181143    0.645505
      4          6           0        1.378682   -0.525609    0.772086
      5          6           0        0.827790   -0.924232   -0.604167
      6          8           0        0.999133   -2.050607   -1.036485
      7          6           0        0.018814    0.118503   -1.364360
      8          6           0       -1.327229    0.277184   -0.682040
      9          6           0       -1.682008    1.470594   -0.044764
     10          6           0       -2.908513    1.588429    0.610696
     11          6           0       -3.792106    0.509460    0.641176
     12          6           0       -3.442892   -0.688225    0.013318
     13          6           0       -2.217593   -0.804417   -0.640654
     14          7           0        1.214619   -1.583731    1.769068
     15          1           0        3.566210    2.489164    0.959792
     16          1           0        3.684234    2.891603   -0.842717
     17          1           0        3.119922    0.592091   -1.417199
     18          1           0        3.409016   -1.107421    0.376067
     19          1           0        3.228667    0.117312    1.640124
     20          1           0        0.850735    0.366983    1.123628
     21          1           0        0.555193    1.073628   -1.357390
     22          1           0       -0.095024   -0.221793   -2.398169
     23          1           0       -0.994631    2.312604   -0.066499
     24          1           0       -3.172229    2.523377    1.097115
     25          1           0       -4.746908    0.600126    1.151047
     26          1           0       -4.125348   -1.533298    0.034167
     27          1           0       -1.939959   -1.738561   -1.122088
     28          1           0        0.219561   -1.698727    1.962378
     29          1           0        1.507444   -2.459291    1.331979
 ---------------------------------------------------------------------

 SCF Done:  E(UB3LYP) =  -596.473878607     A.U. after   33 cycles
 SCF Done:  E(UB3LYP) =  -596.473878608     a.u. after    1 cycles

 The electronic state is 2-A.
 Alpha  occ. eigenvalues --  -18.96667 -14.18240 -10.10118 -10.08589 -10.07661
 Alpha  occ. eigenvalues --  -10.06667 -10.06572 -10.06046 -10.05804 -10.05597
 Alpha  occ. eigenvalues --  -10.05410 -10.05252 -10.05059 -10.04915  -0.90450
 Alpha  occ. eigenvalues --   -0.77682  -0.74058  -0.69363  -0.66304  -0.62872
 Alpha  occ. eigenvalues --   -0.61432  -0.58282  -0.52136  -0.48980  -0.47405
 Alpha  occ. eigenvalues --   -0.45858  -0.41200  -0.39731  -0.39093  -0.35817
 Alpha  occ. eigenvalues --   -0.35609  -0.34286  -0.33329  -0.32350  -0.31480
 Alpha  occ. eigenvalues --   -0.30671  -0.30266  -0.29166  -0.27168  -0.27002
 Alpha  occ. eigenvalues --   -0.24841  -0.24427  -0.23933  -0.23489  -0.22554
 Alpha  occ. eigenvalues --   -0.21903  -0.16537  -0.15077  -0.14068  -0.13891
 Alpha  occ. eigenvalues --   -0.10529   0.04949
 Alpha virt. eigenvalues --    0.07333   0.07469   0.08520   0.08996   0.09409
 Alpha virt. eigenvalues --    0.09747   0.09813   0.10130   0.10801   0.11408
 Alpha virt. eigenvalues --    0.11489   0.12009   0.12505   0.13395   0.14011

  Beta  occ. eigenvalues --  -18.96364 -14.18213 -10.09787 -10.08610 -10.07643
  Beta  occ. eigenvalues --  -10.06640 -10.06562 -10.05939 -10.05827 -10.05540
  Beta  occ. eigenvalues --  -10.05421 -10.05147 -10.05094 -10.04817  -0.89861
  Beta  occ. eigenvalues --   -0.77595  -0.73900  -0.69303  -0.66067  -0.62737
  Beta  occ. eigenvalues --   -0.61303  -0.58060  -0.51990  -0.48892  -0.47168
  Beta  occ. eigenvalues --   -0.45758  -0.40898  -0.39648  -0.38911  -0.35758
  Beta  occ. eigenvalues --   -0.35453  -0.34098  -0.33180  -0.32222  -0.31153
  Beta  occ. eigenvalues --   -0.30587  -0.30134  -0.28935  -0.27051  -0.26732
  Beta  occ. eigenvalues --   -0.24625  -0.24229  -0.23833  -0.23016  -0.22462
  Beta  occ. eigenvalues --   -0.21019  -0.16414  -0.14899  -0.13703  -0.13397
  Beta  occ. eigenvalues --   -0.10269
  Beta virt. eigenvalues --    0.07386   0.07800   0.08736   0.08899   0.09440
  Beta virt. eigenvalues --    0.09612   0.09842   0.10106   0.10464   0.10958
  Beta virt. eigenvalues --    0.11581   0.12411   0.12445   0.12939   0.13780

 Mulliken charges and spin densities:
               1          2
     1  C   -0.065488  -0.533300
     2  C    0.016266   0.289156
     3  C   -0.352646  -0.034215
     4  C   -0.352594  -0.223093
     5  C   -0.255439   0.434823
     6  O   -0.315398   0.107899
     7  C    1.034753  -1.765460
     8  C    0.198503   0.822602
     9  C   -0.545544   0.294293
    10  C    0.439519  -0.754697
    11  C    0.555866  -0.848412
    12  C   -0.460169   0.149589
    13  C   -0.858059   0.710714
    14  N   -0.241807   0.010539
    15  H    0.107565   0.002605
    16  H   -0.186402   0.297277
    17  H    0.124965   0.078539
    18  H    0.147540  -0.007883
    19  H    0.156139   0.006705
    20  H    0.299389  -0.079681
    21  H   -0.107879   0.294849
    22  H   -0.054216   0.245733
    23  H   -0.353396   0.494210
    24  H   -0.367583   0.534812
    25  H   -0.116444   0.233830
    26  H   -0.070465   0.213939
    27  H    0.188572  -0.011034
    28  H    0.195428   0.030744
    29  H    0.239021   0.004918
 Sum of Mulliken charges =  -1.00000   1.00000

 Dipole moment (field-independent basis, Debye):
    X=              1.8963    Y=             -1.8178    Z=              1.5128  Tot=              3.0313
 Quadrupole moment (field-independent basis, Debye-Ang):
   XX=           -133.5813   YY=           -120.2100   ZZ=           -112.3408
   XY=              6.5412   XZ=              3.6913   YZ=              1.0505

 Summary of Natural Population Analysis:

                                       Natural Population
                Natural  -----------------------------------------------
    Atom  No    Charge         Core      Valence    Rydberg      Total
 -----------------------------------------------------------------------
      C    1   -0.19946      0.99956     2.19195    0.00794     3.19946
      C    2   -0.07858      0.99957     2.06874    0.01028     3.07858
      C    3   -0.20415      0.99959     2.19358    0.01098     3.20415
      C    4   -0.05022      0.99954     2.03826    0.01242     3.05022
      C    5    0.32936      0.99964     1.64639    0.02461     2.67064
      O    6   -0.28315      0.99987     3.27612    0.00716     4.28315
      C    7   -0.24500      0.99955     2.23483    0.01062     3.24500
      C    8   -0.00016      0.99950     1.99031    0.01034     3.00016
      C    9   -0.08845      0.99950     2.07864    0.01031     3.08845
      C   10   -0.10788      0.99956     2.09766    0.01065     3.10788
      C   11   -0.09363      0.99956     2.08449    0.00958     3.09363
      C   12   -0.09542      0.99957     2.08628    0.00957     3.09542
      C   13   -0.10619      0.99951     2.09706    0.00963     3.10619
      N   14   -0.41855      0.99977     2.90986    0.00891     3.91855
      H   15    0.08765      0.00000     0.41140    0.00095     0.41235
      H   16    0.09377      0.00000     0.40531    0.00092     0.40623
      H   17    0.09589      0.00000     0.40312    0.00099     0.40411
      H   18    0.10212      0.00000     0.39678    0.00111     0.39788
      H   19    0.10069      0.00000     0.39806    0.00126     0.39931
      H   20    0.09726      0.00000     0.40097    0.00177     0.40274
      H   21    0.11141      0.00000     0.38595    0.00265     0.38859
      H   22    0.10963      0.00000     0.38882    0.00154     0.39037
      H   23    0.10001      0.00000     0.39852    0.00147     0.39999
      H   24    0.09786      0.00000     0.40099    0.00115     0.40214
      H   25    0.09511      0.00000     0.40398    0.00092     0.40489
      H   26    0.09470      0.00000     0.40449    0.00082     0.40530
      H   27    0.10277      0.00000     0.39586    0.00137     0.39723
      H   28    0.17580      0.00000     0.32251    0.00168     0.32420
      H   29    0.17683      0.00000     0.32121    0.00196     0.32317
 =======================================================================
   * Total *    0.00000     13.99430    36.83211    0.17359    51.00000

 Normal termination of Gaussian 16 at Thu Dec 10 10:37:07 2020.
