 Gaussian 16, Revision A.03,

 -----------------------------------------------------------
 # opt freq B3LYP/6-31G(d) empiricaldispersion=gd3bj scf=xqc
 -----------------------------------------------------------

 ------------------------------
 CID_73474031_JID_3982_neutraal
 ------------------------------
 Symbolic Z-matrix:
 Charge =  0 Multiplicity = 1

 SCF Done:  E(RB3LYP) =  -877.530224091     A.U. after   17 cycles
 SCF Done:  E(RB3LYP) =  -877.538215053     A.U. after   14 cycles
 SCF Done:  E(RB3LYP) =  -877.539052162     A.U. after   13 cycles
 SCF Done:  E(RB3LYP) =  -877.539123398     A.U. after   11 cycles
 SCF Done:  E(RB3LYP) =  -877.539125092     A.U. after   10 cycles
 SCF Done:  E(RB3LYP) =  -877.539129015     A.U. after    9 cycles
 SCF Done:  E(RB3LYP) =  -877.539129294     A.U. after    9 cycles
 Optimization completed.
    -- Stationary point found.
 Normal termination of Gaussian 16 at Mon Dec 14 13:05:55 2020.

 --------------------------------------------------------------------
 #N Geom=AllCheck Guess=TCheck SCRF=Check GenChk RB3LYP/6-31G(d) Freq
 --------------------------------------------------------------------

 Structure from the checkpoint file:  "JID_3982.chk"
 ------------------------------
 CID_73474031_JID_3982_neutraal
 ------------------------------
 Charge =  0 Multiplicity = 1

 SCF Done:  E(RB3LYP) =  -877.539129294     A.U. after    1 cycles

  Exact polarizability: 291.228 -29.132 164.790   0.009  -0.007  52.784
 Approx polarizability: 678.353-129.486 324.045   0.014  -0.012  84.037

                      1                      2                      3
                      A                      A                      A
 Frequencies --     44.5236                90.2332               148.7075
 Red. masses --      4.8308                 3.7027                 4.3228
 Frc consts  --      0.0056                 0.0178                 0.0563
 IR Inten    --      0.5183                 0.6515                 8.0952

                      4                      5                      6
                      A                      A                      A
 Frequencies --    193.3583               210.6431               237.0136
 Red. masses --      1.1137                 7.4124                 4.4366
 Frc consts  --      0.0245                 0.1938                 0.1468
 IR Inten    --      0.0194                 0.1512                 0.5458

                      7                      8                      9
                      A                      A                      A
 Frequencies --    306.8438               321.9591               360.0274
 Red. masses --      3.1007                 4.1484                 2.8095
 Frc consts  --      0.1720                 0.2534                 0.2146
 IR Inten    --      1.3817                 0.1369                 0.1248

                     10                     11                     12
                      A                      A                      A
 Frequencies --    413.0422               440.9252               441.8045
 Red. masses --      8.6620                 2.7374                 5.8206
 Frc consts  --      0.8707                 0.3136                 0.6694
 IR Inten    --     13.4057                 0.1000                 0.3980

                     13                     14                     15
                      A                      A                      A
 Frequencies --    448.9299               506.7055               544.3027
 Red. masses --      3.6340                 6.0726                 2.7689
 Frc consts  --      0.4315                 0.9186                 0.4833
 IR Inten    --      2.8822                26.3479                 1.4591

                     16                     17                     18
                      A                      A                      A
 Frequencies --    552.1202               631.4231               673.6327
 Red. masses --      3.7400                 6.1384                 2.0768
 Frc consts  --      0.6717                 1.4419                 0.5552
 IR Inten    --      6.8189                 1.7449                 0.1002

                     19                     20                     21
                      A                      A                      A
 Frequencies --    719.7913               722.3558               826.6588
 Red. masses --      2.0725                 5.1215                 4.3347
 Frc consts  --      0.6326                 1.5745                 1.7453
 IR Inten    --      0.0914                 0.8620                 7.2398

                     22                     23                     24
                      A                      A                      A
 Frequencies --    828.7691               856.2730               880.0299
 Red. masses --      6.3068                 1.3323                 1.3411
 Frc consts  --      2.5523                 0.5756                 0.6119
 IR Inten    --     11.8004                22.3553                 6.9968

                     25                     26                     27
                      A                      A                      A
 Frequencies --    881.4840               916.6159               994.5522
 Red. masses --      2.9276                 4.2157                 1.3879
 Frc consts  --      1.3403                 2.0869                 0.8088
 IR Inten    --     11.5073                 8.4000                23.7791

                     28                     29                     30
                      A                      A                      A
 Frequencies --    999.3057              1016.2088              1021.3682
 Red. masses --      1.3755                 1.4644                 1.5527
 Frc consts  --      0.8093                 0.8910                 0.9543
 IR Inten    --      3.3356                 0.3314                 0.8742

                     31                     32                     33
                      A                      A                      A
 Frequencies --   1075.5949              1096.9081              1134.8140
 Red. masses --      1.5604                 2.1761                 2.6096
 Frc consts  --      1.0636                 1.5427                 1.9800
 IR Inten    --      4.0509                15.0179                16.6078

                     34                     35                     36
                      A                      A                      A
 Frequencies --   1157.9395              1175.0175              1238.0593
 Red. masses --      1.5387                 4.5481                 2.3747
 Frc consts  --      1.2156                 3.6997                 2.1445
 IR Inten    --     28.9388               170.3665                 2.3330

                     37                     38                     39
                      A                      A                      A
 Frequencies --   1280.8986              1316.5948              1335.1495
 Red. masses --      1.7681                 2.7018                 2.5686
 Frc consts  --      1.7092                 2.7594                 2.6977
 IR Inten    --     12.5850                 1.8243                38.0283

                     40                     41                     42
                      A                      A                      A
 Frequencies --   1395.9793              1420.1708              1442.8446
 Red. masses --      2.4353                 2.6496                 1.3570
 Frc consts  --      2.7962                 3.1485                 1.6645
 IR Inten    --      9.8367                70.7572                 1.8042

                     43                     44                     45
                      A                      A                      A
 Frequencies --   1451.5594              1477.1186              1509.9549
 Red. masses --      1.5810                 2.2112                 1.0442
 Frc consts  --      1.9627                 2.8425                 1.4027
 IR Inten    --     58.3006                29.6759                 8.7731

                     46                     47                     48
                      A                      A                      A
 Frequencies --   1510.9875              1525.2892              1576.1067
 Red. masses --      5.2172                 1.1428                 5.5296
 Frc consts  --      7.0180                 1.5665                 8.0931
 IR Inten    --     92.6213                 6.7927               193.0793

                     49                     50                     51
                      A                      A                      A
 Frequencies --   1613.7273              1631.0320              1675.9423
 Red. masses --      5.0707                 3.8806                 5.8862
 Frc consts  --      7.7799                 6.0823                 9.7409
 IR Inten    --     67.6316                10.0702                61.1123

                     52                     53                     54
                      A                      A                      A
 Frequencies --   3048.3330              3100.0891              3143.5084
 Red. masses --      1.0384                 1.1002                 1.1002
 Frc consts  --      5.6852                 6.2297                 6.4055
 IR Inten    --     25.8862                11.3903                12.6807

                     55                     56                     57
                      A                      A                      A
 Frequencies --   3184.1061              3194.3677              3198.6098
 Red. masses --      1.0897                 1.0887                 1.0573
 Frc consts  --      6.5092                 6.5451                 6.3734
 IR Inten    --     32.4985                 9.4289                 0.5572

                     58                     59                     60
                      A                      A                      A
 Frequencies --   3205.4490              3230.4885              3292.0416
 Red. masses --      1.0927                 1.0939                 1.1178
 Frc consts  --      6.6151                 6.7263                 7.1372
 IR Inten    --      9.5816                 9.0040                 1.9913

 - Thermochemistry -
 -------------------
 Temperature   298.150 Kelvin.  Pressure   1.00000 Atm.
 Atom     1 has atomic number  6 and mass  12.00000

 Molecular mass:   187.04557 amu.
 Principal axes and moments of inertia in atomic units:
                           1         2         3
     Eigenvalues --  1349.749353349.696094688.23970
           X            0.99960   0.02812   0.00001
           Y           -0.02812   0.99960  -0.00002
           Z           -0.00001   0.00002   1.00000
 This molecule is an asymmetric top.
 Rotational symmetry number  1.
 Warning -- assumption of classical behavior for rotation
           may cause significant error
 Rotational temperatures (Kelvin)      0.06417     0.02586     0.01847
 Rotational constants (GHZ):           1.33709     0.53878     0.38495
 Zero-point vibrational energy     447811.8 (Joules/Mol)
                                  107.02959 (Kcal/Mol)
 Warning -- explicit consideration of  16 degrees of freedom as
           vibrations may cause significant error
 Vibrational temperatures:     64.06   129.83   213.96   278.20   303.07
          (Kelvin)            341.01   441.48   463.23   518.00   594.28
                              634.39   635.66   645.91   729.04   783.13
                              794.38   908.48   969.21  1035.62  1039.31
                             1189.38  1192.41  1231.99  1266.17  1268.26
                             1318.81  1430.94  1437.78  1462.10  1469.52
                             1547.54  1578.21  1632.74  1666.02  1690.59
                             1781.29  1842.93  1894.29  1920.98  2008.50
                             2043.31  2075.93  2088.47  2125.24  2172.49
                             2173.97  2194.55  2267.67  2321.79  2346.69
                             2411.31  4385.87  4460.34  4522.81  4581.22
                             4595.98  4602.09  4611.93  4647.95  4736.51

 Zero-point correction=                           0.170563 (Hartree/Particle)
 Thermal correction to Energy=                    0.181330
 Thermal correction to Enthalpy=                  0.182274
 Thermal correction to Gibbs Free Energy=         0.133559
 Sum of electronic and zero-point Energies=           -877.368567
 Sum of electronic and thermal Energies=              -877.357800
 Sum of electronic and thermal Enthalpies=            -877.356855
 Sum of electronic and thermal Free Energies=         -877.405570

                     E (Thermal)             CV                S
                      KCal/Mol        Cal/Mol-Kelvin    Cal/Mol-Kelvin
 Total                  113.786             42.178            102.528
 Electronic               0.000              0.000              0.000
 Translational            0.889              2.981             41.585
 Rotational               0.889              2.981             31.428
 Vibrational            112.009             36.216             29.516
 Vibration     1          0.595              1.980              5.047
 Vibration     2          0.602              1.956              3.655
 Vibration     3          0.618              1.904              2.689
 Vibration     4          0.635              1.849              2.195
 Vibration     5          0.643              1.825              2.038
 Vibration     6          0.656              1.784              1.825
 Vibration     7          0.697              1.661              1.379
 Vibration     8          0.707              1.631              1.300
 Vibration     9          0.735              1.555              1.122
 Vibration    10          0.777              1.442              0.916
 Vibration    11          0.801              1.381              0.824
 Vibration    12          0.802              1.379              0.821
 Vibration    13          0.808              1.363              0.799
 Vibration    14          0.862              1.235              0.642
 Vibration    15          0.899              1.152              0.556
 Vibration    16          0.907              1.135              0.540

                           ! Non-Optimized Parameters !
 Normal termination of Gaussian 16 at Mon Dec 14 13:11:02 2020.

 ----------------------------------------------------------------------
 # B3LYP/6-311++G(d,p) empiricaldispersion=gd3bj scf=xqc pop=npa geom=c
 heck
 ----------------------------------------------------------------------

 --------------------------------------
 CID_73474031_JID_3982_Energie_neutraal
 --------------------------------------
 Structure from the checkpoint file:  "JID_3982.chk"
 Charge =  0 Multiplicity = 1

 SCF Done:  E(RB3LYP) =  -877.681225413     A.U. after   19 cycles
 Normal termination of Gaussian 16 at Mon Dec 14 13:13:15 2020.

 ----------------------------------------------------------------------
 # B3LYP/6-311++G(d,p) empiricaldispersion=gd3bj scf=xqc pop=npa geom=c
 heck
 ----------------------------------------------------------------------

 ------------------------------------
 CID_73474031_JID_3982_Energie_kation
 ------------------------------------
 Structure from the checkpoint file:  "JID_3982.chk"
 Charge =  1 Multiplicity = 2

 SCF Done:  E(UB3LYP) =  -877.408554011     A.U. after   27 cycles
 Normal termination of Gaussian 16 at Mon Dec 14 13:17:26 2020.
 Gaussian 16:  ES64L-G16RevA.03 25-Dec-2016

 ----------------------------------------------------------------------
 # B3LYP/6-311++G(d,p) empiricaldispersion=gd3bj scf=xqc pop=npa geom=c
 heck
 ----------------------------------------------------------------------

 -----------------------------------
 CID_73474031_JID_3982_Energie_anion
 -----------------------------------
 Structure from the checkpoint file:  "JID_3982.chk"
 Charge = -1 Multiplicity = 2

                         Standard orientation:
 ---------------------------------------------------------------------
 Center     Atomic      Atomic             Coordinates (Angstroms)
 Number     Number       Type             X           Y           Z
 ---------------------------------------------------------------------
      1          6           0       -3.804869   -1.018729    0.000132
      2          6           0       -2.324816   -0.758848    0.000216
      3          6           0       -1.432031   -1.795194    0.000526
      4          6           0       -0.027982   -1.578746    0.000439
      5          6           0        0.538661   -0.320590    0.000121
      6          6           0        1.990748   -0.107031   -0.000027
      7         16           0        3.131363   -1.344525   -0.000655
      8          6           0        2.381977    1.269344    0.000441
      9          6           0        1.444435    2.267039    0.000544
     10          7           0        0.091930    2.072063    0.000462
     11          6           0       -0.343030    0.831763    0.000320
     12          6           0       -1.814334    0.609007   -0.000206
     13          6           0       -2.648921    1.677353   -0.001243
     14          1           0       -4.009149   -2.092176    0.001345
     15          1           0       -4.287375   -0.582308   -0.882808
     16          1           0       -4.287924   -0.580165    0.881687
     17          1           0       -1.797460   -2.817952    0.000831
     18          1           0        0.645280   -2.431860    0.000660
     19          1           0        3.440134    1.504931    0.000514
     20          1           0        1.754951    3.309509    0.000741
     21          1           0       -3.726787    1.566343   -0.001603
     22          1           0       -2.236020    2.679438   -0.001699
 ---------------------------------------------------------------------

 SCF Done:  E(UB3LYP) =  -877.771269398     A.U. after   23 cycles

 The electronic state is 2-A.
 Alpha  occ. eigenvalues --  -88.63626 -14.15876 -10.07814 -10.07272 -10.06861
 Alpha  occ. eigenvalues --  -10.06676 -10.06435 -10.05651 -10.04856 -10.04294
 Alpha  occ. eigenvalues --  -10.04212 -10.03946 -10.03099  -7.72398  -5.68743
 Alpha  occ. eigenvalues --   -5.68338  -5.67927  -0.80452  -0.72660  -0.68408
 Alpha  occ. eigenvalues --   -0.64693  -0.63616  -0.58961  -0.54858  -0.53941
 Alpha  occ. eigenvalues --   -0.48824  -0.46755  -0.42123  -0.38349  -0.37738
 Alpha  occ. eigenvalues --   -0.35987  -0.32410  -0.32221  -0.31696  -0.29951
 Alpha  occ. eigenvalues --   -0.28613  -0.27670  -0.27500  -0.25641  -0.23908
 Alpha  occ. eigenvalues --   -0.21206  -0.21157  -0.20302  -0.19372  -0.14504
 Alpha  occ. eigenvalues --   -0.12806  -0.12070  -0.06669  -0.05713  -0.03313
 Alpha virt. eigenvalues --    0.07605   0.08617   0.09456   0.09891   0.10755
 Alpha virt. eigenvalues --    0.11150   0.11989   0.12046   0.13305   0.13953
 Alpha virt. eigenvalues --    0.14165   0.15414   0.16294   0.16385   0.16883

  Beta  occ. eigenvalues --  -88.63585 -14.15941 -10.07601 -10.07184 -10.06766
  Beta  occ. eigenvalues --  -10.06704 -10.06035 -10.05855 -10.05016 -10.04396
  Beta  occ. eigenvalues --  -10.03777 -10.03311 -10.03127  -7.72361  -5.68723
  Beta  occ. eigenvalues --   -5.68208  -5.67905  -0.80344  -0.72246  -0.68150
  Beta  occ. eigenvalues --   -0.64409  -0.63119  -0.58801  -0.54753  -0.53013
  Beta  occ. eigenvalues --   -0.48545  -0.46378  -0.41715  -0.38156  -0.37539
  Beta  occ. eigenvalues --   -0.35832  -0.32345  -0.31783  -0.31578  -0.29653
  Beta  occ. eigenvalues --   -0.28392  -0.27375  -0.27138  -0.25436  -0.23716
  Beta  occ. eigenvalues --   -0.21032  -0.20389  -0.20160  -0.18458  -0.12935
  Beta  occ. eigenvalues --   -0.12148  -0.12095  -0.05613  -0.05398
  Beta virt. eigenvalues --    0.02964   0.07596   0.09440   0.09553   0.09879
  Beta virt. eigenvalues --    0.11141   0.11359   0.12035   0.12484   0.13287
  Beta virt. eigenvalues --    0.13924   0.14151   0.15737   0.16387   0.16526

 Mulliken charges and spin densities:
               1          2
     1  C   -0.440408  -0.013125
     2  C    0.594383   0.283865
     3  C   -0.766155  -0.160644
     4  C   -0.383956   0.351639
     5  C    0.744274  -0.106343
     6  C    1.273397   0.070610
     7  S   -1.153227   0.086853
     8  C   -0.517398  -0.015877
     9  C    0.202750   0.067682
    10  N    0.037588  -0.027301
    11  C   -1.514034   0.126551
    12  C    0.366240  -0.148475
    13  C   -0.554021   0.525482
    14  H    0.138687   0.001112
    15  H    0.128989   0.016893
    16  H    0.128886   0.016860
    17  H    0.091158   0.006701
    18  H    0.064629  -0.026184
    19  H    0.118805   0.000694
    20  H    0.152517  -0.005050
    21  H    0.123830  -0.025229
    22  H    0.163067  -0.026713
 Sum of Mulliken charges =  -1.00000   1.00000

 Dipole moment (field-independent basis, Debye):
    X=             -6.1823    Y=              0.6285    Z=              0.0013  Tot=              6.2142
 Quadrupole moment (field-independent basis, Debye-Ang):
   XX=           -122.0832   YY=           -101.6714   ZZ=            -93.4803
   XY=             14.4177   XZ=              0.0056   YZ=             -0.0051

 Summary of Natural Population Analysis:

                                       Natural Population
                Natural  -----------------------------------------------
    Atom  No    Charge         Core      Valence    Rydberg      Total
 -----------------------------------------------------------------------
      C    1   -0.30198      0.99964     2.29766    0.00467     3.30198
      C    2    0.10949      0.99949     1.88341    0.00762     2.89051
      C    3   -0.16742      0.99952     2.15885    0.00905     3.16742
      C    4    0.07105      0.99945     1.92047    0.00903     2.92895
      C    5   -0.10617      0.99935     2.09447    0.01235     3.10617
      C    6   -0.05085      0.99951     2.03737    0.01398     3.05085
      S    7   -0.13292      4.99957     3.11932    0.01403     8.13292
      C    8   -0.15512      0.99949     2.14496    0.01067     3.15512
      C    9    0.04907      0.99956     1.93767    0.01370     2.95093
      N   10   -0.28670      0.99967     2.77380    0.01323     3.78670
      C   11    0.17387      0.99949     1.81149    0.01514     2.82613
      C   12   -0.11439      0.99948     2.10552    0.00939     3.11439
      C   13    0.05137      0.99952     1.94364    0.00548     2.94863
      H   14    0.09747      0.00000     0.40163    0.00090     0.40253
      H   15    0.10481      0.00000     0.39410    0.00109     0.39519
      H   16    0.10480      0.00000     0.39411    0.00109     0.39520
      H   17    0.09213      0.00000     0.40641    0.00146     0.40787
      H   18    0.10932      0.00000     0.38991    0.00077     0.39068
      H   19    0.10027      0.00000     0.39753    0.00220     0.39973
      H   20    0.08041      0.00000     0.41832    0.00128     0.41959
      H   21    0.07555      0.00000     0.42334    0.00112     0.42445
      H   22    0.09617      0.00000     0.40257    0.00126     0.40383
 =======================================================================
   * Total *    0.00021     16.99374    31.85655    0.14951    48.99979

 Normal termination of Gaussian 16 at Mon Dec 14 13:21:02 2020.
