 Gaussian 16, Revision A.03,

 -----------------------------------------------------------
 # opt freq B3LYP/6-31G(d) empiricaldispersion=gd3bj scf=xqc
 -----------------------------------------------------------

 -------------------------------
 CID_116155771_JID_5981_neutraal
 -------------------------------
 Symbolic Z-matrix:
 Charge =  0 Multiplicity = 1

 SCF Done:  E(RB3LYP) =  -671.329291559     A.U. after   14 cycles
 SCF Done:  E(RB3LYP) =  -671.334870738     A.U. after   12 cycles
 SCF Done:  E(RB3LYP) =  -671.336319402     A.U. after   14 cycles
 SCF Done:  E(RB3LYP) =  -671.337051966     A.U. after   12 cycles
 SCF Done:  E(RB3LYP) =  -671.337172853     A.U. after   11 cycles
 SCF Done:  E(RB3LYP) =  -671.337277773     A.U. after   12 cycles
 SCF Done:  E(RB3LYP) =  -671.337417783     A.U. after   11 cycles
 SCF Done:  E(RB3LYP) =  -671.337442127     A.U. after   10 cycles
 SCF Done:  E(RB3LYP) =  -671.337455283     A.U. after   10 cycles
 SCF Done:  E(RB3LYP) =  -671.337469604     A.U. after    9 cycles
 SCF Done:  E(RB3LYP) =  -671.337477121     A.U. after   10 cycles
 SCF Done:  E(RB3LYP) =  -671.337478833     A.U. after    8 cycles
 SCF Done:  E(RB3LYP) =  -671.337479422     A.U. after    8 cycles
 SCF Done:  E(RB3LYP) =  -671.337479544     A.U. after    7 cycles
 Optimization completed.
    -- Stationary point found.
 Normal termination of Gaussian 16 at Thu Dec 10 17:43:31 2020.

 --------------------------------------------------------------------
 #N Geom=AllCheck Guess=TCheck SCRF=Check GenChk RB3LYP/6-31G(d) Freq
 --------------------------------------------------------------------

 Structure from the checkpoint file:  "JID_5981.chk"
 -------------------------------
 CID_116155771_JID_5981_neutraal
 -------------------------------
 Charge =  0 Multiplicity = 1

 SCF Done:  E(RB3LYP) =  -671.337479544     A.U. after    1 cycles

  Exact polarizability: 158.487  -0.625 143.105   9.259   5.385 103.345
 Approx polarizability: 206.680  -2.415 205.906  17.862  10.440 157.999

                      1                      2                      3
                      A                      A                      A
 Frequencies --     27.8222                30.7586                41.7986
 Red. masses --      4.2712                 3.2947                 4.1724
 Frc consts  --      0.0019                 0.0018                 0.0043
 IR Inten    --      1.6947                 0.1589                 1.3204

                      4                      5                      6
                      A                      A                      A
 Frequencies --     55.8075                83.7774               103.9822
 Red. masses --      3.2003                 3.8018                 3.3787
 Frc consts  --      0.0059                 0.0157                 0.0215
 IR Inten    --      2.0949                 0.2889                 3.0003

                      7                      8                      9
                      A                      A                      A
 Frequencies --    120.1117               170.6943               175.0743
 Red. masses --      3.9933                 1.2458                 1.5868
 Frc consts  --      0.0339                 0.0214                 0.0287
 IR Inten    --      3.5713                 1.3723                 0.0657

                     10                     11                     12
                      A                      A                      A
 Frequencies --    185.8905               212.3333               233.8242
 Red. masses --      2.9070                 2.4924                 2.3560
 Frc consts  --      0.0592                 0.0662                 0.0759
 IR Inten    --      0.7694                 3.1333                 1.6259

                     13                     14                     15
                      A                      A                      A
 Frequencies --    260.2020               274.7245               297.8186
 Red. masses --      2.2184                 1.5184                 2.8281
 Frc consts  --      0.0885                 0.0675                 0.1478
 IR Inten    --      2.6445                 1.6531                 2.0014

                     16                     17                     18
                      A                      A                      A
 Frequencies --    324.8158               377.6426               401.5307
 Red. masses --      2.5006                 2.1149                 2.3700
 Frc consts  --      0.1554                 0.1777                 0.2251
 IR Inten    --      1.8471                 8.7539                 0.1479

                     19                     20                     21
                      A                      A                      A
 Frequencies --    429.5697               469.1471               523.5139
 Red. masses --      2.3199                 2.7976                 2.1962
 Frc consts  --      0.2522                 0.3628                 0.3546
 IR Inten    --      1.7112                 6.0927                 3.7941

                     22                     23                     24
                      A                      A                      A
 Frequencies --    597.4082               627.4894               656.2762
 Red. masses --      2.7760                 4.4772                 4.0890
 Frc consts  --      0.5837                 1.0386                 1.0376
 IR Inten    --      7.0976                10.6556                12.2406

                     25                     26                     27
                      A                      A                      A
 Frequencies --    693.3840               717.5226               753.5018
 Red. masses --      1.2835                 2.8871                 1.4126
 Frc consts  --      0.3636                 0.8758                 0.4725
 IR Inten    --     36.7511                 9.5422                15.4356

                     28                     29                     30
                      A                      A                      A
 Frequencies --    759.0110               765.7629               810.1172
 Red. masses --      1.5518                 5.3229                 1.9819
 Frc consts  --      0.5267                 1.8390                 0.7664
 IR Inten    --     17.5566                23.6163                24.8246

                     31                     32                     33
                      A                      A                      A
 Frequencies --    822.0536               832.1453               863.5151
 Red. masses --      2.0774                 1.2703                 1.9521
 Frc consts  --      0.8271                 0.5183                 0.8576
 IR Inten    --      5.7188                 5.0805                 3.7894

                     34                     35                     36
                      A                      A                      A
 Frequencies --    882.0920               931.7725               940.2011
 Red. masses --      2.1345                 1.8856                 5.4127
 Frc consts  --      0.9785                 0.9645                 2.8191
 IR Inten    --      8.5842                18.8927                 4.6496

                     37                     38                     39
                      A                      A                      A
 Frequencies --    977.3046              1001.0074              1002.5399
 Red. masses --      2.0484                 1.5671                 1.7430
 Frc consts  --      1.1527                 0.9252                 1.0322
 IR Inten    --      2.8539                 8.7767                 3.7568

                     40                     41                     42
                      A                      A                      A
 Frequencies --   1046.4919              1065.6701              1091.6214
 Red. masses --      1.9346                 1.8100                 2.0430
 Frc consts  --      1.2483                 1.2111                 1.4344
 IR Inten    --     25.2613                 1.4181                 6.9211

                     43                     44                     45
                      A                      A                      A
 Frequencies --   1109.6783              1115.6123              1128.5240
 Red. masses --      1.5940                 1.7620                 2.8657
 Frc consts  --      1.1564                 1.2921                 2.1503
 IR Inten    --     20.8847                32.4180                34.0064

                     46                     47                     48
                      A                      A                      A
 Frequencies --   1142.0685              1162.1973              1163.0275
 Red. masses --      1.9552                 1.3149                 2.0088
 Frc consts  --      1.5026                 1.0464                 1.6009
 IR Inten    --     17.5931                 2.1748                16.2431

                     49                     50                     51
                      A                      A                      A
 Frequencies --   1177.5433              1180.5586              1239.1363
 Red. masses --      2.9879                 2.2938                 2.0934
 Frc consts  --      2.4410                 1.8836                 1.8938
 IR Inten    --     61.4242                76.1214                 7.2584

                     52                     53                     54
                      A                      A                      A
 Frequencies --   1265.4907              1283.7505              1284.6005
 Red. masses --      1.2895                 1.3037                 1.6300
 Frc consts  --      1.2167                 1.2659                 1.5848
 IR Inten    --      3.1863                 2.3442                 6.7197

                     55                     56                     57
                      A                      A                      A
 Frequencies --   1307.3253              1321.3057              1334.7673
 Red. masses --      1.2646                 2.5282                 1.1489
 Frc consts  --      1.2734                 2.6006                 1.2060
 IR Inten    --      4.2268                28.9469                 5.1954

                     58                     59                     60
                      A                      A                      A
 Frequencies --   1359.4157              1380.2204              1390.1538
 Red. masses --      1.1105                 3.3793                 1.3871
 Frc consts  --      1.2091                 3.7929                 1.5793
 IR Inten    --      8.6618                 4.7732                 5.3086

                     61                     62                     63
                      A                      A                      A
 Frequencies --   1402.3351              1407.3306              1412.3271
 Red. masses --      1.3323                 1.4523                 1.4211
 Frc consts  --      1.5437                 1.6947                 1.6701
 IR Inten    --     10.7566                 2.2597                 1.2581

                     64                     65                     66
                      A                      A                      A
 Frequencies --   1437.0315              1446.9202              1453.4801
 Red. masses --      1.2815                 1.6795                 1.2336
 Frc consts  --      1.5592                 2.0717                 1.5354
 IR Inten    --     30.2340                57.1739                 4.7840

                     67                     68                     69
                      A                      A                      A
 Frequencies --   1462.9241              1474.1202              1499.5210
 Red. masses --      1.2892                 1.2403                 1.0911
 Frc consts  --      1.6256                 1.5880                 1.4454
 IR Inten    --      2.2477                 6.5627                 1.4890

                     70                     71                     72
                      A                      A                      A
 Frequencies --   1504.2309              1510.4550              1517.9355
 Red. masses --      1.0879                 1.2479                 1.0797
 Frc consts  --      1.4504                 1.6774                 1.4658
 IR Inten    --      4.5462                23.8704                 0.1991

                     73                     74                     75
                      A                      A                      A
 Frequencies --   1520.9164              1528.1755              1535.8965
 Red. masses --      1.0694                 1.0767                 1.0527
 Frc consts  --      1.4574                 1.4815                 1.4631
 IR Inten    --     11.3294                 4.1130                 8.1895

                     76                     77                     78
                      A                      A                      A
 Frequencies --   1540.3929              1543.2322              1552.2124
 Red. masses --      1.1433                 2.4320                 1.0599
 Frc consts  --      1.5983                 3.4125                 1.5046
 IR Inten    --      0.5258                34.7468                 4.4284

                     79                     80                     81
                      A                      A                      A
 Frequencies --   1561.5201              1570.7654              1594.6535
 Red. masses --      1.2237                 2.0165                 4.0659
 Frc consts  --      1.7581                 2.9314                 6.0917
 IR Inten    --     15.2654                24.8515               126.4046

                     82                     83                     84
                      A                      A                      A
 Frequencies --   3004.5468              3019.4309              3020.5018
 Red. masses --      1.0670                 1.0671                 1.0660
 Frc consts  --      5.6750                 5.7317                 5.7303
 IR Inten    --     48.7843                34.0260                21.1458

                     85                     86                     87
                      A                      A                      A
 Frequencies --   3039.4399              3041.8306              3043.1832
 Red. masses --      1.0474                 1.0595                 1.0610
 Frc consts  --      5.7011                 5.7762                 5.7891
 IR Inten    --     26.4312                36.4346                43.0091

                     88                     89                     90
                      A                      A                      A
 Frequencies --   3053.9025              3070.0321              3071.6588
 Red. masses --      1.0396                 1.0960                 1.0686
 Frc consts  --      5.7124                 6.0862                 5.9404
 IR Inten    --     33.0204                27.5853                50.9530

                     91                     92                     93
                      A                      A                      A
 Frequencies --   3077.6316              3084.1824              3086.5117
 Red. masses --      1.1009                 1.0962                 1.0953
 Frc consts  --      6.1435                 6.1435                 6.1480
 IR Inten    --     33.3818                60.4282                26.6005

                     94                     95                     96
                      A                      A                      A
 Frequencies --   3105.6428              3106.8269              3123.1599
 Red. masses --      1.0996                 1.0977                 1.1018
 Frc consts  --      6.2485                 6.2426                 6.3322
 IR Inten    --     61.2833                18.1984                17.6119

                     97                     98                     99
                      A                      A                      A
 Frequencies --   3124.4705              3135.9634              3159.7876
 Red. masses --      1.0972                 1.0986                 1.1051
 Frc consts  --      6.3111                 6.3653                 6.5007
 IR Inten    --     19.6230                27.7267                 5.5812

                    100                    101                    102
                      A                      A                      A
 Frequencies --   3260.2844              3288.5032              3562.9398
 Red. masses --      1.0913                 1.1041                 1.0736
 Frc consts  --      6.8344                 7.0347                 8.0296
 IR Inten    --      6.9979                 5.5628                18.5342

 - Thermochemistry -
 -------------------
 Temperature   298.150 Kelvin.  Pressure   1.00000 Atm.
 Atom     1 has atomic number  6 and mass  12.00000

 Molecular mass:   211.16846 amu.
 Principal axes and moments of inertia in atomic units:
                           1         2         3
     Eigenvalues --  1899.918254980.928166213.98336
           X            0.99958  -0.02882   0.00359
           Y            0.02882   0.99958   0.00164
           Z           -0.00364  -0.00154   0.99999
 This molecule is an asymmetric top.
 Rotational symmetry number  1.
 Warning -- assumption of classical behavior for rotation
           may cause significant error
 Rotational temperatures (Kelvin)      0.04559     0.01739     0.01394
 Rotational constants (GHZ):           0.94990     0.36233     0.29043
 Zero-point vibrational energy     848989.2 (Joules/Mol)
                                  202.91329 (Kcal/Mol)
 Warning -- explicit consideration of  22 degrees of freedom as
           vibrations may cause significant error
 Vibrational temperatures:     40.03    44.25    60.14    80.29   120.54
          (Kelvin)            149.61   172.81   245.59   251.89   267.45
                              305.50   336.42   374.37   395.27   428.49
                              467.34   543.34   577.71   618.05   675.00
                              753.22   859.54   902.82   944.24   997.62
                             1032.35  1084.12  1092.05  1101.76  1165.58
                             1182.75  1197.27  1242.41  1269.13  1340.61
                             1352.74  1406.12  1440.23  1442.43  1505.67
                             1533.26  1570.60  1596.58  1605.12  1623.69
                             1643.18  1672.14  1673.34  1694.22  1698.56
                             1782.84  1820.76  1847.03  1848.25  1880.95
                             1901.06  1920.43  1955.90  1985.83  2000.12
                             2017.65  2024.83  2032.02  2067.57  2081.80
                             2091.23  2104.82  2120.93  2157.48  2164.25
                             2173.21  2183.97  2188.26  2198.70  2209.81
                             2216.28  2220.37  2233.29  2246.68  2259.98
                             2294.35  4322.87  4344.29  4345.83  4373.08
                             4376.52  4378.46  4393.88  4417.09  4419.43
                             4428.03  4437.45  4440.80  4468.33  4470.03
                             4493.53  4495.42  4511.95  4546.23  4690.82
                             4731.42  5126.28

 Zero-point correction=                           0.323363 (Hartree/Particle)
 Thermal correction to Energy=                    0.339718
 Thermal correction to Enthalpy=                  0.340662
 Thermal correction to Gibbs Free Energy=         0.277754
 Sum of electronic and zero-point Energies=           -671.014117
 Sum of electronic and thermal Energies=              -670.997762
 Sum of electronic and thermal Enthalpies=            -670.996818
 Sum of electronic and thermal Free Energies=         -671.059725

                     E (Thermal)             CV                S
                      KCal/Mol        Cal/Mol-Kelvin    Cal/Mol-Kelvin
 Total                  213.176             60.224            132.400
 Electronic               0.000              0.000              0.000
 Translational            0.889              2.981             41.946
 Rotational               0.889              2.981             32.442
 Vibrational            211.399             54.263             58.012
 Vibration     1          0.593              1.984              5.979
 Vibration     2          0.594              1.984              5.780
 Vibration     3          0.594              1.980              5.172
 Vibration     4          0.596              1.975              4.600
 Vibration     5          0.601              1.960              3.800
 Vibration     6          0.605              1.946              3.378
 Vibration     7          0.609              1.932              3.099
 Vibration     8          0.626              1.879              2.428
 Vibration     9          0.627              1.873              2.380
 Vibration    10          0.632              1.859              2.268
 Vibration    11          0.643              1.822              2.024
 Vibration    12          0.654              1.789              1.849
 Vibration    13          0.668              1.745              1.660
 Vibration    14          0.677              1.720              1.566
 Vibration    15          0.691              1.678              1.429
 Vibration    16          0.709              1.626              1.286
 Vibration    17          0.748              1.518              1.049
 Vibration    18          0.767              1.467              0.957
 Vibration    19          0.791              1.406              0.860
 Vibration    20          0.826              1.318              0.740
 Vibration    21          0.878              1.198              0.602
 Vibration    22          0.955              1.037              0.454

                           ! Non-Optimized Parameters !
 Normal termination of Gaussian 16 at Thu Dec 10 17:56:57 2020.

 ----------------------------------------------------------------------
 # B3LYP/6-311++G(d,p) empiricaldispersion=gd3bj scf=xqc pop=npa geom=c
 heck
 ----------------------------------------------------------------------

 ---------------------------------------
 CID_116155771_JID_5981_Energie_neutraal
 ---------------------------------------
 Structure from the checkpoint file:  "JID_5981.chk"
 Charge =  0 Multiplicity = 1

 SCF Done:  E(RB3LYP) =  -671.527723541     A.U. after   14 cycles
 Normal termination of Gaussian 16 at Thu Dec 10 18:03:32 2020.

 ----------------------------------------------------------------------
 # B3LYP/6-311++G(d,p) empiricaldispersion=gd3bj scf=xqc pop=npa geom=c
 heck
 ----------------------------------------------------------------------

 -------------------------------------
 CID_116155771_JID_5981_Energie_kation
 -------------------------------------
 Structure from the checkpoint file:  "JID_5981.chk"
 Charge =  1 Multiplicity = 2

 SCF Done:  E(UB3LYP) =  -671.247881888     A.U. after   22 cycles
 Normal termination of Gaussian 16 at Thu Dec 10 18:18:03 2020.
 Gaussian 16:  ES64L-G16RevA.03 25-Dec-2016

 ----------------------------------------------------------------------
 # B3LYP/6-311++G(d,p) empiricaldispersion=gd3bj scf=xqc pop=npa geom=c
 heck
 ----------------------------------------------------------------------

 ------------------------------------
 CID_116155771_JID_5981_Energie_anion
 ------------------------------------
 Structure from the checkpoint file:  "JID_5981.chk"
 Charge = -1 Multiplicity = 2

                         Standard orientation:
 ---------------------------------------------------------------------
 Center     Atomic      Atomic             Coordinates (Angstroms)
 Number     Number       Type             X           Y           Z
 ---------------------------------------------------------------------
      1          6           0       -2.807914    2.245946   -0.023235
      2          6           0       -3.601229    1.067137    0.553238
      3          6           0       -3.780699   -0.109860   -0.420305
      4          6           0       -2.506182   -0.783064   -0.937060
      5          8           0       -1.851019   -1.635963   -0.004262
      6          6           0       -1.069983   -0.979842    0.991931
      7          6           0        0.219676   -1.763275    1.227217
      8          6           0        0.978321   -2.079792   -0.069388
      9          7           0        1.170768   -0.940616   -0.991393
     10          6           0        1.654418    0.256166   -0.461137
     11          7           0        0.975654    1.384213   -0.325921
     12          6           0        1.881285    2.297145    0.179319
     13          6           0        3.104188    1.710896    0.364558
     14          7           0        2.958278    0.396448   -0.062681
     15          6           0        3.998364   -0.607561   -0.169302
     16          1           0       -1.760925    1.992788   -0.221712
     17          1           0       -2.812445    3.091682    0.673949
     18          1           0       -3.253534    2.591990   -0.964946
     19          1           0       -3.128011    0.721280    1.479219
     20          1           0       -4.601726    1.415922    0.842215
     21          1           0       -4.404200   -0.885241    0.043452
     22          1           0       -4.333157    0.251853   -1.300581
     23          1           0       -2.768443   -1.438575   -1.775122
     24          1           0       -1.802519   -0.024688   -1.314868
     25          1           0       -0.821564    0.037140    0.672553
     26          1           0       -1.635606   -0.909167    1.931874
     27          1           0        0.851569   -1.172342    1.903717
     28          1           0        0.004166   -2.711587    1.736297
     29          1           0        1.957119   -2.508632    0.172723
     30          1           0        0.429925   -2.833788   -0.638025
     31          1           0        0.301219   -0.738027   -1.473954
     32          1           0        1.590671    3.317712    0.386711
     33          1           0        4.044595    2.077303    0.747713
     34          1           0        3.752746   -1.273313   -0.999919
     35          1           0        4.954799   -0.119267   -0.371595
     36          1           0        4.089110   -1.199033    0.749355
 ---------------------------------------------------------------------

 SCF Done:  E(UB3LYP) =  -671.513974871     A.U. after   31 cycles

 The electronic state is 2-A.
 Alpha  occ. eigenvalues --  -19.02983 -14.27012 -14.22728 -14.19316 -10.15465
 Alpha  occ. eigenvalues --  -10.12575 -10.11600 -10.10857 -10.10519 -10.09652
 Alpha  occ. eigenvalues --  -10.08679 -10.07801 -10.07723 -10.07347 -10.06489
 Alpha  occ. eigenvalues --   -0.94027  -0.92813  -0.82563  -0.78762  -0.70807
 Alpha  occ. eigenvalues --   -0.68323  -0.64600  -0.62844  -0.61210  -0.58223
 Alpha  occ. eigenvalues --   -0.54783  -0.51185  -0.50143  -0.48060  -0.46092
 Alpha  occ. eigenvalues --   -0.43284  -0.41224  -0.39558  -0.38783  -0.38220
 Alpha  occ. eigenvalues --   -0.37002  -0.35887  -0.35658  -0.33821  -0.33594
 Alpha  occ. eigenvalues --   -0.32602  -0.32014  -0.31245  -0.30230  -0.29883
 Alpha  occ. eigenvalues --   -0.29595  -0.27909  -0.27141  -0.25742  -0.25076
 Alpha  occ. eigenvalues --   -0.24576  -0.23748  -0.22114  -0.18779  -0.18204
 Alpha  occ. eigenvalues --   -0.17375  -0.16374  -0.11408   0.04234
 Alpha virt. eigenvalues --    0.05520   0.06943   0.07203   0.07908   0.08123
 Alpha virt. eigenvalues --    0.08730   0.09387   0.09829   0.09973   0.10600
 Alpha virt. eigenvalues --    0.10966   0.11500   0.11973   0.12220   0.12698

  Beta  occ. eigenvalues --  -19.02979 -14.27010 -14.22726 -14.19315 -10.15464
  Beta  occ. eigenvalues --  -10.12569 -10.11595 -10.10788 -10.10501 -10.09635
  Beta  occ. eigenvalues --  -10.08678 -10.07788 -10.07712 -10.07333 -10.06480
  Beta  occ. eigenvalues --   -0.94022  -0.92805  -0.82554  -0.78750  -0.70785
  Beta  occ. eigenvalues --   -0.68299  -0.64571  -0.62806  -0.61153  -0.58193
  Beta  occ. eigenvalues --   -0.54754  -0.51175  -0.50111  -0.48026  -0.46047
  Beta  occ. eigenvalues --   -0.43228  -0.41205  -0.39532  -0.38757  -0.38201
  Beta  occ. eigenvalues --   -0.36972  -0.35857  -0.35617  -0.33792  -0.33551
  Beta  occ. eigenvalues --   -0.32578  -0.31992  -0.31225  -0.30192  -0.29852
  Beta  occ. eigenvalues --   -0.29570  -0.27883  -0.27124  -0.25719  -0.25060
  Beta  occ. eigenvalues --   -0.24555  -0.23723  -0.22101  -0.18767  -0.18196
  Beta  occ. eigenvalues --   -0.17360  -0.16363  -0.11398
  Beta virt. eigenvalues --    0.05983   0.07024   0.07271   0.07595   0.08368
  Beta virt. eigenvalues --    0.08590   0.09216   0.09602   0.10198   0.10413
  Beta virt. eigenvalues --    0.10781   0.11129   0.11696   0.12205   0.12620

 Mulliken charges and spin densities:
               1          2
     1  C   -0.142488  -0.492632
     2  C   -0.259630   0.244870
     3  C    0.372238  -0.740973
     4  C   -0.167101   0.011906
     5  O   -0.051360   0.020934
     6  C   -0.818357   0.248281
     7  C    0.777136  -0.934896
     8  C   -0.259488  -0.169720
     9  N   -0.050699   0.061551
    10  C   -0.170259  -0.454840
    11  N   -0.185455   0.067768
    12  C    0.377637  -0.398837
    13  C   -0.144491  -0.072304
    14  N   -0.286855   0.359167
    15  C    1.713996  -2.018548
    16  H    0.079531   0.156545
    17  H    0.034965   0.084003
    18  H    0.054587   0.061680
    19  H    0.034731   0.075904
    20  H   -0.309681   0.492742
    21  H    0.075081   0.076235
    22  H   -0.184300   0.314076
    23  H   -0.050286   0.220187
    24  H    0.177978  -0.076733
    25  H    0.344957  -0.120505
    26  H   -0.003802   0.157876
    27  H    0.074270   0.077075
    28  H   -0.203291   0.406299
    29  H   -0.088019   0.242949
    30  H    0.067768   0.130875
    31  H    0.282658   0.019724
    32  H    0.094367   0.044990
    33  H   -0.651001   0.811268
    34  H   -0.344361   0.525755
    35  H   -0.576105   0.744461
    36  H   -0.614869   0.822867
 Sum of Mulliken charges =  -1.00000   1.00000

 Dipole moment (field-independent basis, Debye):
    X=             -6.1880    Y=              1.2949    Z=             -1.0697  Tot=              6.4119
 Quadrupole moment (field-independent basis, Debye-Ang):
   XX=           -205.1121   YY=           -136.4970   ZZ=           -124.8787
   XY=              7.6613   XZ=             -3.0884   YZ=              2.8694

 Summary of Natural Population Analysis:

                                       Natural Population
                Natural  -----------------------------------------------
    Atom  No    Charge         Core      Valence    Rydberg      Total
 -----------------------------------------------------------------------
      C    1   -0.29522      0.99966     2.28950    0.00605     3.29522
      C    2   -0.19384      0.99964     2.18669    0.00750     3.19384
      C    3   -0.20281      0.99962     2.19486    0.00833     3.20281
      C    4   -0.01038      0.99957     1.99812    0.01269     3.01038
      O    5   -0.30967      0.99988     3.30047    0.00931     4.30967
      C    6   -0.02236      0.99956     2.01106    0.01174     3.02236
      C    7   -0.20833      0.99962     2.20011    0.00860     3.20833
      C    8   -0.08753      0.99960     2.07588    0.01205     3.08753
      N    9   -0.33517      0.99970     2.82549    0.00998     3.83517
      C   10    0.27981      0.99958     1.70193    0.01868     2.72019
      N   11   -0.28603      0.99969     2.77684    0.00950     3.78603
      C   12   -0.03455      0.99958     2.02149    0.01348     3.03455
      C   13   -0.03735      0.99954     2.02591    0.01190     3.03735
      N   14   -0.21315      0.99962     2.70202    0.01151     3.71315
      C   15   -0.17582      0.99963     2.16772    0.00847     3.17582
      H   16    0.10988      0.00000     0.38866    0.00145     0.39012
      H   17    0.09738      0.00000     0.40188    0.00074     0.40262
      H   18    0.09280      0.00000     0.40632    0.00088     0.40720
      H   19    0.09514      0.00000     0.40348    0.00138     0.40486
      H   20    0.09484      0.00000     0.40400    0.00116     0.40516
      H   21    0.10006      0.00000     0.39880    0.00114     0.39994
      H   22    0.09575      0.00000     0.40305    0.00120     0.40425
      H   23    0.08822      0.00000     0.41073    0.00105     0.41178
      H   24    0.07960      0.00000     0.41873    0.00167     0.42040
      H   25    0.09653      0.00000     0.40103    0.00244     0.40347
      H   26    0.08113      0.00000     0.41766    0.00121     0.41887
      H   27    0.10169      0.00000     0.39701    0.00130     0.39831
      H   28    0.10116      0.00000     0.39773    0.00110     0.39884
      H   29    0.09624      0.00000     0.40236    0.00140     0.40376
      H   30    0.09966      0.00000     0.39905    0.00128     0.40034
      H   31    0.18837      0.00000     0.30868    0.00295     0.31163
      H   32    0.09518      0.00000     0.40399    0.00083     0.40482
      H   33    0.10503      0.00000     0.39374    0.00123     0.39497
      H   34    0.10750      0.00000     0.39060    0.00190     0.39250
      H   35    0.10471      0.00000     0.39208    0.00321     0.39529
      H   36    0.10152      0.00000     0.39467    0.00381     0.39848
 =======================================================================
   * Total *    0.00000     14.99449    42.81236    0.19315    58.00000

 Normal termination of Gaussian 16 at Thu Dec 10 18:37:31 2020.
