 Gaussian 16, Revision A.03,

 -----------------------------------------------------------
 # opt freq B3LYP/6-31G(d) empiricaldispersion=gd3bj scf=xqc
 -----------------------------------------------------------

 ------------------------------
 CID_91552575_JID_4624_neutraal
 ------------------------------
 Symbolic Z-matrix:
 Charge =  0 Multiplicity = 1

 SCF Done:  E(RB3LYP) =  -977.446070647     A.U. after   15 cycles
 SCF Done:  E(RB3LYP) =  -977.450082632     A.U. after   14 cycles
 SCF Done:  E(RB3LYP) =  -977.448730269     A.U. after   15 cycles
 SCF Done:  E(RB3LYP) =  -977.451513195     A.U. after   13 cycles
 SCF Done:  E(RB3LYP) =  -977.450252637     A.U. after   15 cycles
 SCF Done:  E(RB3LYP) =  -977.454425445     A.U. after   13 cycles
 SCF Done:  E(RB3LYP) =  -977.454964923     A.U. after   13 cycles
 SCF Done:  E(RB3LYP) =  -977.455550432     A.U. after   12 cycles
 SCF Done:  E(RB3LYP) =  -977.455856109     A.U. after   12 cycles
 SCF Done:  E(RB3LYP) =  -977.456185308     A.U. after   14 cycles
 SCF Done:  E(RB3LYP) =  -977.457634329     A.U. after   10 cycles
 SCF Done:  E(RB3LYP) =  -977.457638243     A.U. after    9 cycles
 SCF Done:  E(RB3LYP) =  -977.457638967     A.U. after    8 cycles
 SCF Done:  E(RB3LYP) =  -977.457639311     A.U. after    8 cycles
 SCF Done:  E(RB3LYP) =  -977.457639452     A.U. after    7 cycles
 SCF Done:  E(RB3LYP) =  -977.457639481     A.U. after    7 cycles
 Optimization completed.
    -- Stationary point found.
 Normal termination of Gaussian 16 at Thu Dec 10 10:28:17 2020.

 --------------------------------------------------------------------
 #N Geom=AllCheck Guess=TCheck SCRF=Check GenChk RB3LYP/6-31G(d) Freq
 --------------------------------------------------------------------

 Structure from the checkpoint file:  "JID_4624.chk"
 ------------------------------
 CID_91552575_JID_4624_neutraal
 ------------------------------
 Charge =  0 Multiplicity = 1

 SCF Done:  E(RB3LYP) =  -977.457639481     A.U. after    1 cycles

  Exact polarizability: 197.782  33.427 125.656  12.207  22.171 131.645
 Approx polarizability: 317.713  80.694 196.012  45.553  53.490 204.386

                      1                      2                      3
                      A                      A                      A
 Frequencies --     33.1132                39.5106                51.5353
 Red. masses --      4.2297                 4.1892                 4.1420
 Frc consts  --      0.0027                 0.0039                 0.0065
 IR Inten    --      0.0860                 0.2623                 0.8522

                      4                      5                      6
                      A                      A                      A
 Frequencies --     84.5079                91.1218               102.2306
 Red. masses --      3.2845                 3.3996                 2.7397
 Frc consts  --      0.0138                 0.0166                 0.0169
 IR Inten    --      1.0528                 1.5965                 0.8039

                      7                      8                      9
                      A                      A                      A
 Frequencies --    114.4931               123.5697               147.0220
 Red. masses --      2.7870                 1.8834                 3.6008
 Frc consts  --      0.0215                 0.0169                 0.0459
 IR Inten    --      0.6523                 0.8947                 1.5959

                     10                     11                     12
                      A                      A                      A
 Frequencies --    162.7193               210.4724               217.4791
 Red. masses --      2.6199                 1.4759                 4.0713
 Frc consts  --      0.0409                 0.0385                 0.1135
 IR Inten    --      0.4060                 1.1293                 1.9310

                     13                     14                     15
                      A                      A                      A
 Frequencies --    243.5286               256.3166               310.6776
 Red. masses --      1.6853                 2.0932                 2.3412
 Frc consts  --      0.0589                 0.0810                 0.1331
 IR Inten    --      2.6896                 3.6918                 5.1678

                     16                     17                     18
                      A                      A                      A
 Frequencies --    329.6081               356.2433               366.9454
 Red. masses --      2.8288                 3.1075                 4.7298
 Frc consts  --      0.1811                 0.2324                 0.3752
 IR Inten    --      1.3574                 3.8138                 1.2703

                     19                     20                     21
                      A                      A                      A
 Frequencies --    388.0260               438.2929               456.9044
 Red. masses --      3.4343                 2.2973                 4.1188
 Frc consts  --      0.3047                 0.2600                 0.5066
 IR Inten    --      1.4572                 3.4585                11.6554

                     22                     23                     24
                      A                      A                      A
 Frequencies --    510.8419               537.9566               594.7980
 Red. masses --      3.4691                 3.0347                 4.1811
 Frc consts  --      0.5334                 0.5174                 0.8715
 IR Inten    --      0.6917                 2.8559                 8.4782

                     25                     26                     27
                      A                      A                      A
 Frequencies --    696.7560               710.6547               755.6772
 Red. masses --      3.8778                 2.9402                 3.0883
 Frc consts  --      1.1092                 0.8749                 1.0391
 IR Inten    --      5.7515                 6.1066                 7.6424

                     28                     29                     30
                      A                      A                      A
 Frequencies --    771.9135               807.6172               814.0650
 Red. masses --      3.8352                 1.4355                 1.4364
 Frc consts  --      1.3464                 0.5516                 0.5609
 IR Inten    --      2.1178                 1.5573                 0.2886

                     31                     32                     33
                      A                      A                      A
 Frequencies --    866.1500               907.6221               935.9933
 Red. masses --      2.3091                 1.4949                 1.8112
 Frc consts  --      1.0207                 0.7256                 0.9349
 IR Inten    --      3.8117                 5.2362                 4.2833

                     34                     35                     36
                      A                      A                      A
 Frequencies --    937.4813               940.6470               946.9238
 Red. masses --      1.6554                 2.1584                 1.7733
 Frc consts  --      0.8572                 1.1252                 0.9368
 IR Inten    --     28.5074                 1.9351                29.0827

                     37                     38                     39
                      A                      A                      A
 Frequencies --    978.8228              1007.4626              1021.9984
 Red. masses --      1.7171                 1.0824                 1.1066
 Frc consts  --      0.9693                 0.6473                 0.6810
 IR Inten    --      9.7983                32.7557                16.5369

                     40                     41                     42
                      A                      A                      A
 Frequencies --   1056.0051              1071.9798              1124.7235
 Red. masses --      3.8348                 1.5278                 2.6941
 Frc consts  --      2.5196                 1.0344                 2.0079
 IR Inten    --     40.9572                 0.0120                 1.5191

                     43                     44                     45
                      A                      A                      A
 Frequencies --   1136.1126              1154.9380              1170.0859
 Red. masses --      1.9207                 2.0865                 1.3477
 Frc consts  --      1.4607                 1.6398                 1.0871
 IR Inten    --     24.0850                 9.6520                68.1732

                     46                     47                     48
                      A                      A                      A
 Frequencies --   1212.1051              1228.4903              1286.5472
 Red. masses --      1.7126                 2.2664                 1.2880
 Frc consts  --      1.4825                 2.0152                 1.2561
 IR Inten    --      7.2807                11.8848                 6.9827

                     49                     50                     51
                      A                      A                      A
 Frequencies --   1301.8210              1316.2644              1337.9068
 Red. masses --      2.9108                 1.3143                 1.3506
 Frc consts  --      2.9065                 1.3417                 1.4244
 IR Inten    --    249.2043                 9.3262                 2.3746

                     52                     53                     54
                      A                      A                      A
 Frequencies --   1341.9384              1369.8295              1393.8450
 Red. masses --      1.1742                 1.3153                 1.4295
 Frc consts  --      1.2458                 1.4542                 1.6363
 IR Inten    --     28.8974                 1.0934                 9.0554

                     55                     56                     57
                      A                      A                      A
 Frequencies --   1421.8475              1440.3800              1448.4043
 Red. masses --      1.3246                 1.2547                 1.3058
 Frc consts  --      1.5778                 1.5337                 1.6140
 IR Inten    --      9.8511                 6.1851                 6.0803

                     58                     59                     60
                      A                      A                      A
 Frequencies --   1470.5159              1490.6257              1506.0309
 Red. masses --      1.2984                 1.0908                 1.0454
 Frc consts  --      1.6542                 1.4281                 1.3970
 IR Inten    --      4.3960                 8.5674                 6.0140

                     61                     62                     63
                      A                      A                      A
 Frequencies --   1517.8538              1518.8191              1521.3956
 Red. masses --      1.0502                 1.0687                 1.0810
 Frc consts  --      1.4255                 1.4525                 1.4742
 IR Inten    --     16.6013                 5.7927                 3.7789

                     64                     65                     66
                      A                      A                      A
 Frequencies --   1540.9707              1626.9771              1693.7831
 Red. masses --      1.0584                 5.3510                 4.2620
 Frc consts  --      1.4807                 8.3454                 7.2041
 IR Inten    --     13.0115                 6.8159                13.7287

                     67                     68                     69
                      A                      A                      A
 Frequencies --   1716.5204              1815.2916              3028.2702
 Red. masses --      4.9573                10.8404                 1.0377
 Frc consts  --      8.6058                21.0468                 5.6066
 IR Inten    --      8.8438               131.6281                50.3243

                     70                     71                     72
                      A                      A                      A
 Frequencies --   3061.9056              3072.4555              3087.5725
 Red. masses --      1.0371                 1.0996                 1.0617
 Frc consts  --      5.7288                 6.1158                 5.9633
 IR Inten    --     14.2288                22.0914                 6.2042

                     73                     74                     75
                      A                      A                      A
 Frequencies --   3096.7577              3116.3311              3132.0343
 Red. masses --      1.0589                 1.0992                 1.1000
 Frc consts  --      5.9827                 6.2894                 6.3575
 IR Inten    --     31.3735                12.4099                23.8928

                     76                     77                     78
                      A                      A                      A
 Frequencies --   3142.4105              3152.9527              3153.5207
 Red. masses --      1.1058                 1.0899                 1.1033
 Frc consts  --      6.4334                 6.3838                 6.4646
 IR Inten    --      3.6058                15.4192                 2.4820

                     79                     80                     81
                      A                      A                      A
 Frequencies --   3163.1840              3165.5106              3177.2699
 Red. masses --      1.1069                 1.0836                 1.0684
 Frc consts  --      6.5255                 6.3972                 6.3547
 IR Inten    --     18.7959                 3.1591                 6.0003

                     82                     83                     84
                      A                      A                      A
 Frequencies --   3185.7932              3192.8008              3264.5791
 Red. masses --      1.0826                 1.0879                 1.1162
 Frc consts  --      6.4738                 6.5341                 7.0091
 IR Inten    --     14.0878                16.0375                10.4349

 - Thermochemistry -
 -------------------
 Temperature   298.150 Kelvin.  Pressure   1.00000 Atm.
 Atom     1 has atomic number  6 and mass  12.00000

 Molecular mass:   212.08710 amu.
 Principal axes and moments of inertia in atomic units:
                           1         2         3
     Eigenvalues --  2824.447093897.637324650.31569
           X            0.99996   0.00620   0.00648
           Y           -0.00621   0.99998   0.00192
           Z           -0.00647  -0.00196   0.99998
 This molecule is an asymmetric top.
 Rotational symmetry number  1.
 Warning -- assumption of classical behavior for rotation
           may cause significant error
 Rotational temperatures (Kelvin)      0.03067     0.02222     0.01863
 Rotational constants (GHZ):           0.63897     0.46303     0.38809
 Zero-point vibrational energy     656110.2 (Joules/Mol)
                                  156.81410 (Kcal/Mol)
 Warning -- explicit consideration of  24 degrees of freedom as
           vibrations may cause significant error
 Vibrational temperatures:     47.64    56.85    74.15   121.59   131.10
          (Kelvin)            147.09   164.73   177.79   211.53   234.12
                              302.82   312.90   350.38   368.78   447.00
                              474.23   512.55   527.95   558.28   630.61
                              657.38   734.99   774.00   855.78  1002.48
                             1022.47  1087.25  1110.61  1161.98  1171.26
                             1246.20  1305.87  1346.69  1348.83  1353.38
                             1362.41  1408.31  1449.51  1470.43  1519.36
                             1542.34  1618.23  1634.61  1661.70  1683.49
                             1743.95  1767.52  1851.05  1873.03  1893.81
                             1924.95  1930.75  1970.88  2005.43  2045.72
                             2072.39  2083.93  2115.74  2144.68  2166.84
                             2183.85  2185.24  2188.95  2217.11  2340.86
                             2436.98  2469.69  2611.80  4357.01  4405.40
                             4420.58  4442.33  4455.54  4483.71  4506.30
                             4521.23  4536.40  4537.21  4551.12  4554.46
                             4571.38  4583.65  4593.73  4697.00

 Zero-point correction=                           0.249899 (Hartree/Particle)
 Thermal correction to Energy=                    0.266438
 Thermal correction to Enthalpy=                  0.267382
 Thermal correction to Gibbs Free Energy=         0.204613
 Sum of electronic and zero-point Energies=           -977.207740
 Sum of electronic and thermal Energies=              -977.191202
 Sum of electronic and thermal Enthalpies=            -977.190258
 Sum of electronic and thermal Free Energies=         -977.253027

                     E (Thermal)             CV                S
                      KCal/Mol        Cal/Mol-Kelvin    Cal/Mol-Kelvin
 Total                  167.192             58.754            132.109
 Electronic               0.000              0.000              0.000
 Translational            0.889              2.981             41.959
 Rotational               0.889              2.981             32.304
 Vibrational            165.415             52.792             57.846
 Vibration     1          0.594              1.983              5.634
 Vibration     2          0.594              1.981              5.283
 Vibration     3          0.596              1.977              4.758
 Vibration     4          0.601              1.960              3.783
 Vibration     5          0.602              1.955              3.636
 Vibration     6          0.604              1.947              3.411
 Vibration     7          0.607              1.937              3.191
 Vibration     8          0.610              1.929              3.044
 Vibration     9          0.617              1.906              2.710
 Vibration    10          0.623              1.888              2.518
 Vibration    11          0.643              1.825              2.040
 Vibration    12          0.646              1.814              1.980
 Vibration    13          0.659              1.773              1.777
 Vibration    14          0.666              1.752              1.687
 Vibration    15          0.700              1.653              1.359
 Vibration    16          0.712              1.616              1.262
 Vibration    17          0.732              1.562              1.138
 Vibration    18          0.740              1.540              1.093
 Vibration    19          0.756              1.496              1.008
 Vibration    20          0.798              1.387              0.832
 Vibration    21          0.815              1.346              0.775
 Vibration    22          0.866              1.226              0.632
 Vibration    23          0.893              1.166              0.570
 Vibration    24          0.952              1.043              0.459

 Optimization completed.
    -- Stationary point found.
 Normal termination of Gaussian 16 at Thu Dec 10 10:37:58 2020.

 ----------------------------------------------------------------------
 # B3LYP/6-311++G(d,p) empiricaldispersion=gd3bj scf=xqc pop=npa geom=c
 heck
 ----------------------------------------------------------------------

 --------------------------------------
 CID_91552575_JID_4624_Energie_neutraal
 --------------------------------------
 Structure from the checkpoint file:  "JID_4624.chk"
 Charge =  0 Multiplicity = 1

 SCF Done:  E(RB3LYP) =  -977.651544385     A.U. after   17 cycles
 Normal termination of Gaussian 16 at Thu Dec 10 10:43:27 2020.

 ----------------------------------------------------------------------
 # B3LYP/6-311++G(d,p) empiricaldispersion=gd3bj scf=xqc pop=npa geom=c
 heck
 ----------------------------------------------------------------------

 ------------------------------------
 CID_91552575_JID_4624_Energie_kation
 ------------------------------------
 Structure from the checkpoint file:  "JID_4624.chk"
 Charge =  1 Multiplicity = 2

 SCF Done:  E(UB3LYP) =  -977.383751060     A.U. after   24 cycles
 Normal termination of Gaussian 16 at Thu Dec 10 10:54:21 2020.
 Gaussian 16:  ES64L-G16RevA.03 25-Dec-2016

 ----------------------------------------------------------------------
 # B3LYP/6-311++G(d,p) empiricaldispersion=gd3bj scf=xqc pop=npa geom=c
 heck
 ----------------------------------------------------------------------

 -----------------------------------
 CID_91552575_JID_4624_Energie_anion
 -----------------------------------
 Structure from the checkpoint file:  "JID_4624.chk"
 Charge = -1 Multiplicity = 2

                         Standard orientation:
 ---------------------------------------------------------------------
 Center     Atomic      Atomic             Coordinates (Angstroms)
 Number     Number       Type             X           Y           Z
 ---------------------------------------------------------------------
      1          6           0        0.013801   -1.602426    2.070377
      2          6           0        1.255455   -2.222449    1.449419
      3          8           0        1.808621   -1.348979    0.435004
      4          6           0        1.224456   -1.393868   -0.771354
      5          8           0        0.372184   -2.190696   -1.101850
      6          6           0        1.765638   -0.321869   -1.703138
      7         16           0        1.733296    1.373039   -0.999611
      8          6           0        0.132360    1.414165   -0.197584
      9          6           0       -0.943570    0.781727   -0.736193
     10          6           0       -2.241804    0.619742   -0.117816
     11          6           0       -3.235591   -0.095125   -0.678047
     12          6           0       -4.587716   -0.304583   -0.071933
     13          6           0        0.080205    2.167812    1.054845
     14          6           0        1.125015    2.549119    1.805357
     15          1           0        0.236031   -0.599805    2.448310
     16          1           0       -0.334130   -2.224773    2.902814
     17          1           0       -0.789605   -1.526685    1.333213
     18          1           0        2.062534   -2.328784    2.177323
     19          1           0        1.039035   -3.194173    0.999306
     20          1           0        2.823198   -0.513579   -1.913426
     21          1           0        1.208925   -0.383781   -2.639110
     22          1           0       -0.832895    0.291375   -1.699355
     23          1           0       -2.414916    1.074314    0.855515
     24          1           0       -3.054507   -0.571022   -1.642412
     25          1           0       -5.382047    0.074025   -0.730014
     26          1           0       -4.793002   -1.373157    0.079729
     27          1           0       -4.678635    0.200279    0.895594
     28          1           0       -0.918005    2.449977    1.381904
     29          1           0        0.972549    3.124231    2.713378
     30          1           0        2.146797    2.296858    1.542178
 ---------------------------------------------------------------------

 SCF Done:  E(UB3LYP) =  -977.654487137     A.U. after   29 cycles

 The electronic state is 2-A.
 Alpha  occ. eigenvalues --  -88.70621 -19.04972 -18.99069 -10.18330 -10.11998
 Alpha  occ. eigenvalues --  -10.08461 -10.04796 -10.04210 -10.02904 -10.01697
 Alpha  occ. eigenvalues --  -10.01475 -10.00813  -9.99857  -9.99527  -7.79194
 Alpha  occ. eigenvalues --   -5.75634  -5.75186  -5.74568  -0.99093  -0.90318
 Alpha  occ. eigenvalues --   -0.69386  -0.66769  -0.64969  -0.62975  -0.59085
 Alpha  occ. eigenvalues --   -0.56299  -0.53749  -0.50799  -0.44866  -0.44255
 Alpha  occ. eigenvalues --   -0.41557  -0.39273  -0.37604  -0.36397  -0.34679
 Alpha  occ. eigenvalues --   -0.33109  -0.32992  -0.31531  -0.30568  -0.28927
 Alpha  occ. eigenvalues --   -0.28674  -0.27985  -0.26971  -0.25849  -0.25773
 Alpha  occ. eigenvalues --   -0.24199  -0.23321  -0.22990  -0.21577  -0.20627
 Alpha  occ. eigenvalues --   -0.19264  -0.18470  -0.17780  -0.15356  -0.13616
 Alpha  occ. eigenvalues --   -0.10670  -0.05638   0.05279
 Alpha virt. eigenvalues --    0.08032   0.08656   0.09239   0.10000   0.10701
 Alpha virt. eigenvalues --    0.11012   0.11559   0.11679   0.12024   0.12702
 Alpha virt. eigenvalues --    0.13468   0.13633   0.14093   0.14407   0.15282

  Beta  occ. eigenvalues --  -88.70613 -19.04971 -18.99006 -10.18302 -10.11997
  Beta  occ. eigenvalues --  -10.08419 -10.04796 -10.04244 -10.02653 -10.01687
  Beta  occ. eigenvalues --  -10.01532 -10.00394  -9.99547  -9.99173  -7.79184
  Beta  occ. eigenvalues --   -5.75627  -5.75178  -5.74553  -0.99057  -0.90242
  Beta  occ. eigenvalues --   -0.69107  -0.66502  -0.64628  -0.62662  -0.58620
  Beta  occ. eigenvalues --   -0.56120  -0.53632  -0.50575  -0.44501  -0.43768
  Beta  occ. eigenvalues --   -0.41179  -0.39173  -0.37542  -0.36159  -0.34549
  Beta  occ. eigenvalues --   -0.32941  -0.32853  -0.31440  -0.30450  -0.28596
  Beta  occ. eigenvalues --   -0.28525  -0.27872  -0.26788  -0.25812  -0.25587
  Beta  occ. eigenvalues --   -0.23936  -0.23164  -0.22925  -0.21362  -0.20378
  Beta  occ. eigenvalues --   -0.19108  -0.17634  -0.17292  -0.15232  -0.12252
  Beta  occ. eigenvalues --   -0.10068  -0.03646
  Beta virt. eigenvalues --    0.07965   0.08602   0.09166   0.09958   0.10525
  Beta virt. eigenvalues --    0.10901   0.11333   0.11601   0.11815   0.12059
  Beta virt. eigenvalues --    0.12757   0.13484   0.13593   0.14333   0.14733

 Mulliken charges and spin densities:
               1          2
     1  C   -0.415996   0.001600
     2  C   -0.125294  -0.029715
     3  O    0.094542   0.002584
     4  C   -0.188247   0.027644
     5  O   -0.227325   0.014617
     6  C   -0.401299  -0.018832
     7  S   -0.610516   0.031499
     8  C    1.178850   0.141534
     9  C   -0.578498   0.273551
    10  C   -0.143010  -0.012014
    11  C   -0.279477   0.221979
    12  C   -0.745931  -0.025152
    13  C   -0.005567  -0.039765
    14  C   -0.634879   0.368061
    15  H    0.175244   0.013086
    16  H    0.109578   0.005887
    17  H    0.214022  -0.001330
    18  H    0.120882   0.028117
    19  H    0.143680  -0.002968
    20  H    0.183734   0.004487
    21  H    0.184828   0.010033
    22  H    0.178798  -0.009780
    23  H    0.038216   0.001788
    24  H    0.096317  -0.019693
    25  H    0.094139   0.027251
    26  H    0.117138   0.013369
    27  H    0.111846   0.001142
    28  H    0.118608  -0.001014
    29  H    0.085346  -0.014942
    30  H    0.110269  -0.013023
 Sum of Mulliken charges =  -1.00000   1.00000

 Dipole moment (field-independent basis, Debye):
    X=              1.4956    Y=             -4.3222    Z=              0.8201  Tot=              4.6466
 Quadrupole moment (field-independent basis, Debye-Ang):
   XX=           -121.4742   YY=           -121.2888   ZZ=           -106.7640
   XY=             -7.7976   XZ=             -5.5889   YZ=             -5.0705

 Summary of Natural Population Analysis:

                                       Natural Population
                Natural  -----------------------------------------------
    Atom  No    Charge         Core      Valence    Rydberg      Total
 -----------------------------------------------------------------------
      C    1   -0.30517      0.99966     2.30093    0.00458     3.30517
      C    2   -0.01429      0.99959     2.00522    0.00948     3.01429
      O    3   -0.28046      0.99985     3.27021    0.01039     4.28046
      C    4    0.40787      0.99968     1.56686    0.02559     2.59213
      O    5   -0.30445      0.99987     3.29810    0.00648     4.30445
      C    6   -0.28967      0.99954     2.28192    0.00821     3.28967
      S    7    0.11306      4.99955     2.86676    0.02064     7.88694
      C    8   -0.06798      0.99939     2.05453    0.01407     3.06798
      C    9   -0.06246      0.99946     2.04967    0.01332     3.06246
      C   10   -0.13194      0.99951     2.12378    0.00865     3.13194
      C   11   -0.00766      0.99956     1.99984    0.00826     3.00766
      C   12   -0.30027      0.99966     2.29625    0.00436     3.30027
      C   13   -0.11917      0.99953     2.10980    0.00983     3.11917
      C   14   -0.13433      0.99959     2.12546    0.00928     3.13433
      H   15    0.11183      0.00000     0.38631    0.00186     0.38817
      H   16    0.09118      0.00000     0.40800    0.00083     0.40882
      H   17    0.11683      0.00000     0.38225    0.00093     0.38317
      H   18    0.08410      0.00000     0.41487    0.00103     0.41590
      H   19    0.08934      0.00000     0.40920    0.00146     0.41066
      H   20    0.10962      0.00000     0.38919    0.00119     0.39038
      H   21    0.10387      0.00000     0.39336    0.00277     0.39613
      H   22    0.08815      0.00000     0.41027    0.00158     0.41185
      H   23    0.08543      0.00000     0.41319    0.00138     0.41457
      H   24    0.07793      0.00000     0.42048    0.00159     0.42207
      H   25    0.09450      0.00000     0.40417    0.00132     0.40550
      H   26    0.09531      0.00000     0.40351    0.00119     0.40469
      H   27    0.09289      0.00000     0.40610    0.00101     0.40711
      H   28    0.08893      0.00000     0.40937    0.00170     0.41107
      H   29    0.07889      0.00000     0.42019    0.00092     0.42111
      H   30    0.08813      0.00000     0.41080    0.00107     0.41187
 =======================================================================
   * Total *    0.00000     17.99445    38.83056    0.17499    57.00000

 Normal termination of Gaussian 16 at Thu Dec 10 11:07:09 2020.
