 Gaussian 16, Revision A.03,

 -----------------------------------------------------------
 # opt freq B3LYP/6-31G(d) empiricaldispersion=gd3bj scf=xqc
 -----------------------------------------------------------

 -------------------------------
 CID_110965968_JID_8090_neutraal
 -------------------------------
 Symbolic Z-matrix:
 Charge =  0 Multiplicity = 1

 SCF Done:  E(RB3LYP) =  -786.880027647     A.U. after   14 cycles
 SCF Done:  E(RB3LYP) =  -786.886324556     A.U. after   13 cycles
 SCF Done:  E(RB3LYP) =  -786.887051514     A.U. after   12 cycles
 SCF Done:  E(RB3LYP) =  -786.887724159     A.U. after   12 cycles
 SCF Done:  E(RB3LYP) =  -786.888285517     A.U. after   12 cycles
 SCF Done:  E(RB3LYP) =  -786.888469684     A.U. after   12 cycles
 SCF Done:  E(RB3LYP) =  -786.888579160     A.U. after   10 cycles
 SCF Done:  E(RB3LYP) =  -786.888620545     A.U. after   11 cycles
 SCF Done:  E(RB3LYP) =  -786.888637644     A.U. after   10 cycles
 SCF Done:  E(RB3LYP) =  -786.888654764     A.U. after   10 cycles
 SCF Done:  E(RB3LYP) =  -786.888664191     A.U. after   10 cycles
 SCF Done:  E(RB3LYP) =  -786.888666166     A.U. after    8 cycles
 SCF Done:  E(RB3LYP) =  -786.888666760     A.U. after    7 cycles
 SCF Done:  E(RB3LYP) =  -786.888667059     A.U. after    7 cycles
 SCF Done:  E(RB3LYP) =  -786.888667121     A.U. after    6 cycles
 Optimization completed.
    -- Stationary point found.
 Normal termination of Gaussian 16 at Fri Dec 11 18:43:51 2020.

 --------------------------------------------------------------------
 #N Geom=AllCheck Guess=TCheck SCRF=Check GenChk RB3LYP/6-31G(d) Freq
 --------------------------------------------------------------------

 Structure from the checkpoint file:  "JID_8090.chk"
 -------------------------------
 CID_110965968_JID_8090_neutraal
 -------------------------------
 Charge =  0 Multiplicity = 1

 SCF Done:  E(RB3LYP) =  -786.888667121     A.U. after    1 cycles

  Exact polarizability: 204.738 -17.677 149.048   4.253   0.752 148.685
 Approx polarizability: 260.914 -35.793 231.987   4.051   0.698 254.648

                      1                      2                      3
                      A                      A                      A
 Frequencies --     23.4181                29.6848                40.8444
 Red. masses --      4.1085                 3.8225                 2.9291
 Frc consts  --      0.0013                 0.0020                 0.0029
 IR Inten    --      0.3033                 0.0979                 0.2239

                      4                      5                      6
                      A                      A                      A
 Frequencies --     52.8152                54.7652                82.5076
 Red. masses --      3.5785                 3.1848                 4.0424
 Frc consts  --      0.0059                 0.0056                 0.0162
 IR Inten    --      0.2108                 0.0918                 0.3688

                      7                      8                      9
                      A                      A                      A
 Frequencies --    133.9735               147.2033               166.6540
 Red. masses --      3.8742                 2.3508                 2.9271
 Frc consts  --      0.0410                 0.0300                 0.0479
 IR Inten    --      0.5277                 4.6807                 1.2403

                     10                     11                     12
                      A                      A                      A
 Frequencies --    199.3388               236.6718               252.0006
 Red. masses --      3.4289                 1.0952                 2.8102
 Frc consts  --      0.0803                 0.0361                 0.1051
 IR Inten    --      1.1454                 0.0211                 0.2448

                     13                     14                     15
                      A                      A                      A
 Frequencies --    261.5411               268.5092               283.8846
 Red. masses --      1.7023                 1.7951                 1.4085
 Frc consts  --      0.0686                 0.0763                 0.0669
 IR Inten    --      0.0495                 2.2060                 0.5523

                     16                     17                     18
                      A                      A                      A
 Frequencies --    298.6353               321.8471               329.6909
 Red. masses --      1.9420                 1.5410                 1.7052
 Frc consts  --      0.1020                 0.0941                 0.1092
 IR Inten    --      2.7135                 0.9854                 1.3297

                     19                     20                     21
                      A                      A                      A
 Frequencies --    343.2257               357.0867               366.5174
 Red. masses --      2.4360                 1.1305                 2.8256
 Frc consts  --      0.1691                 0.0849                 0.2236
 IR Inten    --      3.3487               115.0721                 0.1027

                     22                     23                     24
                      A                      A                      A
 Frequencies --    386.8882               406.4957               423.0642
 Red. masses --      2.7287                 3.0896                 3.1562
 Frc consts  --      0.2406                 0.3008                 0.3328
 IR Inten    --      1.3198                 4.1680                 0.5983

                     25                     26                     27
                      A                      A                      A
 Frequencies --    427.3499               441.3356               463.1803
 Red. masses --      3.6511                 3.0538                 2.5385
 Frc consts  --      0.3929                 0.3505                 0.3209
 IR Inten    --      8.7094                 9.2407                 3.1399

                     28                     29                     30
                      A                      A                      A
 Frequencies --    509.7789               532.2066               574.5818
 Red. masses --      3.3775                 2.6723                 3.0909
 Frc consts  --      0.5171                 0.4460                 0.6012
 IR Inten    --      4.0682                 4.0958                 1.9303

                     31                     32                     33
                      A                      A                      A
 Frequencies --    633.6426               658.5561               711.9846
 Red. masses --      4.3069                 6.8216                 3.6439
 Frc consts  --      1.0188                 1.7431                 1.0883
 IR Inten    --     15.6423                 0.4456                11.5715

                     34                     35                     36
                      A                      A                      A
 Frequencies --    739.1842               754.2552               782.7845
 Red. masses --      3.8959                 1.6565                 3.8560
 Frc consts  --      1.2542                 0.5552                 1.3921
 IR Inten    --      9.4697                93.5020                13.0999

                     37                     38                     39
                      A                      A                      A
 Frequencies --    807.4683               811.6608               824.8053
 Red. masses --      1.3498                 1.4469                 2.9814
 Frc consts  --      0.5185                 0.5616                 1.1950
 IR Inten    --     15.8388                14.0520                19.2062

                     40                     41                     42
                      A                      A                      A
 Frequencies --    837.7979               848.3325               866.5969
 Red. masses --      1.9011                 1.6448                 4.2388
 Frc consts  --      0.7862                 0.6974                 1.8755
 IR Inten    --     64.4502                23.4535                13.6365

                     43                     44                     45
                      A                      A                      A
 Frequencies --    907.6236               926.9845               932.2967
 Red. masses --      1.6404                 1.3236                 1.7340
 Frc consts  --      0.7962                 0.6701                 0.8880
 IR Inten    --      6.0251                 3.2847                 1.0126

                     46                     47                     48
                      A                      A                      A
 Frequencies --    939.4545               963.6965               965.1269
 Red. masses --      1.8052                 1.9033                 1.5805
 Frc consts  --      0.9387                 1.0415                 0.8674
 IR Inten    --      0.2882                16.0387                13.1655

                     49                     50                     51
                      A                      A                      A
 Frequencies --    971.4604               977.5076              1015.8434
 Red. masses --      1.7903                 1.2356                 2.0267
 Frc consts  --      0.9955                 0.6956                 1.2322
 IR Inten    --      6.0675                 2.4576                 1.1401

                     52                     53                     54
                      A                      A                      A
 Frequencies --   1036.8898              1061.4968              1069.9630
 Red. masses --      2.6513                 1.6813                 1.4753
 Frc consts  --      1.6795                 1.1162                 0.9951
 IR Inten    --      1.3599                 7.5004                 0.3521

                     55                     56                     57
                      A                      A                      A
 Frequencies --   1085.4106              1111.2783              1136.2570
 Red. masses --      2.3776                 2.6182                 1.3458
 Frc consts  --      1.6503                 1.9050                 1.0237
 IR Inten    --      2.1638                22.4620                12.4132

                     58                     59                     60
                      A                      A                      A
 Frequencies --   1149.8408              1181.6796              1205.1487
 Red. masses --      1.8710                 2.0568                 1.1627
 Frc consts  --      1.4575                 1.6922                 0.9949
 IR Inten    --      3.7424                54.5104                57.0858

                     61                     62                     63
                      A                      A                      A
 Frequencies --   1208.7866              1221.9114              1247.2386
 Red. masses --      1.4825                 2.3874                 2.2440
 Frc consts  --      1.2763                 2.1002                 2.0567
 IR Inten    --    140.5287                23.1541                47.9239

                     64                     65                     66
                      A                      A                      A
 Frequencies --   1256.5281              1272.5140              1280.5116
 Red. masses --      1.4820                 2.5717                 2.2431
 Frc consts  --      1.3786                 2.4535                 2.1671
 IR Inten    --     52.8008                57.3784                16.3410

                     67                     68                     69
                      A                      A                      A
 Frequencies --   1308.8980              1311.6295              1343.5682
 Red. masses --      2.6728                 1.3564                 1.4900
 Frc consts  --      2.6979                 1.3748                 1.5848
 IR Inten    --    103.0301                 8.2263                18.4548

                     70                     71                     72
                      A                      A                      A
 Frequencies --   1373.7088              1383.2422              1392.0590
 Red. masses --      1.4413                 2.7424                 1.5324
 Frc consts  --      1.6025                 3.0916                 1.7496
 IR Inten    --     38.4356                39.5286                89.0787

                     73                     74                     75
                      A                      A                      A
 Frequencies --   1418.9097              1422.0357              1426.4070
 Red. masses --      2.4306                 1.2615                 1.3364
 Frc consts  --      2.8832                 1.5030                 1.6021
 IR Inten    --    140.0625                16.1278                20.2856

                     76                     77                     78
                      A                      A                      A
 Frequencies --   1442.7515              1451.8836              1485.5911
 Red. masses --      1.2906                 1.2409                 2.2536
 Frc consts  --      1.5828                 1.5411                 2.9304
 IR Inten    --     10.3681                25.4729                20.2964

                     79                     80                     81
                      A                      A                      A
 Frequencies --   1486.8781              1499.1990              1506.3169
 Red. masses --      1.4913                 1.2123                 1.0516
 Frc consts  --      1.9426                 1.6054                 1.4059
 IR Inten    --     18.9131                 1.4824                 0.3256

                     82                     83                     84
                      A                      A                      A
 Frequencies --   1515.4301              1521.1474              1523.3902
 Red. masses --      1.0498                 1.0474                 1.0583
 Frc consts  --      1.4205                 1.4279                 1.4471
 IR Inten    --      0.3066                 2.2442                 0.3523

                     85                     86                     87
                      A                      A                      A
 Frequencies --   1530.7040              1532.6745              1539.7778
 Red. masses --      1.0492                 1.0631                 1.0924
 Frc consts  --      1.4484                 1.4714                 1.5260
 IR Inten    --      0.5494                 1.3580                 0.0980

                     88                     89                     90
                      A                      A                      A
 Frequencies --   1544.9480              1550.0796              1561.1968
 Red. masses --      1.1452                 1.0952                 1.0663
 Frc consts  --      1.6104                 1.5504                 1.5312
 IR Inten    --      1.1684                22.2452                 2.0962

                     91                     92                     93
                      A                      A                      A
 Frequencies --   1565.7436              1650.9146              1677.7567
 Red. masses --      2.4264                 5.9082                 5.9274
 Frc consts  --      3.5047                 9.4876                 9.8305
 IR Inten    --     82.6257                19.4238                39.1016

                     94                     95                     96
                      A                      A                      A
 Frequencies --   1718.7090              2977.7786              3028.0932
 Red. masses --      4.2251                 1.0738                 1.0745
 Frc consts  --      7.3535                 5.6100                 5.8051
 IR Inten    --    420.4004                55.5228                26.9960

                     97                     98                     99
                      A                      A                      A
 Frequencies --   3044.4641              3047.3783              3050.2470
 Red. masses --      1.0365                 1.0369                 1.0356
 Frc consts  --      5.6605                 5.6735                 5.6770
 IR Inten    --     22.6201                20.4344                21.3461

                    100                    101                    102
                      A                      A                      A
 Frequencies --   3052.7414              3059.0050              3109.0786
 Red. masses --      1.0883                 1.0380                 1.0992
 Frc consts  --      5.9755                 5.7225                 6.2600
 IR Inten    --     41.7932                17.4111                20.9885

                    103                    104                    105
                      A                      A                      A
 Frequencies --   3111.3006              3117.2127              3120.6595
 Red. masses --      1.1001                 1.1016                 1.1023
 Frc consts  --      6.2744                 6.3068                 6.3246
 IR Inten    --     17.8992                13.9648                41.3788

                    106                    107                    108
                      A                      A                      A
 Frequencies --   3128.6020              3129.5006              3132.4355
 Red. masses --      1.1027                 1.1026                 1.1025
 Frc consts  --      6.3594                 6.3625                 6.3737
 IR Inten    --     31.3236                20.2651                55.4746

                    109                    110                    111
                      A                      A                      A
 Frequencies --   3156.1098              3161.1734              3167.1057
 Red. masses --      1.1002                 1.0866                 1.0901
 Frc consts  --      6.4567                 6.3974                 6.4424
 IR Inten    --     16.8172                19.4462                19.1776

                    112                    113                    114
                      A                      A                      A
 Frequencies --   3178.4344              3201.5779              3217.9119
 Red. masses --      1.0940                 1.0876                 1.0944
 Frc consts  --      6.5116                 6.5683                 6.6768
 IR Inten    --     20.1313                 4.1851                 7.0629

                    115                    116                    117
                      A                      A                      A
 Frequencies --   3520.9681              3574.5029              3751.6049
 Red. masses --      1.0733                 1.0731                 1.0659
 Frc consts  --      7.8394                 8.0783                 8.8389
 IR Inten    --      5.2975                 9.8629                43.6582

 - Thermochemistry -
 -------------------
 Temperature   298.150 Kelvin.  Pressure   1.00000 Atm.
 Atom     1 has atomic number  6 and mass  12.00000

 Molecular mass:   249.18411 amu.
 Principal axes and moments of inertia in atomic units:
                           1         2         3
     Eigenvalues --  2181.102538207.704798941.90193
           X            0.99998   0.00054   0.00660
           Y           -0.00043   0.99985  -0.01728
           Z           -0.00661   0.01727   0.99983
 This molecule is an asymmetric top.
 Rotational symmetry number  1.
 Warning -- assumption of classical behavior for rotation
           may cause significant error
 Rotational temperatures (Kelvin)      0.03971     0.01055     0.00969
 Rotational constants (GHZ):           0.82744     0.21988     0.20183
 Zero-point vibrational energy     948289.7 (Joules/Mol)
                                  226.64667 (Kcal/Mol)
 Warning -- explicit consideration of  30 degrees of freedom as
           vibrations may cause significant error
 Vibrational temperatures:     33.69    42.71    58.77    75.99    78.79
          (Kelvin)            118.71   192.76   211.79   239.78   286.80
                              340.52   362.57   376.30   386.32   408.45
                              429.67   463.07   474.35   493.83   513.77
                              527.34   556.65   584.86   608.70   614.86
                              634.98   666.41   733.46   765.73   826.70
                              911.67   947.52  1024.39  1063.52  1085.21
                             1126.25  1161.77  1167.80  1186.71  1205.40
                             1220.56  1246.84  1305.87  1333.72  1341.37
                             1351.67  1386.54  1388.60  1397.71  1406.42
                             1461.57  1491.85  1527.26  1539.44  1561.66
                             1598.88  1634.82  1654.36  1700.17  1733.94
                             1739.17  1758.06  1794.50  1807.86  1830.86
                             1842.37  1883.21  1887.14  1933.09  1976.46
                             1990.18  2002.86  2041.49  2045.99  2052.28
                             2075.80  2088.94  2137.43  2139.29  2157.01
                             2167.25  2180.37  2188.59  2191.82  2202.34
                             2205.18  2215.40  2222.84  2230.22  2246.21
                             2252.76  2375.30  2413.92  2472.84  4284.36
                             4356.75  4380.30  4384.50  4388.63  4392.21
                             4401.23  4473.27  4476.47  4484.97  4489.93
                             4501.36  4502.65  4506.88  4540.94  4548.22
                             4556.76  4573.06  4606.36  4629.86  5065.89
                             5142.91  5397.72

 Zero-point correction=                           0.361184 (Hartree/Particle)
 Thermal correction to Energy=                    0.380425
 Thermal correction to Enthalpy=                  0.381369
 Thermal correction to Gibbs Free Energy=         0.312771
 Sum of electronic and zero-point Energies=           -786.527483
 Sum of electronic and thermal Energies=              -786.508242
 Sum of electronic and thermal Enthalpies=            -786.507298
 Sum of electronic and thermal Free Energies=         -786.575896

                     E (Thermal)             CV                S
                      KCal/Mol        Cal/Mol-Kelvin    Cal/Mol-Kelvin
 Total                  238.720             73.799            144.377
 Electronic               0.000              0.000              0.000
 Translational            0.889              2.981             42.440
 Rotational               0.889              2.981             33.437
 Vibrational            236.943             67.838             68.501
 Vibration     1          0.593              1.985              6.321
 Vibration     2          0.593              1.984              5.850
 Vibration     3          0.594              1.981              5.218
 Vibration     4          0.596              1.976              4.709
 Vibration     5          0.596              1.976              4.637
 Vibration     6          0.600              1.961              3.830
 Vibration     7          0.613              1.919              2.888
 Vibration     8          0.617              1.906              2.708
 Vibration     9          0.624              1.883              2.473
 Vibration    10          0.637              1.841              2.139
 Vibration    11          0.656              1.785              1.828
 Vibration    12          0.664              1.759              1.717
 Vibration    13          0.669              1.743              1.651
 Vibration    14          0.673              1.731              1.606
 Vibration    15          0.682              1.704              1.510
 Vibration    16          0.692              1.676              1.425
 Vibration    17          0.707              1.632              1.301
 Vibration    18          0.712              1.616              1.262
 Vibration    19          0.722              1.589              1.197
 Vibration    20          0.732              1.561              1.135
 Vibration    21          0.739              1.541              1.094
 Vibration    22          0.755              1.498              1.012
 Vibration    23          0.771              1.456              0.939
 Vibration    24          0.785              1.420              0.882
 Vibration    25          0.789              1.411              0.867
 Vibration    26          0.801              1.380              0.822
 Vibration    27          0.821              1.332              0.757
 Vibration    28          0.865              1.228              0.634
 Vibration    29          0.887              1.179              0.582
 Vibration    30          0.931              1.086              0.496

 Optimization completed.
    -- Stationary point found.
 Normal termination of Gaussian 16 at Fri Dec 11 19:03:02 2020.

 ----------------------------------------------------------------------
 # B3LYP/6-311++G(d,p) empiricaldispersion=gd3bj scf=xqc pop=npa geom=c
 heck
 ----------------------------------------------------------------------

 ---------------------------------------
 CID_110965968_JID_8090_Energie_neutraal
 ---------------------------------------
 Structure from the checkpoint file:  "JID_8090.chk"
 Charge =  0 Multiplicity = 1

 SCF Done:  E(RB3LYP) =  -787.117784743     A.U. after   14 cycles
 Normal termination of Gaussian 16 at Fri Dec 11 19:10:15 2020.

 ----------------------------------------------------------------------
 # B3LYP/6-311++G(d,p) empiricaldispersion=gd3bj scf=xqc pop=npa geom=c
 heck
 ----------------------------------------------------------------------

 -------------------------------------
 CID_110965968_JID_8090_Energie_kation
 -------------------------------------
 Structure from the checkpoint file:  "JID_8090.chk"
 Charge =  1 Multiplicity = 2

 SCF Done:  E(UB3LYP) =  -786.838063976     A.U. after   24 cycles
 Normal termination of Gaussian 16 at Fri Dec 11 19:26:58 2020.
 Gaussian 16:  ES64L-G16RevA.03 25-Dec-2016

 ----------------------------------------------------------------------
 # B3LYP/6-311++G(d,p) empiricaldispersion=gd3bj scf=xqc pop=npa geom=c
 heck
 ----------------------------------------------------------------------

 ------------------------------------
 CID_110965968_JID_8090_Energie_anion
 ------------------------------------
 Structure from the checkpoint file:  "JID_8090.chk"
 Charge = -1 Multiplicity = 2

                         Standard orientation:
 ---------------------------------------------------------------------
 Center     Atomic      Atomic             Coordinates (Angstroms)
 Number     Number       Type             X           Y           Z
 ---------------------------------------------------------------------
      1          6           0       -0.088072    2.858483   -0.811726
      2          6           0        0.206205    1.671411    0.096106
      3          7           0        0.636499    0.509833   -0.703512
      4          6           0        1.125941   -0.616892   -0.040719
      5          7           0        0.697880   -1.827566   -0.149944
      6          6           0       -0.541649   -2.075052   -0.884155
      7          6           0       -1.748239   -1.275690   -0.413109
      8          6           0       -2.601434   -0.637042   -1.315607
      9          6           0       -3.694322    0.114365   -0.876869
     10          6           0       -3.949686    0.230932    0.490512
     11          6           0       -3.108176   -0.406205    1.410270
     12          6           0       -2.022725   -1.146102    0.956341
     13          8           0       -4.998562    0.953556    0.991016
     14          7           0        2.201169   -0.373630    0.830173
     15          6           0        3.524053    0.056569    0.276594
     16          6           0        4.543588   -0.227101    1.388165
     17          6           0        3.879549   -0.749932   -0.984205
     18          6           0        3.534129    1.556540   -0.042542
     19          1           0        0.799585    3.146434   -1.384783
     20          1           0       -0.417384    3.720044   -0.220964
     21          1           0       -0.889096    2.617733   -1.521689
     22          1           0        1.001687    1.904838    0.802887
     23          1           0       -0.688081    1.416557    0.683229
     24          1           0       -0.102240    0.252460   -1.347484
     25          1           0       -0.405992   -1.908802   -1.966410
     26          1           0       -0.756211   -3.145924   -0.779633
     27          1           0       -2.412332   -0.720379   -2.384076
     28          1           0       -4.342726    0.609442   -1.597566
     29          1           0       -3.320125   -0.306596    2.469995
     30          1           0       -1.359041   -1.621675    1.672156
     31          1           0       -5.501564    1.327302    0.251124
     32          1           0        2.331997   -1.245246    1.338186
     33          1           0        4.597100   -1.300313    1.610013
     34          1           0        5.542712    0.101758    1.085064
     35          1           0        4.266989    0.301597    2.306567
     36          1           0        3.169567   -0.536840   -1.789686
     37          1           0        4.884737   -0.493924   -1.338291
     38          1           0        3.845822   -1.825380   -0.779977
     39          1           0        2.820998    1.792864   -0.835069
     40          1           0        3.285185    2.144341    0.847041
     41          1           0        4.533109    1.855092   -0.380125
 ---------------------------------------------------------------------

 SCF Done:  E(UB3LYP) =  -787.108131190     A.U. after   33 cycles
 SCF Done:  E(UB3LYP) =  -787.108131190     a.u. after    1 cycles

 The electronic state is 2-A.
 Alpha  occ. eigenvalues --  -19.05618 -14.23161 -14.22302 -14.18891 -10.16954
 Alpha  occ. eigenvalues --  -10.14355 -10.13250 -10.10868 -10.10835 -10.08722
 Alpha  occ. eigenvalues --  -10.08668 -10.08505 -10.08215 -10.08107 -10.08000
 Alpha  occ. eigenvalues --  -10.07278 -10.07156 -10.07010  -0.96664  -0.89185
 Alpha  occ. eigenvalues --   -0.81213  -0.78955  -0.76226  -0.70371  -0.66616
 Alpha  occ. eigenvalues --   -0.66087  -0.65526  -0.61042  -0.60358  -0.58902
 Alpha  occ. eigenvalues --   -0.53757  -0.52924  -0.51299  -0.49786  -0.47365
 Alpha  occ. eigenvalues --   -0.45410  -0.41961  -0.40495  -0.39248  -0.38435
 Alpha  occ. eigenvalues --   -0.37920  -0.36934  -0.35824  -0.35148  -0.34946
 Alpha  occ. eigenvalues --   -0.33762  -0.33589  -0.33257  -0.31573  -0.31368
 Alpha  occ. eigenvalues --   -0.30552  -0.29910  -0.29427  -0.29143  -0.28493
 Alpha  occ. eigenvalues --   -0.28393  -0.28251  -0.26801  -0.26103  -0.25178
 Alpha  occ. eigenvalues --   -0.25004  -0.24040  -0.23863  -0.17200  -0.16437
 Alpha  occ. eigenvalues --   -0.16165  -0.14128  -0.12988   0.03895
 Alpha virt. eigenvalues --    0.05126   0.06807   0.06981   0.07165   0.07383
 Alpha virt. eigenvalues --    0.07998   0.08333   0.08697   0.09211   0.09539
 Alpha virt. eigenvalues --    0.09785   0.09994   0.10204   0.10786   0.11475

  Beta  occ. eigenvalues --  -19.05564 -14.23150 -14.22298 -14.18890 -10.16953
  Beta  occ. eigenvalues --  -10.14357 -10.13249 -10.10863 -10.10830 -10.08718
  Beta  occ. eigenvalues --  -10.08663 -10.08501 -10.08204 -10.08065 -10.07977
  Beta  occ. eigenvalues --  -10.07256 -10.07140 -10.06992  -0.96564  -0.89178
  Beta  occ. eigenvalues --   -0.81202  -0.78947  -0.76202  -0.70355  -0.66589
  Beta  occ. eigenvalues --   -0.66053  -0.65497  -0.61005  -0.60326  -0.58873
  Beta  occ. eigenvalues --   -0.53703  -0.52878  -0.51268  -0.49750  -0.47337
  Beta  occ. eigenvalues --   -0.45326  -0.41935  -0.40479  -0.39228  -0.38399
  Beta  occ. eigenvalues --   -0.37893  -0.36911  -0.35802  -0.35112  -0.34924
  Beta  occ. eigenvalues --   -0.33739  -0.33560  -0.33223  -0.31543  -0.31347
  Beta  occ. eigenvalues --   -0.30527  -0.29884  -0.29396  -0.29109  -0.28471
  Beta  occ. eigenvalues --   -0.28370  -0.28217  -0.26775  -0.26085  -0.25142
  Beta  occ. eigenvalues --   -0.24983  -0.24014  -0.23848  -0.17173  -0.16420
  Beta  occ. eigenvalues --   -0.16154  -0.14115  -0.12965
  Beta virt. eigenvalues --    0.05629   0.06734   0.07007   0.07243   0.07344
  Beta virt. eigenvalues --    0.08077   0.08185   0.08466   0.08821   0.09417
  Beta virt. eigenvalues --    0.09656   0.09892   0.10118   0.10554   0.10871

 Mulliken charges and spin densities:
               1          2
     1  C    0.144848  -0.777030
     2  C   -0.423455   0.356543
     3  N    0.067259   0.020327
     4  C   -0.348030  -0.378431
     5  N   -0.006122   0.039569
     6  C    0.050224  -0.683960
     7  C    0.169140   0.452218
     8  C   -0.525096   0.068117
     9  C   -0.210366   0.177012
    10  C    1.866735  -2.411310
    11  C    0.217473  -0.461206
    12  C   -0.668928   0.744274
    13  O   -0.252603   0.039382
    14  N    0.245746  -0.009636
    15  C   -1.050882   1.027770
    16  C    0.121749  -0.548788
    17  C    0.234034  -0.620348
    18  C    0.068740  -0.707503
    19  H    0.009531   0.130091
    20  H   -0.099801   0.240336
    21  H   -0.067150   0.206804
    22  H    0.207404  -0.061588
    23  H    0.114396   0.068052
    24  H    0.334543  -0.111146
    25  H    0.014697   0.146578
    26  H    0.177012   0.011001
    27  H   -0.077851   0.244509
    28  H   -1.402387   1.599890
    29  H    0.126944   0.056017
    30  H    0.116885   0.055226
    31  H   -0.298893   0.582382
    32  H    0.257756   0.040944
    33  H   -0.089423   0.220135
    34  H   -0.085822   0.227534
    35  H    0.019304   0.139789
    36  H    0.018343   0.155022
    37  H   -0.140770   0.307059
    38  H    0.159823  -0.010971
    39  H    0.089034   0.050283
    40  H    0.002970   0.141652
    41  H   -0.087006   0.233401
 Sum of Mulliken charges =  -1.00000   1.00000

 Dipole moment (field-independent basis, Debye):
    X=              6.0212    Y=             -3.5660    Z=              2.4468  Tot=              7.4133
 Quadrupole moment (field-independent basis, Debye-Ang):
   XX=           -240.0004   YY=           -152.0128   ZZ=           -144.3126
   XY=             15.4613   XZ=            -10.5443   YZ=              4.2325

 Summary of Natural Population Analysis:

                                       Natural Population
                Natural  -----------------------------------------------
    Atom  No    Charge         Core      Valence    Rydberg      Total
 -----------------------------------------------------------------------
      C    1   -0.28861      0.99967     2.28380    0.00514     3.28861
      C    2   -0.09061      0.99962     2.08240    0.00858     3.09061
      N    3   -0.33946      0.99967     2.82982    0.00997     3.83946
      C    4    0.32103      0.99959     1.66139    0.01799     2.67897
      N    5   -0.29648      0.99966     2.78723    0.00959     3.79648
      C    6   -0.10786      0.99957     2.09664    0.01165     3.10786
      C    7   -0.04616      0.99950     2.03663    0.01003     3.04616
      C    8   -0.09935      0.99951     2.08921    0.01062     3.09935
      C    9   -0.13174      0.99951     2.12048    0.01175     3.13174
      C   10    0.15676      0.99938     1.82969    0.01417     2.84324
      C   11   -0.12245      0.99952     2.11286    0.01007     3.12245
      C   12   -0.09391      0.99951     2.08639    0.00801     3.09391
      O   13   -0.34061      0.99988     3.33372    0.00701     4.34061
      N   14   -0.33984      0.99967     2.82927    0.01090     3.83984
      C   15    0.05809      0.99958     1.93021    0.01212     2.94191
      C   16   -0.28702      0.99962     2.28012    0.00728     3.28702
      C   17   -0.29619      0.99962     2.28960    0.00697     3.29619
      C   18   -0.29267      0.99961     2.28562    0.00744     3.29267
      H   19    0.09791      0.00000     0.40110    0.00099     0.40209
      H   20    0.10136      0.00000     0.39793    0.00072     0.39864
      H   21    0.10037      0.00000     0.39833    0.00130     0.39963
      H   22    0.10019      0.00000     0.39818    0.00163     0.39981
      H   23    0.09132      0.00000     0.40654    0.00213     0.40868
      H   24    0.18899      0.00000     0.30759    0.00342     0.31101
      H   25    0.08841      0.00000     0.40999    0.00160     0.41159
      H   26    0.09935      0.00000     0.39944    0.00121     0.40065
      H   27    0.10104      0.00000     0.39776    0.00120     0.39896
      H   28    0.10848      0.00000     0.38579    0.00573     0.39152
      H   29    0.10496      0.00000     0.39420    0.00083     0.39504
      H   30    0.10478      0.00000     0.39409    0.00114     0.39522
      H   31    0.24201      0.00000     0.24528    0.01271     0.25799
      H   32    0.18658      0.00000     0.31060    0.00282     0.31342
      H   33    0.09773      0.00000     0.40134    0.00093     0.40227
      H   34    0.10316      0.00000     0.39597    0.00087     0.39684
      H   35    0.10321      0.00000     0.39588    0.00091     0.39679
      H   36    0.10495      0.00000     0.39407    0.00098     0.39505
      H   37    0.10060      0.00000     0.39862    0.00078     0.39940
      H   38    0.10275      0.00000     0.39628    0.00097     0.39725
      H   39    0.10833      0.00000     0.39024    0.00143     0.39167
      H   40    0.10049      0.00000     0.39852    0.00099     0.39951
      H   41    0.10009      0.00000     0.39907    0.00085     0.39991
 =======================================================================
   * Total *    0.00000     17.99267    49.78189    0.22545    68.00000

 Normal termination of Gaussian 16 at Fri Dec 11 19:50:58 2020.
