 Gaussian 16, Revision A.03,

 -----------------------------------------------------------
 # opt freq B3LYP/6-31G(d) empiricaldispersion=gd3bj scf=xqc
 -----------------------------------------------------------

 -------------------------------
 CID_135339075_JID_1807_neutraal
 -------------------------------
 Symbolic Z-matrix:
 Charge =  0 Multiplicity = 1

 SCF Done:  E(RB3LYP) =  -539.006265438     A.U. after   14 cycles
 SCF Done:  E(RB3LYP) =  -539.010303072     A.U. after   12 cycles
 SCF Done:  E(RB3LYP) =  -539.010940187     A.U. after   12 cycles
 SCF Done:  E(RB3LYP) =  -539.011025467     A.U. after   12 cycles
 SCF Done:  E(RB3LYP) =  -539.011352978     A.U. after   11 cycles
 SCF Done:  E(RB3LYP) =  -539.011389732     A.U. after   10 cycles
 SCF Done:  E(RB3LYP) =  -539.011397161     A.U. after   10 cycles
 SCF Done:  E(RB3LYP) =  -539.011398447     A.U. after    8 cycles
 SCF Done:  E(RB3LYP) =  -539.011398631     A.U. after    7 cycles
 Optimization completed.
    -- Stationary point found.

 1\1\GINC-NODE115\FOpt\RB3LYP\6-31G(d)\C8H14O3\VSC10255\08-Dec-2020\0\\
 # opt freq B3LYP/6-31G(d) empiricaldispersion=gd3bj scf=xqc\\CID_13533
 9075_JID_1807_neutraal\\0,1\C,0.9788047047,-0.0337352156,0.0671534679\
 C,0.6572924396,0.5873973125,-1.286520007\C,-0.8657302274,0.7885629847,
 -1.5143121098\C,-1.0643490106,2.292467061,-1.7781868269\C,0.337937168,
 2.8826096205,-1.6135014813\O,0.6450939396,4.0392624329,-1.7901429193\O
 ,1.2325809528,1.9355006973,-1.2759055875\C,-2.0243765636,2.967695292,-
 0.787754208\C,-1.5132745271,2.5993790434,-3.2200351258\O,-0.5788915127

 Normal termination of Gaussian 16 at Tue Dec  8 21:19:47 2020.

 --------------------------------------------------------------------
 #N Geom=AllCheck Guess=TCheck SCRF=Check GenChk RB3LYP/6-31G(d) Freq
 --------------------------------------------------------------------

 Structure from the checkpoint file:  "JID_1807.chk"
 -------------------------------
 CID_135339075_JID_1807_neutraal
 -------------------------------
 Charge =  0 Multiplicity = 1

 SCF Done:  E(RB3LYP) =  -539.011398631     A.U. after    1 cycles

  Exact polarizability:  99.964   4.126  81.298  -3.065   1.221  82.970
 Approx polarizability: 132.946   5.170 112.966  -9.645  -0.984 128.415

                      1                      2                      3
                      A                      A                      A
 Frequencies --     47.3186                79.7035                99.3014
 Red. masses --      3.1184                 5.1587                 4.1481
 Frc consts  --      0.0041                 0.0193                 0.0241
 IR Inten    --      1.1704                 1.3055                 5.1972

                      4                      5                      6
                      A                      A                      A
 Frequencies --    186.2165               234.1212               234.4639
 Red. masses --      5.1706                 2.1493                 1.2152
 Frc consts  --      0.1056                 0.0694                 0.0394
 IR Inten    --      0.4243                 1.1662                 0.8835

                      7                      8                      9
                      A                      A                      A
 Frequencies --    248.8451               277.7946               287.3875
 Red. masses --      1.0647                 1.3741                 2.1204
 Frc consts  --      0.0388                 0.0625                 0.1032
 IR Inten    --      0.2837                 3.7883                 1.2883

                     10                     11                     12
                      A                      A                      A
 Frequencies --    301.6733               337.7047               352.9332
 Red. masses --      2.0158                 2.2300                 2.6528
 Frc consts  --      0.1081                 0.1498                 0.1947
 IR Inten    --      4.7589                 0.6287                 4.6306

                     13                     14                     15
                      A                      A                      A
 Frequencies --    390.1810               439.6409               468.2359
 Red. masses --      2.2907                 1.0823                 2.9240
 Frc consts  --      0.2055                 0.1232                 0.3777
 IR Inten    --      0.6977               158.8296                 2.5967

                     16                     17                     18
                      A                      A                      A
 Frequencies --    500.6338               551.0131               588.1371
 Red. masses --      4.0655                 3.2416                 3.2662
 Frc consts  --      0.6004                 0.5799                 0.6657
 IR Inten    --      5.2810                15.2752                 1.1141

                     19                     20                     21
                      A                      A                      A
 Frequencies --    616.9402               719.8820               766.4179
 Red. masses --      6.7515                 5.7699                 6.0782
 Frc consts  --      1.5140                 1.7617                 2.1036
 IR Inten    --     11.2500                 2.1288                 0.7331

                     22                     23                     24
                      A                      A                      A
 Frequencies --    838.8745               895.0150               901.8314
 Red. masses --      3.8261                 2.1187                 1.8621
 Frc consts  --      1.5863                 0.9999                 0.8923
 IR Inten    --      1.3618                 6.1202                 1.4906

                     25                     26                     27
                      A                      A                      A
 Frequencies --    952.4742               960.5101               971.8210
 Red. masses --      1.7090                 2.7044                 1.6229
 Frc consts  --      0.9135                 1.4700                 0.9030
 IR Inten    --      6.7145                32.5470                 7.0339

                     28                     29                     30
                      A                      A                      A
 Frequencies --   1000.7293              1007.9998              1039.5914
 Red. masses --      1.7432                 1.6607                 1.3372
 Frc consts  --      1.0285                 0.9942                 0.8515
 IR Inten    --     26.5291                 9.0438                 1.1931

                     31                     32                     33
                      A                      A                      A
 Frequencies --   1080.6058              1102.9713              1130.0535
 Red. masses --      4.7003                 1.8042                 2.0959
 Frc consts  --      3.2338                 1.2932                 1.5770
 IR Inten    --     61.0765                25.3586                83.2762

                     34                     35                     36
                      A                      A                      A
 Frequencies --   1189.0743              1215.0269              1235.3861
 Red. masses --      1.5421                 2.7337                 2.4175
 Frc consts  --      1.2847                 2.3778                 2.1738
 IR Inten    --     49.9542                29.6349                42.3535

                     37                     38                     39
                      A                      A                      A
 Frequencies --   1256.8616              1296.9784              1307.0312
 Red. masses --      2.5768                 2.0373                 3.6217
 Frc consts  --      2.3983                 2.0192                 3.6454
 IR Inten    --      1.4969                10.4612               184.0425

                     40                     41                     42
                      A                      A                      A
 Frequencies --   1331.4404              1363.5551              1414.5586
 Red. masses --      1.7741                 1.6339                 1.2976
 Frc consts  --      1.8529                 1.7899                 1.5298
 IR Inten    --     22.1969                 7.8204                 0.7294

                     43                     44                     45
                      A                      A                      A
 Frequencies --   1422.6828              1431.5658              1441.8782
 Red. masses --      1.2129                 1.3071                 1.2459
 Frc consts  --      1.4464                 1.5783                 1.5262
 IR Inten    --     29.4353                10.8929                29.6874

                     46                     47                     48
                      A                      A                      A
 Frequencies --   1447.4427              1511.0171              1516.4382
 Red. masses --      1.2474                 1.0526                 1.0491
 Frc consts  --      1.5398                 1.4160                 1.4214
 IR Inten    --     14.4025                 0.8358                 1.5535

                     49                     50                     51
                      A                      A                      A
 Frequencies --   1520.0292              1523.4739              1526.8187
 Red. masses --      1.0735                 1.0771                 1.0630
 Frc consts  --      1.4613                 1.4729                 1.4600
 IR Inten    --      0.8486                 9.2897                 6.3840

                     52                     53                     54
                      A                      A                      A
 Frequencies --   1529.0685              1532.3368              1542.9791
 Red. masses --      1.0588                 1.0558                 1.0579
 Frc consts  --      1.4585                 1.4606                 1.4839
 IR Inten    --      0.5840                 3.8557                 3.5183

                     55                     56                     57
                      A                      A                      A
 Frequencies --   1848.6419              3045.7996              3053.3777
 Red. masses --     12.4375                 1.0588                 1.0382
 Frc consts  --     25.0432                 5.7872                 5.7031
 IR Inten    --    325.3579                30.2045                31.2661

                     58                     59                     60
                      A                      A                      A
 Frequencies --   3054.9520              3060.1682              3078.9694
 Red. masses --      1.0350                 1.0362                 1.0616
 Frc consts  --      5.6910                 5.7170                 5.9294
 IR Inten    --     12.0206                17.8743                17.5329

                     61                     62                     63
                      A                      A                      A
 Frequencies --   3109.1612              3119.2261              3124.0892
 Red. masses --      1.1047                 1.1027                 1.1041
 Frc consts  --      6.2922                 6.3212                 6.3490
 IR Inten    --     18.8307                19.2997                12.9072

                     64                     65                     66
                      A                      A                      A
 Frequencies --   3126.4755              3130.9198              3136.5727
 Red. masses --      1.1029                 1.1025                 1.1029
 Frc consts  --      6.3517                 6.3675                 6.3928
 IR Inten    --      5.4024                34.4712                24.7840

                     67                     68                     69
                      A                      A                      A
 Frequencies --   3138.6250              3149.8016              3734.4332
 Red. masses --      1.1026                 1.1037                 1.0662
 Frc consts  --      6.3995                 6.4519                 8.7609
 IR Inten    --     20.1318                10.3528                26.0207

 - Thermochemistry -
 -------------------
 Temperature   298.150 Kelvin.  Pressure   1.00000 Atm.
 Atom     1 has atomic number  6 and mass  12.00000

 Molecular mass:   158.09429 amu.
 Principal axes and moments of inertia in atomic units:
                           1         2         3
     Eigenvalues --  1196.699511892.392462050.78806
           X            0.99962   0.02300   0.01533
           Y           -0.02507   0.98794   0.15280
           Z           -0.01163  -0.15312   0.98814
 This molecule is an asymmetric top.
 Rotational symmetry number  1.
 Warning -- assumption of classical behavior for rotation
           may cause significant error
 Rotational temperatures (Kelvin)      0.07238     0.04577     0.04223
 Rotational constants (GHZ):           1.50810     0.95368     0.88002
 Zero-point vibrational energy     568692.0 (Joules/Mol)
                                  135.92065 (Kcal/Mol)
 Warning -- explicit consideration of  19 degrees of freedom as
           vibrations may cause significant error
 Vibrational temperatures:     68.08   114.68   142.87   267.92   336.85
          (Kelvin)            337.34   358.03   399.68   413.49   434.04
                              485.88   507.79   561.38   632.55   673.69
                              720.30   792.78   846.20   887.64  1035.75
                             1102.70  1206.95  1287.73  1297.53  1370.40
                             1381.96  1398.23  1439.83  1450.29  1495.74
                             1554.75  1586.93  1625.89  1710.81  1748.15
                             1777.45  1808.34  1866.06  1880.53  1915.65
                             1961.85  2035.23  2046.92  2059.70  2074.54
                             2082.55  2174.02  2181.82  2186.98  2191.94
                             2196.75  2199.99  2204.69  2220.00  2659.78
                             4382.23  4393.13  4395.39  4402.90  4429.95
                             4473.39  4487.87  4494.87  4498.30  4504.70
                             4512.83  4515.78  4531.86  5373.02

 Zero-point correction=                           0.216603 (Hartree/Particle)
 Thermal correction to Energy=                    0.228329
 Thermal correction to Enthalpy=                  0.229273
 Thermal correction to Gibbs Free Energy=         0.179555
 Sum of electronic and zero-point Energies=           -538.794795
 Sum of electronic and thermal Energies=              -538.783070
 Sum of electronic and thermal Enthalpies=            -538.782125
 Sum of electronic and thermal Free Energies=         -538.831844

                     E (Thermal)             CV                S
                      KCal/Mol        Cal/Mol-Kelvin    Cal/Mol-Kelvin
 Total                  143.279             44.561            104.641
 Electronic               0.000              0.000              0.000
 Translational            0.889              2.981             41.083
 Rotational               0.889              2.981             29.919
 Vibrational            141.501             38.599             33.638
 Vibration     1          0.595              1.979              4.926
 Vibration     2          0.600              1.963              3.898
 Vibration     3          0.604              1.950              3.468
 Vibration     4          0.632              1.859              2.265
 Vibration     5          0.654              1.789              1.847
 Vibration     6          0.654              1.788              1.845
 Vibration     7          0.662              1.765              1.739
 Vibration     8          0.679              1.715              1.547
 Vibration     9          0.685              1.697              1.489
 Vibration    10          0.694              1.671              1.408
 Vibration    11          0.718              1.600              1.223
 Vibration    12          0.729              1.569              1.153
 Vibration    13          0.758              1.491              0.999
 Vibration    14          0.800              1.384              0.828
 Vibration    15          0.825              1.321              0.743
 Vibration    16          0.856              1.249              0.657
 Vibration    17          0.906              1.137              0.542
 Vibration    18          0.945              1.057              0.471
 Vibration    19          0.977              0.996              0.421

                           ! Non-Optimized Parameters !

 1\1\GINC-NODE115\Freq\RB3LYP\6-31G(d)\C8H14O3\VSC10255\08-Dec-2020\0\\
 #N Geom=AllCheck Guess=TCheck SCRF=Check GenChk RB3LYP/6-31G(d) Freq\\
 CID_135339075_JID_1807_neutraal\\0,1\C,0.9788047047,-0.0337352156,0.06
 71534679\C,0.6572924396,0.5873973125,-1.286520007\C,-0.8657302274,0.78
 85629847,-1.5143121098\C,-1.0643490106,2.292467061,-1.7781868269\C,0.3
 37937168,2.8826096205,-1.6135014813\O,0.6450939396,4.0392624329,-1.790
 1429193\O,1.2325809528,1.9355006973,-1.2759055875\C,-2.0243765636,2.96
 7695292,-0.787754208\C,-1.5132745271,2.5993790434,-3.2200351258\O,-0.5

 Normal termination of Gaussian 16 at Tue Dec  8 21:27:31 2020.

 ----------------------------------------------------------------------
 # B3LYP/6-311++G(d,p) empiricaldispersion=gd3bj scf=xqc pop=npa geom=c
 heck
 ----------------------------------------------------------------------

 ---------------------------------------
 CID_135339075_JID_1807_Energie_neutraal
 ---------------------------------------
 Structure from the checkpoint file:  "JID_1807.chk"
 Charge =  0 Multiplicity = 1

 SCF Done:  E(RB3LYP) =  -539.176779254     A.U. after   14 cycles
 Normal termination of Gaussian 16 at Tue Dec  8 21:30:08 2020.

 ----------------------------------------------------------------------
 # B3LYP/6-311++G(d,p) empiricaldispersion=gd3bj scf=xqc pop=npa geom=c
 heck
 ----------------------------------------------------------------------

 -------------------------------------
 CID_135339075_JID_1807_Energie_kation
 -------------------------------------
 Structure from the checkpoint file:  "JID_1807.chk"
 Charge =  1 Multiplicity = 2

 SCF Done:  E(UB3LYP) =  -538.819526800     A.U. after   24 cycles
 Normal termination of Gaussian 16 at Tue Dec  8 21:36:55 2020.
 Gaussian 16:  ES64L-G16RevA.03 25-Dec-2016

 ------------------------------------
 CID_135339075_JID_1807_Energie_anion
 ------------------------------------
 Structure from the checkpoint file:  "JID_1807.chk"
 Charge = -1 Multiplicity = 2

                         Standard orientation:
 ---------------------------------------------------------------------
 Center     Atomic      Atomic             Coordinates (Angstroms)
 Number     Number       Type             X           Y           Z
 ---------------------------------------------------------------------
      1          6           0        2.657593   -0.946504   -0.226588
      2          6           0        1.506780    0.045595   -0.112667
      3          6           0        0.426905   -0.150536   -1.211465
      4          6           0       -0.897719   -0.406313   -0.469335
      5          6           0       -0.495166   -0.418559    1.007011
      6          8           0       -1.248935   -0.535100    1.945969
      7          8           0        0.830654   -0.241253    1.155806
      8          6           0       -1.555835   -1.745551   -0.832471
      9          6           0       -1.919659    0.733492   -0.645790
     10          8           0       -1.438961    1.983395   -0.166419
     11          6           0        1.991532    1.489879   -0.030822
     12          1           0        3.203378   -0.782868   -1.162195
     13          1           0        2.280560   -1.974540   -0.220698
     14          1           0        3.355588   -0.828777    0.608046
     15          1           0        0.365710    0.738224   -1.844595
     16          1           0        0.683952   -0.998769   -1.853072
     17          1           0       -2.403653   -1.947392   -0.171133
     18          1           0       -1.913485   -1.726819   -1.868442
     19          1           0       -0.843643   -2.571743   -0.735990
     20          1           0       -2.128189    0.870635   -1.711678
     21          1           0       -2.854762    0.454208   -0.143413
     22          1           0       -1.506831    1.960741    0.801823
     23          1           0        2.635550    1.631019    0.842704
     24          1           0        2.562622    1.745251   -0.930497
     25          1           0        1.134560    2.165471    0.039043
 ---------------------------------------------------------------------

 SCF Done:  E(UB3LYP) =  -539.162668167     A.U. after   30 cycles

 The electronic state is 2-A.
 Alpha  occ. eigenvalues --  -19.06451 -19.03668 -19.01230 -10.19879 -10.14304
 Alpha  occ. eigenvalues --  -10.12619 -10.09948 -10.07161 -10.06871 -10.06089
 Alpha  occ. eigenvalues --  -10.06055  -1.00730  -0.93840  -0.92814  -0.73101
 Alpha  occ. eigenvalues --   -0.69922  -0.60079  -0.59701  -0.58702  -0.53814
 Alpha  occ. eigenvalues --   -0.50545  -0.44036  -0.42362  -0.39346  -0.37497
 Alpha  occ. eigenvalues --   -0.36741  -0.34765  -0.34487  -0.33475  -0.32019
 Alpha  occ. eigenvalues --   -0.31155  -0.30043  -0.29625  -0.28678  -0.27474
 Alpha  occ. eigenvalues --   -0.26697  -0.25604  -0.24686  -0.24157  -0.22660
 Alpha  occ. eigenvalues --   -0.19909  -0.18958  -0.17641   0.04704
 Alpha virt. eigenvalues --    0.07238   0.07816   0.08497   0.09176   0.09683
 Alpha virt. eigenvalues --    0.10191   0.10441   0.11217   0.12093   0.12361
 Alpha virt. eigenvalues --    0.13447   0.13569   0.13929   0.15238   0.15784

  Beta  occ. eigenvalues --  -19.06442 -19.03658 -19.01226 -10.19875 -10.14299
  Beta  occ. eigenvalues --  -10.12596 -10.09947 -10.07128 -10.06828 -10.06043
  Beta  occ. eigenvalues --  -10.06025  -1.00718  -0.93821  -0.92805  -0.73077
  Beta  occ. eigenvalues --   -0.69896  -0.60014  -0.59640  -0.58635  -0.53756
  Beta  occ. eigenvalues --   -0.50494  -0.43997  -0.42332  -0.39302  -0.37462
  Beta  occ. eigenvalues --   -0.36692  -0.34729  -0.34456  -0.33436  -0.31978
  Beta  occ. eigenvalues --   -0.31117  -0.29993  -0.29580  -0.28637  -0.27433
  Beta  occ. eigenvalues --   -0.26658  -0.25574  -0.24660  -0.24126  -0.22631
  Beta  occ. eigenvalues --   -0.19887  -0.18936  -0.17624
  Beta virt. eigenvalues --    0.07206   0.08144   0.08409   0.09241   0.09510
  Beta virt. eigenvalues --    0.10251   0.10623   0.11206   0.12070   0.12517
  Beta virt. eigenvalues --    0.12943   0.13829   0.14115   0.14203   0.15480

 Mulliken charges and spin densities:
               1          2
     1  C    1.585384  -2.025620
     2  C   -1.795135   1.789418
     3  C    0.888164  -1.273102
     4  C   -1.332858   1.788865
     5  C   -0.265829   0.104059
     6  O   -0.278684  -0.002061
     7  O    0.056449   0.011322
     8  C    1.422296  -1.937681
     9  C    1.027868  -1.609578
    10  O   -0.190975   0.025688
    11  C    0.891895  -1.398478
    12  H   -0.487625   0.656041
    13  H   -0.229222   0.390253
    14  H   -0.117033   0.265389
    15  H   -0.417318   0.616679
    16  H   -0.765774   1.011423
    17  H    0.050443   0.101189
    18  H   -0.463377   0.629709
    19  H   -0.290058   0.458609
    20  H   -0.193221   0.394779
    21  H    0.032720   0.143386
    22  H    0.136172   0.118493
    23  H    0.007377   0.136551
    24  H   -0.273932   0.435950
    25  H    0.002272   0.168717
 Sum of Mulliken charges =  -1.00000   1.00000

 Dipole moment (field-independent basis, Debye):
    X=             -2.3125    Y=              2.4410    Z=              4.5543  Tot=              5.6610
 Quadrupole moment (field-independent basis, Debye-Ang):
   XX=           -116.7919   YY=           -107.1183   ZZ=           -116.9415
   XY=             -0.0247   XZ=              4.8403   YZ=             -1.9697

 Summary of Natural Population Analysis:

                                       Natural Population
                Natural  -----------------------------------------------
    Atom  No    Charge         Core      Valence    Rydberg      Total
 -----------------------------------------------------------------------
      C    1   -0.29048      0.99960     2.28375    0.00714     3.29048
      C    2    0.13393      0.99954     1.85036    0.01617     2.86607
      C    3   -0.20132      0.99955     2.18762    0.01415     3.20132
      C    4   -0.10050      0.99952     2.08624    0.01474     3.10050
      C    5    0.41571      0.99959     1.55570    0.02900     2.58429
      O    6   -0.30966      0.99987     3.30348    0.00632     4.30966
      O    7   -0.27946      0.99985     3.27072    0.00890     4.27946
      C    8   -0.27960      0.99963     2.27248    0.00750     3.27960
      C    9   -0.00101      0.99953     1.98746    0.01401     3.00101
      O   10   -0.36955      0.99990     3.36309    0.00656     4.36955
      C   11   -0.29512      0.99959     2.28859    0.00694     3.29512
      H   12    0.10787      0.00000     0.38987    0.00226     0.39213
      H   13    0.10442      0.00000     0.39397    0.00161     0.39558
      H   14    0.10246      0.00000     0.39630    0.00123     0.39754
      H   15    0.11123      0.00000     0.38627    0.00250     0.38877
      H   16    0.11054      0.00000     0.38584    0.00362     0.38946
      H   17    0.10538      0.00000     0.39340    0.00123     0.39462
      H   18    0.10556      0.00000     0.39245    0.00199     0.39444
      H   19    0.10568      0.00000     0.39271    0.00161     0.39432
      H   20    0.09168      0.00000     0.40686    0.00146     0.40832
      H   21    0.08558      0.00000     0.41310    0.00132     0.41442
      H   22    0.23016      0.00000     0.26691    0.00293     0.26984
      H   23    0.10145      0.00000     0.39750    0.00105     0.39855
      H   24    0.10580      0.00000     0.39286    0.00134     0.39420
      H   25    0.10925      0.00000     0.38938    0.00137     0.39075
 =======================================================================
   * Total *    0.00000     10.99616    31.84689    0.15694    43.00000

 Normal termination of Gaussian 16 at Tue Dec  8 21:45:38 2020.
