 Gaussian 16, Revision A.03,

 -----------------------------------------------------------
 # opt freq B3LYP/6-31G(d) empiricaldispersion=gd3bj scf=xqc
 -----------------------------------------------------------

 ---------------------------
 CID_21721211_JID_3_neutraal
 ---------------------------
 Symbolic Z-matrix:
 Charge =  0 Multiplicity = 1

 SCF Done:  E(RB3LYP) =  -463.759258092     A.U. after   14 cycles
 SCF Done:  E(RB3LYP) =  -463.761600374     A.U. after   12 cycles
 SCF Done:  E(RB3LYP) =  -463.760917318     A.U. after   12 cycles
 SCF Done:  E(RB3LYP) =  -463.762335264     A.U. after   11 cycles
 SCF Done:  E(RB3LYP) =  -463.762418374     A.U. after   11 cycles
 SCF Done:  E(RB3LYP) =  -463.762464186     A.U. after   11 cycles
 SCF Done:  E(RB3LYP) =  -463.762495830     A.U. after   11 cycles
 SCF Done:  E(RB3LYP) =  -463.762545672     A.U. after   11 cycles
 SCF Done:  E(RB3LYP) =  -463.762574681     A.U. after   11 cycles
 SCF Done:  E(RB3LYP) =  -463.762579646     A.U. after    9 cycles
 SCF Done:  E(RB3LYP) =  -463.762581514     A.U. after    9 cycles
 SCF Done:  E(RB3LYP) =  -463.762583784     A.U. after   10 cycles
 SCF Done:  E(RB3LYP) =  -463.762584916     A.U. after    9 cycles
 SCF Done:  E(RB3LYP) =  -463.762585070     A.U. after    8 cycles
 SCF Done:  E(RB3LYP) =  -463.762585100     A.U. after    8 cycles
 SCF Done:  E(RB3LYP) =  -463.762585110     A.U. after    7 cycles
 Optimization completed.
    -- Stationary point found.

 1\1\GINC-NODE377\FOpt\RB3LYP\6-31G(d)\C8H14O2\VSC10255\08-Dec-2020\0\\
 # opt freq B3LYP/6-31G(d) empiricaldispersion=gd3bj scf=xqc\\CID_21721
 211_JID_3_neutraal\\0,1\C,0.4360143678,0.2751219712,0.326410229\C,0.93
 00135755,-0.905963706,1.1772930211\C,1.2154057762,-0.4819341787,2.6022
 803759\O,0.5653094786,-0.8032087631,3.571848729\O,2.294669683,0.340448
 4702,2.6397279133\C,2.6382966211,0.9369551232,3.9091133023\C,2.3121221
 616,2.4317488294,3.8824099814\C,0.844867423,2.714426494,3.722441393\C,
 0.085001629,3.3373665215,4.6250085256\C,-1.3841353116,3.6037544239,4.4

 Normal termination of Gaussian 16 at Tue Dec  8 10:16:17 2020.

 --------------------------------------------------------------------
 #N Geom=AllCheck Guess=TCheck SCRF=Check GenChk RB3LYP/6-31G(d) Freq
 --------------------------------------------------------------------

 Structure from the checkpoint file:  "JID_3.chk"
 ---------------------------
 CID_21721211_JID_3_neutraal
 ---------------------------
 Charge =  0 Multiplicity = 1

 SCF Done:  E(RB3LYP) =  -463.762585110     A.U. after    1 cycles

  Exact polarizability: 104.166   0.839  90.806  -8.350  -4.631  75.150
 Approx polarizability: 134.497   2.654 118.732 -18.569 -11.263 117.991

                      1                      2                      3
                      A                      A                      A
 Frequencies --     23.9412                34.2816                45.9235
 Red. masses --      3.1230                 5.0640                 2.9074
 Frc consts  --      0.0011                 0.0035                 0.0036
 IR Inten    --      1.1217                 0.5820                 0.7723

                      4                      5                      6
                      A                      A                      A
 Frequencies --     75.8567               106.4184               148.2561
 Red. masses --      2.0719                 2.9735                 2.0534
 Frc consts  --      0.0070                 0.0198                 0.0266
 IR Inten    --      0.4195                 0.7746                 0.5868

                      7                      8                      9
                      A                      A                      A
 Frequencies --    210.9806               225.0596               253.4112
 Red. masses --      1.3258                 1.1535                 3.2790
 Frc consts  --      0.0348                 0.0344                 0.1241
 IR Inten    --      1.0822                 0.4829                 2.9656

                     10                     11                     12
                      A                      A                      A
 Frequencies --    289.2216               297.1162               349.8927
 Red. masses --      2.9016                 2.3983                 2.6299
 Frc consts  --      0.1430                 0.1247                 0.1897
 IR Inten    --      1.2663                 6.6835                 5.6985

                     13                     14                     15
                      A                      A                      A
 Frequencies --    426.0476               487.5394               526.1505
 Red. masses --      2.9256                 2.5244                 2.3690
 Frc consts  --      0.3129                 0.3535                 0.3864
 IR Inten    --      6.0491                 1.0585                 5.2306

                     16                     17                     18
                      A                      A                      A
 Frequencies --    611.9610               730.5252               791.1076
 Red. masses --      3.8902                 3.4681                 1.5348
 Frc consts  --      0.8584                 1.0905                 0.5659
 IR Inten    --      5.1903                 6.0033                 0.6372

                     19                     20                     21
                      A                      A                      A
 Frequencies --    807.8577               833.3510               853.4259
 Red. masses --      1.4659                 1.8254                 2.5139
 Frc consts  --      0.5637                 0.7469                 1.0788
 IR Inten    --      2.4786                 1.3102                 9.8835

                     22                     23                     24
                      A                      A                      A
 Frequencies --    912.4915               965.9219               988.5539
 Red. masses --      2.5722                 1.6071                 2.1652
 Frc consts  --      1.2619                 0.8834                 1.2467
 IR Inten    --      1.1290                 5.9185                 6.5743

                     25                     26                     27
                      A                      A                      A
 Frequencies --   1012.6850              1040.5295              1079.7076
 Red. masses --      1.0824                 2.6757                 1.5399
 Frc consts  --      0.6540                 1.7068                 1.0577
 IR Inten    --     20.1637                36.5149                 0.1212

                     28                     29                     30
                      A                      A                      A
 Frequencies --   1090.3624              1102.6026              1107.4575
 Red. masses --      1.9842                 2.2647                 2.1573
 Frc consts  --      1.3899                 1.6222                 1.5589
 IR Inten    --     66.9845                27.5123                 9.8726

                     31                     32                     33
                      A                      A                      A
 Frequencies --   1116.3780              1160.3657              1241.5528
 Red. masses --      2.0279                 2.2987                 1.8645
 Frc consts  --      1.4891                 1.8236                 1.6933
 IR Inten    --     68.6978                 2.3672               158.5577

                     34                     35                     36
                      A                      A                      A
 Frequencies --   1255.2234              1296.0429              1317.7611
 Red. masses --      1.4145                 1.2008                 1.4154
 Frc consts  --      1.3131                 1.1884                 1.4481
 IR Inten    --     29.8962                 2.6652                96.1753

                     37                     38                     39
                      A                      A                      A
 Frequencies --   1343.5083              1357.2026              1364.9683
 Red. masses --      1.2339                 1.2277                 1.5747
 Frc consts  --      1.3122                 1.3324                 1.7286
 IR Inten    --      9.4659                11.5357                20.7064

                     40                     41                     42
                      A                      A                      A
 Frequencies --   1394.5580              1420.8101              1437.5302
 Red. masses --      1.4520                 1.3153                 1.2587
 Frc consts  --      1.6637                 1.5644                 1.5325
 IR Inten    --      1.2564                 4.4745                 8.1166

                     43                     44                     45
                      A                      A                      A
 Frequencies --   1442.8992              1499.9385              1506.6755
 Red. masses --      1.2652                 1.1061                 1.0816
 Frc consts  --      1.5519                 1.4662                 1.4466
 IR Inten    --      1.7671                 4.8473                 3.5329

                     46                     47                     48
                      A                      A                      A
 Frequencies --   1509.3748              1521.6541              1524.1202
 Red. masses --      1.0452                 1.0617                 1.0840
 Frc consts  --      1.4030                 1.4484                 1.4836
 IR Inten    --      4.8083                 3.4765                12.1824

                     49                     50                     51
                      A                      A                      A
 Frequencies --   1528.7168              1538.7407              1764.7829
 Red. masses --      1.0404                 1.0631                 5.8753
 Frc consts  --      1.4325                 1.4831                10.7811
 IR Inten    --      7.9031                17.2448                 1.7024

                     52                     53                     54
                      A                      A                      A
 Frequencies --   1832.3336              3029.8301              3032.5081
 Red. masses --     10.9048                 1.0621                 1.0377
 Frc consts  --     21.5713                 5.7445                 5.6222
 IR Inten    --    206.0802                32.0563                31.6745

                     55                     56                     57
                      A                      A                      A
 Frequencies --   3059.2664              3072.0582              3075.0200
 Red. masses --      1.0359                 1.0634                 1.0947
 Frc consts  --      5.7120                 5.9131                 6.0986
 IR Inten    --     18.4109                14.1014                12.9173

                     58                     59                     60
                      A                      A                      A
 Frequencies --   3079.4356              3089.2501              3115.4224
 Red. masses --      1.1001                 1.0665                 1.0977
 Frc consts  --      6.1464                 5.9970                 6.2770
 IR Inten    --     25.1381                56.3680                 7.4549

                     61                     62                     63
                      A                      A                      A
 Frequencies --   3123.2140              3131.6686              3137.0551
 Red. masses --      1.0998                 1.1038                 1.0921
 Frc consts  --      6.3208                 6.3780                 6.3320
 IR Inten    --     18.4862                19.6086                28.6293

                     64                     65                     66
                      A                      A                      A
 Frequencies --   3148.2510              3154.1782              3157.8882
 Red. masses --      1.1026                 1.0875                 1.1048
 Frc consts  --      6.4390                 6.3748                 6.4913
 IR Inten    --     31.7062                30.0443                12.7354

 - Thermochemistry -
 -------------------
 Temperature   298.150 Kelvin.  Pressure   1.00000 Atm.
 Atom     1 has atomic number  6 and mass  12.00000

 Molecular mass:   142.09938 amu.
 Principal axes and moments of inertia in atomic units:
                           1         2         3
     Eigenvalues --  1062.258882404.438552795.45741
           X            0.99981  -0.00669  -0.01810
           Y            0.00695   0.99987   0.01465
           Z            0.01800  -0.01477   0.99973
 This molecule is an asymmetric top.
 Rotational symmetry number  1.
 Warning -- assumption of classical behavior for rotation
           may cause significant error
 Rotational temperatures (Kelvin)      0.08154     0.03602     0.03098
 Rotational constants (GHZ):           1.69897     0.75059     0.64560
 Zero-point vibrational energy     551531.2 (Joules/Mol)
                                  131.81913 (Kcal/Mol)
 Warning -- explicit consideration of  16 degrees of freedom as
           vibrations may cause significant error
 Vibrational temperatures:     34.45    49.32    66.07   109.14   153.11
          (Kelvin)            213.31   303.55   323.81   364.60   416.13
                              427.48   503.42   612.99   701.46   757.01
                              880.48  1051.06  1138.23  1162.33  1199.01
                             1227.89  1312.87  1389.75  1422.31  1457.03
                             1497.09  1553.46  1568.79  1586.40  1593.38
                             1606.22  1669.51  1786.32  1805.99  1864.72
                             1895.96  1933.01  1952.71  1963.88  2006.46
                             2044.23  2068.29  2076.01  2158.08  2167.77
                             2171.65  2189.32  2192.87  2199.48  2213.90
                             2539.13  2636.32  4359.25  4363.10  4401.60
                             4420.01  4424.27  4430.62  4444.74  4482.40
                             4493.61  4505.77  4513.52  4529.63  4538.16
                             4543.50

 Zero-point correction=                           0.210067 (Hartree/Particle)
 Thermal correction to Energy=                    0.222170
 Thermal correction to Enthalpy=                  0.223114
 Thermal correction to Gibbs Free Energy=         0.169649
 Sum of electronic and zero-point Energies=           -463.552518
 Sum of electronic and thermal Energies=              -463.540415
 Sum of electronic and thermal Enthalpies=            -463.539471
 Sum of electronic and thermal Free Energies=         -463.592936

                     E (Thermal)             CV                S
                      KCal/Mol        Cal/Mol-Kelvin    Cal/Mol-Kelvin
 Total                  139.414             41.753            112.527
 Electronic               0.000              0.000              0.000
 Translational            0.889              2.981             40.765
 Rotational               0.889              2.981             30.347
 Vibrational            137.636             35.792             41.415
 Vibration     1          0.593              1.985              6.277
 Vibration     2          0.594              1.983              5.565
 Vibration     3          0.595              1.979              4.986
 Vibration     4          0.599              1.965              3.995
 Vibration     5          0.605              1.944              3.333
 Vibration     6          0.618              1.905              2.694
 Vibration     7          0.643              1.824              2.035
 Vibration     8          0.650              1.803              1.918
 Vibration     9          0.665              1.757              1.707
 Vibration    10          0.686              1.694              1.479
 Vibration    11          0.691              1.679              1.433
 Vibration    12          0.727              1.575              1.167
 Vibration    13          0.788              1.414              0.872
 Vibration    14          0.843              1.278              0.690
 Vibration    15          0.881              1.192              0.596
 Vibration    16          0.971              1.007              0.430

 Optimization completed.
    -- Stationary point found.

 1\1\GINC-NODE377\Freq\RB3LYP\6-31G(d)\C8H14O2\VSC10255\08-Dec-2020\0\\
 #N Geom=AllCheck Guess=TCheck SCRF=Check GenChk RB3LYP/6-31G(d) Freq\\
 CID_21721211_JID_3_neutraal\\0,1\C,0.4360143678,0.2751219712,0.3264102
 29\C,0.9300135755,-0.905963706,1.1772930211\C,1.2154057762,-0.48193417
 87,2.6022803759\O,0.5653094786,-0.8032087631,3.571848729\O,2.294669683
 ,0.3404484702,2.6397279133\C,2.6382966211,0.9369551232,3.9091133023\C,
 2.3121221616,2.4317488294,3.8824099814\C,0.844867423,2.714426494,3.722
 441393\C,0.085001629,3.3373665215,4.6250085256\C,-1.3841353116,3.60375

 Normal termination of Gaussian 16 at Tue Dec  8 10:20:00 2020.

 ----------------------------------------------------------------------
 # B3LYP/6-311++G(d,p) empiricaldispersion=gd3bj scf=xqc pop=npa geom=c
 heck
 ----------------------------------------------------------------------

 -----------------------------------
 CID_21721211_JID_3_Energie_neutraal
 -----------------------------------
 Structure from the checkpoint file:  "JID_3.chk"
 Charge =  0 Multiplicity = 1

 SCF Done:  E(RB3LYP) =  -463.900422901     A.U. after   14 cycles
 Normal termination of Gaussian 16 at Tue Dec  8 10:21:20 2020.

 ----------------------------------------------------------------------
 # B3LYP/6-311++G(d,p) empiricaldispersion=gd3bj scf=xqc pop=npa geom=c
 heck
 ----------------------------------------------------------------------

 ---------------------------------
 CID_21721211_JID_3_Energie_kation
 ---------------------------------
 Structure from the checkpoint file:  "JID_3.chk"
 Charge =  1 Multiplicity = 2

 SCF Done:  E(UB3LYP) =  -463.574787419     A.U. after   20 cycles
 Normal termination of Gaussian 16 at Tue Dec  8 10:23:48 2020.
 Gaussian 16:  ES64L-G16RevA.03 25-Dec-2016

 --------------------------------
 CID_21721211_JID_3_Energie_anion
 --------------------------------
 Structure from the checkpoint file:  "JID_3.chk"
 Charge = -1 Multiplicity = 2

                         Standard orientation:
 ---------------------------------------------------------------------
 Center     Atomic      Atomic             Coordinates (Angstroms)
 Number     Number       Type             X           Y           Z
 ---------------------------------------------------------------------
      1          6           0        2.154849   -1.663326   -1.058858
      2          6           0        2.691399   -0.751845    0.056632
      3          6           0        1.599126    0.126540    0.628662
      4          8           0        1.123169    0.019644    1.736788
      5          8           0        1.202430    1.041410   -0.292301
      6          6           0        0.081759    1.887670    0.044116
      7          6           0       -1.138861    1.481871   -0.784694
      8          6           0       -1.620059    0.089734   -0.486807
      9          6           0       -2.814376   -0.211346    0.026062
     10          6           0       -3.290446   -1.598481    0.342972
     11          1           0        1.354622   -2.310092   -0.682546
     12          1           0        2.952612   -2.304464   -1.446944
     13          1           0        1.756278   -1.069002   -1.886004
     14          1           0        3.100036   -1.341443    0.880745
     15          1           0        3.486513   -0.111184   -0.341470
     16          1           0       -0.116673    1.803256    1.113790
     17          1           0        0.395367    2.907430   -0.197394
     18          1           0       -1.937768    2.208356   -0.587480
     19          1           0       -0.874258    1.573723   -1.847686
     20          1           0       -0.920603   -0.717562   -0.705117
     21          1           0       -3.513043    0.599236    0.242530
     22          1           0       -3.532571   -1.699516    1.409284
     23          1           0       -4.205199   -1.844543   -0.212975
     24          1           0       -2.530455   -2.347521    0.096865
 ---------------------------------------------------------------------

 SCF Done:  E(UB3LYP) =  -463.882458770     A.U. after   32 cycles

 The electronic state is 2-A.
 Alpha  occ. eigenvalues --  -19.06273 -19.00955 -10.19806 -10.12357 -10.08015
 Alpha  occ. eigenvalues --  -10.07607 -10.07066 -10.06809 -10.06716 -10.06519
 Alpha  occ. eigenvalues --   -1.00225  -0.91935  -0.71362  -0.68886  -0.65797
 Alpha  occ. eigenvalues --   -0.59795  -0.55381  -0.52167  -0.46519  -0.44807
 Alpha  occ. eigenvalues --   -0.40190  -0.38971  -0.37339  -0.35320  -0.34767
 Alpha  occ. eigenvalues --   -0.33499  -0.31935  -0.31298  -0.30738  -0.28397
 Alpha  occ. eigenvalues --   -0.27605  -0.27060  -0.26436  -0.25440  -0.24480
 Alpha  occ. eigenvalues --   -0.23824  -0.20517  -0.17759  -0.14888   0.04735
 Alpha virt. eigenvalues --    0.06425   0.06865   0.08654   0.08753   0.09380
 Alpha virt. eigenvalues --    0.10138   0.10305   0.10410   0.10842   0.11563
 Alpha virt. eigenvalues --    0.11776   0.12582   0.13899   0.14368   0.15040

  Beta  occ. eigenvalues --  -19.06259 -19.00938 -10.19795 -10.12338 -10.07994
  Beta  occ. eigenvalues --  -10.07588 -10.07046 -10.06784 -10.06709 -10.06475
  Beta  occ. eigenvalues --   -1.00200  -0.91906  -0.71325  -0.68842  -0.65751
  Beta  occ. eigenvalues --   -0.59749  -0.55307  -0.52102  -0.46468  -0.44749
  Beta  occ. eigenvalues --   -0.40144  -0.38923  -0.37293  -0.35282  -0.34726
  Beta  occ. eigenvalues --   -0.33465  -0.31879  -0.31249  -0.30688  -0.28362
  Beta  occ. eigenvalues --   -0.27557  -0.27015  -0.26383  -0.25395  -0.24442
  Beta  occ. eigenvalues --   -0.23776  -0.20459  -0.17736  -0.14838
  Beta virt. eigenvalues --    0.06966   0.07589   0.07722   0.09090   0.09440
  Beta virt. eigenvalues --    0.09921   0.10372   0.10513   0.10844   0.11364
  Beta virt. eigenvalues --    0.11962   0.12326   0.12873   0.14312   0.14631

 Mulliken charges and spin densities:
               1          2
     1  C    0.640967  -1.107045
     2  C   -0.057943  -0.210884
     3  C    0.108604  -0.147456
     4  O   -0.263289   0.016802
     5  O   -0.035045   0.063405
     6  C    0.363112  -0.647361
     7  C    0.073601  -0.635434
     8  C   -0.416861   1.017852
     9  C    0.163671  -0.365082
    10  C    0.950389  -1.641583
    11  H    0.097202   0.049061
    12  H   -1.022881   1.192278
    13  H   -0.002584   0.162350
    14  H   -0.002914   0.153733
    15  H   -0.247786   0.429123
    16  H    0.221887  -0.044004
    17  H   -0.532014   0.707671
    18  H   -0.285205   0.444771
    19  H   -0.177709   0.366730
    20  H    0.338920  -0.273468
    21  H   -0.418888   0.552971
    22  H   -0.042208   0.183944
    23  H   -0.240370   0.374676
    24  H   -0.212658   0.356953
 Sum of Mulliken charges =  -1.00000   1.00000

 Dipole moment (field-independent basis, Debye):
    X=             -1.1199    Y=              0.9908    Z=              2.0381  Tot=              2.5277
 Quadrupole moment (field-independent basis, Debye-Ang):
   XX=           -131.2437   YY=           -108.7073   ZZ=            -96.6042
   XY=              7.6668   XZ=              7.2331   YZ=              0.2445

 Summary of Natural Population Analysis:

                                       Natural Population
                Natural  -----------------------------------------------
    Atom  No    Charge         Core      Valence    Rydberg      Total
 -----------------------------------------------------------------------
      C    1   -0.28207      0.99966     2.27711    0.00530     3.28207
      C    2   -0.23390      0.99959     2.22560    0.00871     3.23390
      C    3    0.41210      0.99968     1.56280    0.02541     2.58790
      O    4   -0.30607      0.99987     3.30060    0.00560     4.30607
      O    5   -0.28808      0.99986     3.27775    0.01047     4.28808
      C    6   -0.01290      0.99955     2.00174    0.01161     3.01290
      C    7   -0.21349      0.99961     2.20402    0.00987     3.21349
      C    8   -0.09460      0.99950     2.08480    0.01030     3.09460
      C    9   -0.08500      0.99952     2.07617    0.00931     3.08500
      C   10   -0.29718      0.99965     2.29253    0.00500     3.29718
      H   11    0.09720      0.00000     0.40131    0.00149     0.40280
      H   12    0.10415      0.00000     0.39293    0.00292     0.39585
      H   13    0.10282      0.00000     0.39559    0.00160     0.39718
      H   14    0.10578      0.00000     0.39320    0.00101     0.39422
      H   15    0.11036      0.00000     0.38779    0.00185     0.38964
      H   16    0.09904      0.00000     0.39943    0.00153     0.40096
      H   17    0.09170      0.00000     0.40655    0.00175     0.40830
      H   18    0.10308      0.00000     0.39528    0.00164     0.39692
      H   19    0.10379      0.00000     0.39464    0.00157     0.39621
      H   20    0.09174      0.00000     0.40594    0.00231     0.40826
      H   21    0.08883      0.00000     0.40990    0.00127     0.41117
      H   22    0.10136      0.00000     0.39720    0.00144     0.39864
      H   23    0.10036      0.00000     0.39813    0.00151     0.39964
      H   24    0.10095      0.00000     0.39794    0.00110     0.39905
 =======================================================================
   * Total *   -0.00000      9.99649    28.87895    0.12456    39.00000

 Normal termination of Gaussian 16 at Tue Dec  8 10:27:43 2020.
