 Gaussian 16, Revision A.03,

 -----------------------------------------------------------
 # opt freq B3LYP/6-31G(d) empiricaldispersion=gd3bj scf=xqc
 -----------------------------------------------------------

 -------------------------------
 CID_113466227_JID_8641_neutraal
 -------------------------------
 Symbolic Z-matrix:
 Charge =  0 Multiplicity = 1

 SCF Done:  E(RB3LYP) =  -805.531146128     A.U. after   15 cycles
 SCF Done:  E(RB3LYP) =  -805.531686165     A.U. after   14 cycles
 SCF Done:  E(RB3LYP) =  -805.537008374     A.U. after   14 cycles
 SCF Done:  E(RB3LYP) =  -805.536148990     A.U. after   12 cycles
 SCF Done:  E(RB3LYP) =  -805.536873222     A.U. after   13 cycles
 SCF Done:  E(RB3LYP) =  -805.537765665     A.U. after   10 cycles
 SCF Done:  E(RB3LYP) =  -805.538045670     A.U. after   12 cycles
 SCF Done:  E(RB3LYP) =  -805.538255897     A.U. after   11 cycles
 SCF Done:  E(RB3LYP) =  -805.538350564     A.U. after   11 cycles
 SCF Done:  E(RB3LYP) =  -805.538350404     A.U. after   12 cycles
 SCF Done:  E(RB3LYP) =  -805.538384695     A.U. after    8 cycles
 SCF Done:  E(RB3LYP) =  -805.538385257     A.U. after    8 cycles
 SCF Done:  E(RB3LYP) =  -805.538385355     A.U. after    7 cycles
 SCF Done:  E(RB3LYP) =  -805.538385399     A.U. after    6 cycles
 SCF Done:  E(RB3LYP) =  -805.538385402     A.U. after    6 cycles
 Optimization completed.
    -- Stationary point found.
 Normal termination of Gaussian 16 at Fri Dec 11 20:50:49 2020.

 --------------------------------------------------------------------
 #N Geom=AllCheck Guess=TCheck SCRF=Check GenChk RB3LYP/6-31G(d) Freq
 --------------------------------------------------------------------

 Structure from the checkpoint file:  "JID_8641.chk"
 -------------------------------
 CID_113466227_JID_8641_neutraal
 -------------------------------
 Charge =  0 Multiplicity = 1

 SCF Done:  E(RB3LYP) =  -805.538385402     A.U. after    1 cycles

  Exact polarizability: 144.427  -7.705 186.066  22.267   4.804 149.093
 Approx polarizability: 188.176 -11.469 283.926  46.429   3.676 262.252

                      1                      2                      3
                      A                      A                      A
 Frequencies --     27.1122                35.3798                54.4879
 Red. masses --      4.1499                 4.4922                 4.2748
 Frc consts  --      0.0018                 0.0033                 0.0075
 IR Inten    --      0.0493                 1.9600                 0.2479

                      4                      5                      6
                      A                      A                      A
 Frequencies --     69.2482                73.0348                90.4183
 Red. masses --      3.8466                 4.0281                 2.6487
 Frc consts  --      0.0109                 0.0127                 0.0128
 IR Inten    --      1.2312                 2.3401                 0.2612

                      7                      8                      9
                      A                      A                      A
 Frequencies --     97.0022               112.9585               155.7051
 Red. masses --      3.4564                 5.1238                 5.6554
 Frc consts  --      0.0192                 0.0385                 0.0808
 IR Inten    --      1.3850                 1.6422                 3.5581

                     10                     11                     12
                      A                      A                      A
 Frequencies --    171.5259               184.1908               244.2256
 Red. masses --      3.7770                 3.4616                 1.6644
 Frc consts  --      0.0655                 0.0692                 0.0585
 IR Inten    --      0.4403                 2.1009                 1.5289

                     13                     14                     15
                      A                      A                      A
 Frequencies --    249.9543               263.7824               303.2105
 Red. masses --      1.0528                 1.3394                 2.6953
 Frc consts  --      0.0388                 0.0549                 0.1460
 IR Inten    --     21.4717                 0.1042                 4.7015

                     16                     17                     18
                      A                      A                      A
 Frequencies --    314.9823               336.8527               360.6615
 Red. masses --      2.7388                 3.8545                 4.0063
 Frc consts  --      0.1601                 0.2577                 0.3070
 IR Inten    --      1.1646                 1.5345                 3.6513

                     19                     20                     21
                      A                      A                      A
 Frequencies --    398.7925               421.8908               427.1568
 Red. masses --      2.8410                 3.3479                 3.2926
 Frc consts  --      0.2662                 0.3511                 0.3540
 IR Inten    --      1.7818                 3.1183                 0.8095

                     22                     23                     24
                      A                      A                      A
 Frequencies --    429.8753               443.6993               484.2210
 Red. masses --      2.3018                 3.6946                 2.6031
 Frc consts  --      0.2506                 0.4285                 0.3596
 IR Inten    --      0.1165                 2.2887                 3.1179

                     25                     26                     27
                      A                      A                      A
 Frequencies --    511.3252               531.7072               535.8957
 Red. masses --      2.7815                 2.2414                 2.8613
 Frc consts  --      0.4285                 0.3733                 0.4841
 IR Inten    --      6.4786                43.3509                28.9291

                     28                     29                     30
                      A                      A                      A
 Frequencies --    573.8804               625.2917               658.9505
 Red. masses --      3.4209                 1.8545                 6.2075
 Frc consts  --      0.6638                 0.4272                 1.5881
 IR Inten    --      1.8711                13.0689                 4.4846

                     31                     32                     33
                      A                      A                      A
 Frequencies --    678.5061               701.4883               716.8345
 Red. masses --      1.7496                 1.6309                 3.7994
 Frc consts  --      0.4746                 0.4728                 1.1503
 IR Inten    --    285.2920                83.6249                28.4200

                     34                     35                     36
                      A                      A                      A
 Frequencies --    724.8991               749.7062               794.3155
 Red. masses --      2.2878                 2.4157                 3.1657
 Frc consts  --      0.7083                 0.8000                 1.1768
 IR Inten    --     24.0700                24.7605                 1.9926

                     37                     38                     39
                      A                      A                      A
 Frequencies --    821.4943               838.6039               858.6018
 Red. masses --      1.2879                 1.8466                 2.8822
 Frc consts  --      0.5121                 0.7651                 1.2519
 IR Inten    --      0.7623                70.1020                19.6468

                     40                     41                     42
                      A                      A                      A
 Frequencies --    865.0859               909.2484               925.9391
 Red. masses --      3.1819                 2.1917                 1.9588
 Frc consts  --      1.4030                 1.0676                 0.9895
 IR Inten    --      3.9677                 0.6531                 2.4946

                     43                     44                     45
                      A                      A                      A
 Frequencies --    931.3082               933.8430               950.5269
 Red. masses --      1.3016                 1.7229                 1.2810
 Frc consts  --      0.6651                 0.8852                 0.6819
 IR Inten    --      1.8547                 1.4922                20.6220

                     46                     47                     48
                      A                      A                      A
 Frequencies --    951.2055               988.8125              1030.8610
 Red. masses --      1.3542                 1.9144                 2.5278
 Frc consts  --      0.7219                 1.1028                 1.5827
 IR Inten    --     28.4009                 5.5936                 1.7902

                     49                     50                     51
                      A                      A                      A
 Frequencies --   1034.6953              1037.0763              1048.3951
 Red. masses --      2.0495                 1.3620                 1.2058
 Frc consts  --      1.2928                 0.8631                 0.7809
 IR Inten    --      9.7083                 3.9427                20.4444

                     52                     53                     54
                      A                      A                      A
 Frequencies --   1065.7915              1087.4290              1108.8622
 Red. masses --      3.1120                 2.6849                 1.4472
 Frc consts  --      2.0828                 1.8706                 1.0484
 IR Inten    --     55.2658                33.3193                 1.5255

                     55                     56                     57
                      A                      A                      A
 Frequencies --   1121.4896              1164.8323              1166.1792
 Red. masses --      1.8267                 1.2146                 2.1521
 Frc consts  --      1.3537                 0.9710                 1.7245
 IR Inten    --     23.4903                 5.9658                 4.6143

                     58                     59                     60
                      A                      A                      A
 Frequencies --   1196.0636              1213.3512              1229.9225
 Red. masses --      2.3146                 1.1435                 1.2101
 Frc consts  --      1.9509                 0.9919                 1.0785
 IR Inten    --      8.7138                 1.4561                21.3898

                     61                     62                     63
                      A                      A                      A
 Frequencies --   1267.0594              1289.5132              1307.5962
 Red. masses --      2.5830                 1.3108                 1.5913
 Frc consts  --      2.4432                 1.2842                 1.6031
 IR Inten    --    190.1140                 7.2498                45.3839

                     64                     65                     66
                      A                      A                      A
 Frequencies --   1311.9492              1317.1134              1336.2948
 Red. masses --      1.4849                 2.5225                 1.5465
 Frc consts  --      1.5059                 2.5782                 1.6271
 IR Inten    --      1.4578                10.0636                31.7527

                     67                     68                     69
                      A                      A                      A
 Frequencies --   1341.5633              1348.9264              1380.6798
 Red. masses --      1.4533                 1.6167                 2.2303
 Frc consts  --      1.5411                 1.7332                 2.5050
 IR Inten    --     10.5449                60.4730                16.7778

                     70                     71                     72
                      A                      A                      A
 Frequencies --   1383.4055              1387.9707              1422.4722
 Red. masses --      1.3461                 1.3577                 1.3055
 Frc consts  --      1.5179                 1.5410                 1.5564
 IR Inten    --      2.3622                 9.5079                 5.0376

                     73                     74                     75
                      A                      A                      A
 Frequencies --   1434.7682              1444.8871              1474.7242
 Red. masses --      2.0661                 1.3202                 1.1725
 Frc consts  --      2.5059                 1.6240                 1.5024
 IR Inten    --     99.4682                15.5366                 2.9433

                     76                     77                     78
                      A                      A                      A
 Frequencies --   1487.8889              1491.2522              1497.3613
 Red. masses --      1.1655                 2.6555                 1.5632
 Frc consts  --      1.5202                 3.4794                 2.0650
 IR Inten    --      6.5458                 1.6309               106.9572

                     79                     80                     81
                      A                      A                      A
 Frequencies --   1510.6493              1525.7670              1532.7842
 Red. masses --      1.1404                 1.1201                 1.0613
 Frc consts  --      1.5333                 1.5363                 1.4691
 IR Inten    --      3.9937                 8.0763                 6.1748

                     82                     83                     84
                      A                      A                      A
 Frequencies --   1546.8475              1568.9229              1644.3384
 Red. masses --      1.0964                 2.5569                 6.2201
 Frc consts  --      1.5456                 3.7082                 9.9089
 IR Inten    --     12.6305               230.1047                 2.6120

                     85                     86                     87
                      A                      A                      A
 Frequencies --   1680.8304              1697.6779              1727.6794
 Red. masses --      2.5137                 1.5190                 4.3598
 Frc consts  --      4.1842                 2.5793                 7.6674
 IR Inten    --     11.9561                52.0017                 5.4080

                     88                     89                     90
                      A                      A                      A
 Frequencies --   1761.5743              3045.4384              3057.7378
 Red. masses --      7.5680                 1.0608                 1.0678
 Frc consts  --     13.8367                 5.7966                 5.8822
 IR Inten    --    344.0989                16.3809                 5.6107

                     91                     92                     93
                      A                      A                      A
 Frequencies --   3058.7746              3077.9494              3079.1787
 Red. masses --      1.0424                 1.0735                 1.0742
 Frc consts  --      5.7462                 5.9922                 6.0007
 IR Inten    --     22.9258                19.8612                38.9773

                     94                     95                     96
                      A                      A                      A
 Frequencies --   3094.5984              3130.2706              3132.6442
 Red. masses --      1.1019                 1.0978                 1.0980
 Frc consts  --      6.2175                 6.3379                 6.3484
 IR Inten    --     18.2112                15.0991                27.2941

                     97                     98                     99
                      A                      A                      A
 Frequencies --   3135.3038              3155.1802              3161.0107
 Red. masses --      1.1000                 1.0619                 1.0958
 Frc consts  --      6.3709                 6.2286                 6.4512
 IR Inten    --     26.3317                12.3880                 2.5980

                    100                    101                    102
                      A                      A                      A
 Frequencies --   3165.2278              3175.8884              3176.8381
 Red. masses --      1.0922                 1.0890                 1.0892
 Frc consts  --      6.4472                 6.4714                 6.4769
 IR Inten    --     12.2156                18.4460                19.6047

                    103                    104                    105
                      A                      A                      A
 Frequencies --   3211.0005              3239.2825              3242.2463
 Red. masses --      1.0928                 1.1158                 1.0917
 Frc consts  --      6.6384                 6.8979                 6.7616
 IR Inten    --      8.8116                15.8495                 2.5785

                    106                    107                    108
                      A                      A                      A
 Frequencies --   3532.4671              3557.9175              3628.5183
 Red. masses --      1.0483                 1.0749                 1.0967
 Frc consts  --      7.7074                 8.0173                 8.5077
 IR Inten    --      6.2691                45.3788                 5.2261

 - Thermochemistry -
 -------------------
 Temperature   298.150 Kelvin.  Pressure   1.00000 Atm.
 Atom     1 has atomic number  6 and mass  12.00000

 Molecular mass:   248.15248 amu.
 Principal axes and moments of inertia in atomic units:
                           1         2         3
     Eigenvalues --  3605.699035765.163067689.75531
           X            0.99999   0.00362  -0.00290
           Y           -0.00359   0.99992   0.01174
           Z            0.00294  -0.01173   0.99993
 This molecule is an asymmetric top.
 Rotational symmetry number  1.
 Warning -- assumption of classical behavior for rotation
           may cause significant error
 Rotational temperatures (Kelvin)      0.02402     0.01502     0.01126
 Rotational constants (GHZ):           0.50052     0.31304     0.23469
 Zero-point vibrational energy     856602.5 (Joules/Mol)
                                  204.73292 (Kcal/Mol)
 Warning -- explicit consideration of  28 degrees of freedom as
           vibrations may cause significant error
 Vibrational temperatures:     39.01    50.90    78.40    99.63   105.08
          (Kelvin)            130.09   139.56   162.52   224.02   246.79
                              265.01   351.39   359.63   379.52   436.25
                              453.19   484.66   518.91   573.77   607.01
                              614.58   618.49   638.38   696.69   735.68
                              765.01   771.03   825.69   899.66   948.08
                              976.22  1009.29  1031.37  1042.97  1078.66
                             1142.84  1181.95  1206.56  1235.34  1244.67
                             1308.21  1332.22  1339.94  1343.59  1367.60
                             1368.57  1422.68  1483.18  1488.70  1492.12
                             1508.41  1533.44  1564.57  1595.41  1613.57
                             1675.93  1677.87  1720.87  1745.74  1769.58
                             1823.02  1855.32  1881.34  1887.60  1895.03
                             1922.63  1930.21  1940.80  1986.49  1990.41
                             1996.98  2046.62  2064.31  2078.87  2121.80
                             2140.74  2145.58  2154.37  2173.49  2195.24
                             2205.33  2225.57  2257.33  2365.84  2418.34
                             2442.58  2485.75  2534.51  4381.71  4399.40
                             4400.89  4428.48  4430.25  4452.44  4503.76
                             4507.18  4511.00  4539.60  4547.99  4554.06
                             4569.40  4570.76  4619.91  4660.61  4664.87
                             5082.43  5119.05  5220.63

 Zero-point correction=                           0.326263 (Hartree/Particle)
 Thermal correction to Energy=                    0.344715
 Thermal correction to Enthalpy=                  0.345659
 Thermal correction to Gibbs Free Energy=         0.278781
 Sum of electronic and zero-point Energies=           -805.212123
 Sum of electronic and thermal Energies=              -805.193671
 Sum of electronic and thermal Enthalpies=            -805.192726
 Sum of electronic and thermal Free Energies=         -805.259604

                     E (Thermal)             CV                S
                      KCal/Mol        Cal/Mol-Kelvin    Cal/Mol-Kelvin
 Total                  216.312             70.210            140.757
 Electronic               0.000              0.000              0.000
 Translational            0.889              2.981             42.427
 Rotational               0.889              2.981             33.435
 Vibrational            214.534             64.248             64.894
 Vibration     1          0.593              1.984              6.030
 Vibration     2          0.594              1.982              5.502
 Vibration     3          0.596              1.976              4.647
 Vibration     4          0.598              1.969              4.175
 Vibration     5          0.599              1.967              4.070
 Vibration     6          0.602              1.956              3.651
 Vibration     7          0.603              1.951              3.514
 Vibration     8          0.607              1.939              3.217
 Vibration     9          0.620              1.896              2.601
 Vibration    10          0.626              1.878              2.419
 Vibration    11          0.631              1.861              2.286
 Vibration    12          0.660              1.772              1.772
 Vibration    13          0.663              1.763              1.731
 Vibration    14          0.670              1.739              1.637
 Vibration    15          0.695              1.668              1.399
 Vibration    16          0.702              1.645              1.336
 Vibration    17          0.718              1.602              1.227
 Vibration    18          0.735              1.553              1.119
 Vibration    19          0.765              1.473              0.967
 Vibration    20          0.784              1.423              0.886
 Vibration    21          0.789              1.411              0.868
 Vibration    22          0.791              1.405              0.859
 Vibration    23          0.803              1.375              0.815
 Vibration    24          0.840              1.285              0.699
 Vibration    25          0.866              1.225              0.630
 Vibration    26          0.887              1.180              0.583
 Vibration    27          0.891              1.171              0.574
 Vibration    28          0.930              1.088              0.497

 Optimization completed.
    -- Stationary point found.
 Normal termination of Gaussian 16 at Fri Dec 11 21:08:32 2020.

 ----------------------------------------------------------------------
 # B3LYP/6-311++G(d,p) empiricaldispersion=gd3bj scf=xqc pop=npa geom=c
 heck
 ----------------------------------------------------------------------

 ---------------------------------------
 CID_113466227_JID_8641_Energie_neutraal
 ---------------------------------------
 Structure from the checkpoint file:  "JID_8641.chk"
 Charge =  0 Multiplicity = 1

 SCF Done:  E(RB3LYP) =  -805.774688249     A.U. after   15 cycles
 Normal termination of Gaussian 16 at Fri Dec 11 21:15:25 2020.

 ----------------------------------------------------------------------
 # B3LYP/6-311++G(d,p) empiricaldispersion=gd3bj scf=xqc pop=npa geom=c
 heck
 ----------------------------------------------------------------------

 -------------------------------------
 CID_113466227_JID_8641_Energie_kation
 -------------------------------------
 Structure from the checkpoint file:  "JID_8641.chk"
 Charge =  1 Multiplicity = 2

 SCF Done:  E(UB3LYP) =  -805.510423902     A.U. after   22 cycles
 Normal termination of Gaussian 16 at Fri Dec 11 21:29:07 2020.
 Gaussian 16:  ES64L-G16RevA.03 25-Dec-2016

 ----------------------------------------------------------------------
 # B3LYP/6-311++G(d,p) empiricaldispersion=gd3bj scf=xqc pop=npa geom=c
 heck
 ----------------------------------------------------------------------

 ------------------------------------
 CID_113466227_JID_8641_Energie_anion
 ------------------------------------
 Structure from the checkpoint file:  "JID_8641.chk"
 Charge = -1 Multiplicity = 2

                         Standard orientation:
 ---------------------------------------------------------------------
 Center     Atomic      Atomic             Coordinates (Angstroms)
 Number     Number       Type             X           Y           Z
 ---------------------------------------------------------------------
      1          6           0        0.870386    0.994149   -1.366623
      2          6           0        1.978544   -0.022269   -1.065633
      3          6           0        3.396819    0.594129   -1.146445
      4          6           0        3.637269    1.670528   -0.123918
      5          6           0        4.426032    1.531295    0.943776
      6          7           0        1.824840   -0.633280    0.252965
      7          6           0        1.034369   -1.666259    0.652737
      8          8           0        0.932349   -1.962644    1.842925
      9          6           0        0.329591   -2.507196   -0.409229
     10          6           0       -1.088953   -2.933525    0.004468
     11          8           0       -2.108079   -2.108447   -0.557223
     12          6           0       -2.178830   -0.786686   -0.186947
     13          6           0       -1.705825   -0.267100    1.021160
     14          6           0       -1.831784    1.095827    1.288723
     15          6           0       -2.441294    1.966235    0.376759
     16          6           0       -2.934339    1.427261   -0.822229
     17          6           0       -2.801707    0.071592   -1.100146
     18          7           0       -2.497083    3.350346    0.622501
     19          1           0        1.038216    1.470399   -2.340066
     20          1           0        0.832292    1.773823   -0.600242
     21          1           0       -0.108819    0.511095   -1.382416
     22          1           0        1.941895   -0.821271   -1.812824
     23          1           0        4.131666   -0.208512   -1.016586
     24          1           0        3.526038    1.002464   -2.157161
     25          1           0        3.100786    2.607861   -0.267771
     26          1           0        4.556723    2.329770    1.668876
     27          1           0        4.982804    0.613669    1.123422
     28          1           0        2.226175   -0.115414    1.028583
     29          1           0        0.280723   -2.026869   -1.389129
     30          1           0        0.941294   -3.411532   -0.522605
     31          1           0       -1.313369   -3.924290   -0.395714
     32          1           0       -1.155054   -2.982080    1.096741
     33          1           0       -1.215647   -0.901760    1.748391
     34          1           0       -1.440663    1.487934    2.224784
     35          1           0       -3.412515    2.080638   -1.548428
     36          1           0       -3.174918   -0.343944   -2.030944
     37          1           0       -3.265700    3.814287    0.151833
     38          1           0       -2.502048    3.585116    1.608676
 ---------------------------------------------------------------------

 SCF Done:  E(UB3LYP) =  -805.764167613     A.U. after   33 cycles
 SCF Done:  E(UB3LYP) =  -805.764167613     a.u. after    1 cycles

 The electronic state is 2-A.
 Alpha  occ. eigenvalues --  -19.05440 -18.99496 -14.24238 -14.21679 -10.18419
 Alpha  occ. eigenvalues --  -10.14010 -10.13084 -10.12717 -10.11487 -10.09525
 Alpha  occ. eigenvalues --  -10.09160 -10.08769 -10.08141 -10.07849 -10.07713
 Alpha  occ. eigenvalues --  -10.07698 -10.07629 -10.06258  -0.96996  -0.94667
 Alpha  occ. eigenvalues --   -0.83579  -0.82006  -0.74619  -0.71888  -0.69242
 Alpha  occ. eigenvalues --   -0.66628  -0.65583  -0.63318  -0.59738  -0.57407
 Alpha  occ. eigenvalues --   -0.53386  -0.52683  -0.50121  -0.48120  -0.46792
 Alpha  occ. eigenvalues --   -0.44323  -0.42278  -0.41553  -0.40816  -0.39512
 Alpha  occ. eigenvalues --   -0.39006  -0.37257  -0.36284  -0.35638  -0.35388
 Alpha  occ. eigenvalues --   -0.33617  -0.33271  -0.32682  -0.32300  -0.31401
 Alpha  occ. eigenvalues --   -0.30811  -0.30259  -0.29761  -0.28706  -0.28233
 Alpha  occ. eigenvalues --   -0.27582  -0.26126  -0.25655  -0.25253  -0.24396
 Alpha  occ. eigenvalues --   -0.22886  -0.19007  -0.18555  -0.17036  -0.16315
 Alpha  occ. eigenvalues --   -0.16282  -0.10295   0.03965
 Alpha virt. eigenvalues --    0.05299   0.06411   0.06985   0.07449   0.07658
 Alpha virt. eigenvalues --    0.07962   0.08139   0.08829   0.09113   0.09785
 Alpha virt. eigenvalues --    0.10138   0.10420   0.10858   0.11247   0.11636

  Beta  occ. eigenvalues --  -19.05438 -18.99494 -14.24237 -14.21620 -10.18418
  Beta  occ. eigenvalues --  -10.14007 -10.13084 -10.12701 -10.11485 -10.09508
  Beta  occ. eigenvalues --  -10.09119 -10.08751 -10.08103 -10.07845 -10.07696
  Beta  occ. eigenvalues --  -10.07694 -10.07620 -10.06237  -0.96991  -0.94663
  Beta  occ. eigenvalues --   -0.83568  -0.81940  -0.74591  -0.71818  -0.69219
  Beta  occ. eigenvalues --   -0.66575  -0.65566  -0.63281  -0.59681  -0.57380
  Beta  occ. eigenvalues --   -0.53332  -0.52655  -0.50087  -0.48071  -0.46715
  Beta  occ. eigenvalues --   -0.44299  -0.42247  -0.41502  -0.40776  -0.39482
  Beta  occ. eigenvalues --   -0.38978  -0.37218  -0.36244  -0.35606  -0.35354
  Beta  occ. eigenvalues --   -0.33599  -0.33233  -0.32652  -0.32271  -0.31369
  Beta  occ. eigenvalues --   -0.30783  -0.30231  -0.29733  -0.28667  -0.28202
  Beta  occ. eigenvalues --   -0.27562  -0.26106  -0.25626  -0.25229  -0.24355
  Beta  occ. eigenvalues --   -0.22873  -0.18962  -0.18355  -0.17029  -0.16302
  Beta  occ. eigenvalues --   -0.16259  -0.10267
  Beta virt. eigenvalues --    0.06169   0.06554   0.06805   0.07192   0.07531
  Beta virt. eigenvalues --    0.08086   0.08473   0.08520   0.09148   0.09306
  Beta virt. eigenvalues --    0.09932   0.10295   0.10767   0.11072   0.11418

 Mulliken charges and spin densities:
               1          2
     1  C   -0.141440  -0.356480
     2  C   -0.121494   0.078885
     3  C    0.788798  -1.442275
     4  C   -0.282165   0.565591
     5  C   -0.223445  -0.310846
     6  N    0.032488  -0.028256
     7  C   -0.190813  -0.166237
     8  O   -0.304376   0.000522
     9  C    0.405786  -0.124977
    10  C   -0.451078  -0.090673
    11  O   -0.065456   0.003152
    12  C   -0.332193  -0.527237
    13  C    0.564658  -0.092823
    14  C   -0.446356   0.616385
    15  C    0.575390  -1.171927
    16  C    0.613720  -0.669482
    17  C   -0.596782   0.423295
    18  N   -0.291181   0.076603
    19  H   -0.244444   0.404573
    20  H    0.111285  -0.007840
    21  H    0.452441  -0.268929
    22  H   -0.501902   0.696559
    23  H   -0.198509   0.377865
    24  H   -0.160952   0.331148
    25  H   -0.070206   0.250235
    26  H    0.068019   0.048895
    27  H    0.013957   0.104240
    28  H    0.369452  -0.034891
    29  H    0.026831   0.164140
    30  H   -0.065559   0.268609
    31  H    0.097528   0.065002
    32  H    0.172898   0.023855
    33  H    0.262823  -0.059457
    34  H   -0.069106   0.226899
    35  H   -0.369493   0.541003
    36  H    0.027015   0.145234
    37  H   -0.245320   0.486277
    38  H   -0.210817   0.453363
 Sum of Mulliken charges =  -1.00000   1.00000

 Dipole moment (field-independent basis, Debye):
    X=              0.6794    Y=             -4.5708    Z=              1.5267  Tot=              4.8667
 Quadrupole moment (field-independent basis, Debye-Ang):
   XX=           -180.9898   YY=           -168.7268   ZZ=           -151.2270
   XY=             18.8657   XZ=              8.6667   YZ=              0.5802

 Summary of Natural Population Analysis:

                                       Natural Population
                Natural  -----------------------------------------------
    Atom  No    Charge         Core      Valence    Rydberg      Total
 -----------------------------------------------------------------------
      C    1   -0.29173      0.99963     2.28611    0.00599     3.29173
      C    2   -0.00808      0.99959     1.99604    0.01245     3.00808
      C    3   -0.20947      0.99959     2.19826    0.01162     3.20947
      C    4   -0.08373      0.99956     2.07363    0.01054     3.08373
      C    5   -0.19090      0.99956     2.18462    0.00672     3.19090
      N    6   -0.31861      0.99965     2.80892    0.01005     3.81861
      C    7    0.34692      0.99967     1.63011    0.02330     2.65308
      O    8   -0.33846      0.99988     3.33326    0.00532     4.33846
      C    9   -0.25207      0.99958     2.24479    0.00771     3.25207
      C   10   -0.00910      0.99957     1.99730    0.01223     3.00910
      O   11   -0.28312      0.99986     3.27453    0.00873     4.28312
      C   12    0.13261      0.99936     1.85390    0.01413     2.86739
      C   13   -0.13425      0.99951     2.12661    0.00813     3.13425
      C   14   -0.11477      0.99952     2.10547    0.00978     3.11477
      C   15    0.07309      0.99948     1.91563    0.01180     2.92691
      C   16   -0.11569      0.99952     2.10621    0.00996     3.11569
      C   17   -0.11347      0.99952     2.10379    0.01015     3.11347
      N   18   -0.39628      0.99972     2.88596    0.01059     3.89628
      H   19    0.10027      0.00000     0.39856    0.00117     0.39973
      H   20    0.10251      0.00000     0.39607    0.00142     0.39749
      H   21    0.10799      0.00000     0.38991    0.00210     0.39201
      H   22    0.09994      0.00000     0.39694    0.00313     0.40006
      H   23    0.10320      0.00000     0.39537    0.00143     0.39680
      H   24    0.10996      0.00000     0.38812    0.00192     0.39004
      H   25    0.09570      0.00000     0.40322    0.00108     0.40430
      H   26    0.09363      0.00000     0.40551    0.00086     0.40637
      H   27    0.09070      0.00000     0.40814    0.00116     0.40930
      H   28    0.19841      0.00000     0.29905    0.00254     0.30159
      H   29    0.11131      0.00000     0.38714    0.00156     0.38869
      H   30    0.11565      0.00000     0.38335    0.00100     0.38435
      H   31    0.09103      0.00000     0.40803    0.00094     0.40897
      H   32    0.09374      0.00000     0.40498    0.00128     0.40626
      H   33    0.11484      0.00000     0.38343    0.00173     0.38516
      H   34    0.10017      0.00000     0.39888    0.00095     0.39983
      H   35    0.10178      0.00000     0.39711    0.00111     0.39822
      H   36    0.10508      0.00000     0.39383    0.00109     0.39492
      H   37    0.18662      0.00000     0.30789    0.00549     0.31338
      H   38    0.18459      0.00000     0.31204    0.00337     0.31541
 =======================================================================
   * Total *   -0.00000     17.99277    48.78268    0.22455    67.00000

 Normal termination of Gaussian 16 at Fri Dec 11 21:49:53 2020.
