 Gaussian 16, Revision A.03,

 -----------------------------------------------------------
 # opt freq B3LYP/6-31G(d) empiricaldispersion=gd3bj scf=xqc
 -----------------------------------------------------------

 ---------------------------
 CID_84577_JID_3853_neutraal
 ---------------------------
 Symbolic Z-matrix:
 Charge =  0 Multiplicity = 1

 SCF Done:  E(RB3LYP) =  -505.084487569     A.U. after   14 cycles
 SCF Done:  E(RB3LYP) =  -505.085984366     A.U. after   11 cycles
 SCF Done:  E(RB3LYP) =  -505.086060835     A.U. after    9 cycles
 SCF Done:  E(RB3LYP) =  -505.086066159     A.U. after    8 cycles
 SCF Done:  E(RB3LYP) =  -505.086066711     A.U. after    7 cycles
 SCF Done:  E(RB3LYP) =  -505.086067400     A.U. after    8 cycles
 SCF Done:  E(RB3LYP) =  -505.086068373     A.U. after    8 cycles
 SCF Done:  E(RB3LYP) =  -505.086070461     A.U. after    9 cycles
 SCF Done:  E(RB3LYP) =  -505.086072394     A.U. after    9 cycles
 SCF Done:  E(RB3LYP) =  -505.086075691     A.U. after    9 cycles
 SCF Done:  E(RB3LYP) =  -505.086082297     A.U. after    9 cycles
 SCF Done:  E(RB3LYP) =  -505.086083984     A.U. after    8 cycles
 SCF Done:  E(RB3LYP) =  -505.086084151     A.U. after    7 cycles
 SCF Done:  E(RB3LYP) =  -505.086084237     A.U. after    6 cycles
 SCF Done:  E(RB3LYP) =  -505.086084310     A.U. after    6 cycles
 Optimization completed.
    -- Stationary point found.
 Normal termination of Gaussian 16 at Sun Dec 13 15:58:33 2020.

 --------------------------------------------------------------------
 #N Geom=AllCheck Guess=TCheck SCRF=Check GenChk RB3LYP/6-31G(d) Freq
 --------------------------------------------------------------------

 Structure from the checkpoint file:  "JID_3853.chk"
 ---------------------------
 CID_84577_JID_3853_neutraal
 ---------------------------
 Charge =  0 Multiplicity = 1

 SCF Done:  E(RB3LYP) =  -505.086084310     A.U. after    1 cycles

  Exact polarizability: 180.140  -1.977 142.628  -0.216   0.080  77.140
 Approx polarizability: 271.319  -4.843 226.271  -0.107   0.143 112.753

                      1                      2                      3
                      A                      A                      A
 Frequencies --     21.2783                83.5324               115.9338
 Red. masses --      1.0278                 3.1408                 2.5114
 Frc consts  --      0.0003                 0.0129                 0.0199
 IR Inten    --      0.2017                 0.5070                 0.0047

                      4                      5                      6
                      A                      A                      A
 Frequencies --    151.5748               173.2148               188.4832
 Red. masses --      3.2039                 1.0850                 2.8702
 Frc consts  --      0.0434                 0.0192                 0.0601
 IR Inten    --      1.4816                 0.1543                 0.1632

                      7                      8                      9
                      A                      A                      A
 Frequencies --    204.9037               243.1528               251.9966
 Red. masses --      2.9869                 2.1153                 1.0327
 Frc consts  --      0.0739                 0.0737                 0.0386
 IR Inten    --      0.8463                 0.2864                 0.0008

                     10                     11                     12
                      A                      A                      A
 Frequencies --    289.3523               302.6829               349.0446
 Red. masses --      1.1842                 2.4525                 2.5903
 Frc consts  --      0.0584                 0.1324                 0.1859
 IR Inten    --      0.0434                 0.2906                 0.2324

                     13                     14                     15
                      A                      A                      A
 Frequencies --    367.0844               396.6885               442.4748
 Red. masses --      3.1694                 3.6807                 2.7716
 Frc consts  --      0.2516                 0.3413                 0.3197
 IR Inten    --      0.1251                 1.1176                 1.1981

                     16                     17                     18
                      A                      A                      A
 Frequencies --    487.3957               533.7604               552.3597
 Red. masses --      4.0765                 3.0323                 4.5676
 Frc consts  --      0.5706                 0.5090                 0.8211
 IR Inten    --      0.8982                 0.3652                 1.8738

                     19                     20                     21
                      A                      A                      A
 Frequencies --    576.7815               592.5906               628.3491
 Red. masses --      2.7891                 3.9418                 3.3889
 Frc consts  --      0.5467                 0.8155                 0.7883
 IR Inten    --      4.3179                 1.0946                 1.5767

                     22                     23                     24
                      A                      A                      A
 Frequencies --    686.6384               764.4022               782.3756
 Red. masses --      3.9872                 5.4914                 3.8790
 Frc consts  --      1.1076                 1.8905                 1.3990
 IR Inten    --      0.3734                 1.4347                 0.0144

                     25                     26                     27
                      A                      A                      A
 Frequencies --    827.2042               843.6904               887.7335
 Red. masses --      1.3042                 1.4209                 3.0925
 Frc consts  --      0.5258                 0.5959                 1.4359
 IR Inten    --     31.8499                 1.5901                 2.4563

                     28                     29                     30
                      A                      A                      A
 Frequencies --    898.0113               932.3847               944.0113
 Red. masses --      1.4098                 2.5396                 1.3113
 Frc consts  --      0.6699                 1.3008                 0.6885
 IR Inten    --      5.9552                 3.6514                 0.1094

                     31                     32                     33
                      A                      A                      A
 Frequencies --    960.4514               964.0228              1021.2768
 Red. masses --      1.4819                 2.0909                 1.6110
 Frc consts  --      0.8054                 1.1448                 0.9900
 IR Inten    --      0.3646                 2.9248                 5.9903

                     34                     35                     36
                      A                      A                      A
 Frequencies --   1028.7526              1043.1516              1074.5670
 Red. masses --      1.4318                 1.3053                 1.5772
 Frc consts  --      0.8928                 0.8369                 1.0730
 IR Inten    --      0.4419                 0.2235                 5.0868

                     37                     38                     39
                      A                      A                      A
 Frequencies --   1080.2897              1080.9466              1145.4158
 Red. masses --      2.3099                 1.5501                 1.9433
 Frc consts  --      1.5882                 1.0671                 1.5022
 IR Inten    --      2.5491                 0.9915                 4.9369

                     40                     41                     42
                      A                      A                      A
 Frequencies --   1170.0708              1170.8633              1185.5693
 Red. masses --      1.6713                 3.7229                 1.7795
 Frc consts  --      1.3481                 3.0071                 1.4737
 IR Inten    --      5.2112                 3.1657                 3.9577

                     43                     44                     45
                      A                      A                      A
 Frequencies --   1231.9530              1247.5423              1313.0900
 Red. masses --      2.3396                 2.1501                 2.5503
 Frc consts  --      2.0921                 1.9716                 2.5908
 IR Inten    --      0.1262                 0.0417                 1.1799

                     46                     47                     48
                      A                      A                      A
 Frequencies --   1320.4662              1354.7961              1389.7534
 Red. masses --      1.7543                 3.1811                 4.6229
 Frc consts  --      1.8022                 3.4402                 5.2606
 IR Inten    --      1.2594                 3.4371                10.5235

                     49                     50                     51
                      A                      A                      A
 Frequencies --   1419.7246              1440.8897              1441.9780
 Red. masses --      1.2098                 1.2601                 1.2535
 Frc consts  --      1.4367                 1.5415                 1.5357
 IR Inten    --      1.9715                 2.2048                 0.1415

                     52                     53                     54
                      A                      A                      A
 Frequencies --   1442.6930              1475.5580              1508.5466
 Red. masses --      1.2519                 3.4176                 1.0439
 Frc consts  --      1.5352                 4.3841                 1.3997
 IR Inten    --      0.5448                 0.0350                 6.8065

                     55                     56                     57
                      A                      A                      A
 Frequencies --   1512.9312              1516.6281              1518.0130
 Red. masses --      1.0465                 1.0782                 1.0493
 Frc consts  --      1.4114                 1.4612                 1.4247
 IR Inten    --      0.0058                 5.3877                 3.9494

                     58                     59                     60
                      A                      A                      A
 Frequencies --   1519.2753              1521.3098              1527.8232
 Red. masses --      2.0116                 1.0925                 1.1628
 Frc consts  --      2.7357                 1.4897                 1.5992
 IR Inten    --     14.6361                 2.3227                 8.3456

                     61                     62                     63
                      A                      A                      A
 Frequencies --   1533.3016              1536.0179              1641.0430
 Red. masses --      1.0899                 1.1437                 5.8144
 Frc consts  --      1.5097                 1.5899                 9.2256
 IR Inten    --      4.1915                 6.8988                 3.5269

                     64                     65                     66
                      A                      A                      A
 Frequencies --   1672.5278              1691.5929              3035.8767
 Red. masses --      6.4568                 7.2832                 1.0381
 Frc consts  --     10.6417                12.2791                 5.6370
 IR Inten    --     11.5580                 5.1887                29.7431

                     67                     68                     69
                      A                      A                      A
 Frequencies --   3040.6646              3043.0271              3047.5932
 Red. masses --      1.0390                 1.0346                 1.0349
 Frc consts  --      5.6596                 5.6444                 5.6633
 IR Inten    --     44.7090                22.6826                50.0234

                     70                     71                     72
                      A                      A                      A
 Frequencies --   3082.9899              3093.7765              3106.9398
 Red. masses --      1.1000                 1.0986                 1.1030
 Frc consts  --      6.1603                 6.1951                 6.2735
 IR Inten    --     19.7030                23.4884                 0.0008

                     73                     74                     75
                      A                      A                      A
 Frequencies --   3112.3870              3123.9487              3127.9869
 Red. masses --      1.1023                 1.1013                 1.1000
 Frc consts  --      6.2914                 6.3324                 6.3415
 IR Inten    --     49.9892                18.4556                20.7822

                     76                     77                     78
                      A                      A                      A
 Frequencies --   3128.5396              3129.8856              3172.6010
 Red. masses --      1.1023                 1.1022                 1.0867
 Frc consts  --      6.3569                 6.3619                 6.4446
 IR Inten    --     20.8814                32.0898                12.1058

                     79                     80                     81
                      A                      A                      A
 Frequencies --   3173.7377              3190.1377              3202.1482
 Red. masses --      1.0898                 1.0940                 1.0937
 Frc consts  --      6.4674                 6.5599                 6.6076
 IR Inten    --     19.4271                28.2994                12.5918

 - Thermochemistry -
 -------------------
 Temperature   298.150 Kelvin.  Pressure   1.00000 Atm.
 Atom     1 has atomic number  6 and mass  12.00000

 Molecular mass:   172.12520 amu.
 Principal axes and moments of inertia in atomic units:
                           1         2         3
     Eigenvalues --  1467.392502752.002353807.92784
           X            0.99979  -0.02073  -0.00019
           Y            0.02073   0.99979  -0.00003
           Z            0.00019   0.00003   1.00000
 This molecule is an asymmetric top.
 Rotational symmetry number  1.
 Warning -- assumption of classical behavior for rotation
           may cause significant error
 Rotational temperatures (Kelvin)      0.05903     0.03147     0.02275
 Rotational constants (GHZ):           1.22990     0.65579     0.47394
 Zero-point vibrational energy     664131.8 (Joules/Mol)
                                  158.73130 (Kcal/Mol)
 Warning -- explicit consideration of  20 degrees of freedom as
           vibrations may cause significant error
 Vibrational temperatures:     30.61   120.18   166.80   218.08   249.22
          (Kelvin)            271.19   294.81   349.84   362.57   416.31
                              435.49   502.20   528.15   570.75   636.62
                              701.25   767.96   794.72   829.86   852.61
                              904.05   987.92  1099.80  1125.66  1190.16
                             1213.88  1277.25  1292.04  1341.49  1358.22
                             1381.88  1387.01  1469.39  1480.15  1500.86
                             1546.06  1554.30  1555.24  1648.00  1683.47
                             1684.61  1705.77  1772.51  1794.94  1889.24
                             1899.86  1949.25  1999.55  2042.67  2073.12
                             2074.68  2075.71  2123.00  2170.46  2176.77
                             2182.09  2184.08  2185.90  2188.83  2198.20
                             2206.08  2209.99  2361.09  2406.39  2433.82
                             4367.95  4374.84  4378.24  4384.81  4435.73
                             4451.25  4470.19  4478.03  4494.67  4500.48
                             4501.27  4503.21  4564.67  4566.30  4589.90
                             4607.18

 Zero-point correction=                           0.252954 (Hartree/Particle)
 Thermal correction to Energy=                    0.265873
 Thermal correction to Enthalpy=                  0.266817
 Thermal correction to Gibbs Free Energy=         0.213701
 Sum of electronic and zero-point Energies=           -504.833130
 Sum of electronic and thermal Energies=              -504.820211
 Sum of electronic and thermal Enthalpies=            -504.819267
 Sum of electronic and thermal Free Energies=         -504.872383

                     E (Thermal)             CV                S
                      KCal/Mol        Cal/Mol-Kelvin    Cal/Mol-Kelvin
 Total                  166.838             49.979            111.792
 Electronic               0.000              0.000              0.000
 Translational            0.889              2.981             41.337
 Rotational               0.889              2.981             31.109
 Vibrational            165.060             44.017             39.346
 Vibration     1          0.593              1.985              6.511
 Vibration     2          0.600              1.961              3.806
 Vibration     3          0.608              1.936              3.167
 Vibration     4          0.619              1.901              2.652
 Vibration     5          0.627              1.875              2.400
 Vibration     6          0.633              1.856              2.243
 Vibration     7          0.640              1.833              2.089
 Vibration     8          0.659              1.774              1.780
 Vibration     9          0.664              1.759              1.717
 Vibration    10          0.686              1.694              1.478
 Vibration    11          0.694              1.669              1.402
 Vibration    12          0.726              1.577              1.170
 Vibration    13          0.740              1.540              1.092
 Vibration    14          0.763              1.477              0.975
 Vibration    15          0.802              1.377              0.819
 Vibration    16          0.843              1.278              0.690
 Vibration    17          0.889              1.175              0.579
 Vibration    18          0.908              1.135              0.539
 Vibration    19          0.933              1.081              0.491
 Vibration    20          0.950              1.048              0.463

 Optimization completed.
    -- Stationary point found.
 Normal termination of Gaussian 16 at Sun Dec 13 16:05:45 2020.

 ----------------------------------------------------------------------
 # B3LYP/6-311++G(d,p) empiricaldispersion=gd3bj scf=xqc pop=npa geom=c
 heck
 ----------------------------------------------------------------------

 -----------------------------------
 CID_84577_JID_3853_Energie_neutraal
 -----------------------------------
 Structure from the checkpoint file:  "JID_3853.chk"
 Charge =  0 Multiplicity = 1

 SCF Done:  E(RB3LYP) =  -505.214017212     A.U. after   13 cycles
 Normal termination of Gaussian 16 at Sun Dec 13 16:08:13 2020.

 ----------------------------------------------------------------------
 # B3LYP/6-311++G(d,p) empiricaldispersion=gd3bj scf=xqc pop=npa geom=c
 heck
 ----------------------------------------------------------------------

 ---------------------------------
 CID_84577_JID_3853_Energie_kation
 ---------------------------------
 Structure from the checkpoint file:  "JID_3853.chk"
 Charge =  1 Multiplicity = 2

 SCF Done:  E(UB3LYP) =  -504.935594612     A.U. after   21 cycles
 Normal termination of Gaussian 16 at Sun Dec 13 16:13:23 2020.
 Gaussian 16:  ES64L-G16RevA.03 25-Dec-2016

 ----------------------------------------------------------------------
 # B3LYP/6-311++G(d,p) empiricaldispersion=gd3bj scf=xqc pop=npa geom=c
 heck
 ----------------------------------------------------------------------

 --------------------------------
 CID_84577_JID_3853_Energie_anion
 --------------------------------
 Structure from the checkpoint file:  "JID_3853.chk"
 Charge = -1 Multiplicity = 2

                         Standard orientation:
 ---------------------------------------------------------------------
 Center     Atomic      Atomic             Coordinates (Angstroms)
 Number     Number       Type             X           Y           Z
 ---------------------------------------------------------------------
      1          6           0       -3.986712   -0.008566    0.010083
      2          6           0       -2.492115   -0.225620   -0.006903
      3          6           0       -1.617714    0.873654   -0.005487
      4          6           0       -0.242997    0.658289   -0.000791
      5          6           0        0.282484   -0.648916    0.000448
      6          6           0       -0.570826   -1.739425   -0.003616
      7          6           0       -1.955700   -1.519037   -0.008145
      8          6           0        1.802921   -0.585176    0.002154
      9          6           0        2.033829    0.916862    0.002067
     10          6           0        0.880124    1.613513   -0.000318
     11          6           0        0.699534    3.099120   -0.001900
     12          6           0        2.397363   -1.241485   -1.261001
     13          6           0        2.394321   -1.241309    1.266796
     14          1           0       -4.327953    0.342666    0.992679
     15          1           0       -4.527608   -0.933045   -0.215064
     16          1           0       -4.289991    0.746906   -0.724064
     17          1           0       -2.021034    1.884149   -0.009102
     18          1           0       -0.183137   -2.755486   -0.006411
     19          1           0       -2.631907   -2.370421   -0.013375
     20          1           0        3.031053    1.347513    0.003588
     21          1           0        0.135019    3.427270   -0.884542
     22          1           0        0.130709    3.428661    0.877436
     23          1           0        1.661848    3.619525   -0.000023
     24          1           0        3.486641   -1.119191   -1.284222
     25          1           0        2.177464   -2.315125   -1.278731
     26          1           0        1.979550   -0.790580   -2.166359
     27          1           0        1.974559   -0.790145    2.171130
     28          1           0        2.174141   -2.314892    1.284241
     29          1           0        3.483569   -1.119226    1.292489
 ---------------------------------------------------------------------

 SCF Done:  E(UB3LYP) =  -505.197141451     A.U. after   33 cycles
 SCF Done:  E(UB3LYP) =  -505.197141451     a.u. after    1 cycles

 The electronic state is 2-A.
 Alpha  occ. eigenvalues --  -10.09147 -10.08223 -10.07955 -10.07419 -10.07290
 Alpha  occ. eigenvalues --  -10.07015 -10.06989 -10.06944 -10.06943 -10.06889
 Alpha  occ. eigenvalues --  -10.06444 -10.06437 -10.06426  -0.78428  -0.73153
 Alpha  occ. eigenvalues --   -0.68782  -0.65956  -0.63195  -0.60283  -0.58954
 Alpha  occ. eigenvalues --   -0.57623  -0.51234  -0.50233  -0.45489  -0.43997
 Alpha  occ. eigenvalues --   -0.38363  -0.37048  -0.35687  -0.33882  -0.33665
 Alpha  occ. eigenvalues --   -0.33256  -0.32112  -0.31552  -0.31359  -0.31162
 Alpha  occ. eigenvalues --   -0.29230  -0.28456  -0.28138  -0.26406  -0.26140
 Alpha  occ. eigenvalues --   -0.24207  -0.23795  -0.22949  -0.21990  -0.18453
 Alpha  occ. eigenvalues --   -0.14284  -0.11730   0.04470
 Alpha virt. eigenvalues --    0.06312   0.06518   0.06700   0.08058   0.08220
 Alpha virt. eigenvalues --    0.08475   0.09022   0.10179   0.10244   0.10584
 Alpha virt. eigenvalues --    0.10679   0.11354   0.12505   0.12684   0.13308

  Beta  occ. eigenvalues --  -10.09145 -10.08224 -10.07955 -10.07417 -10.07280
  Beta  occ. eigenvalues --  -10.07013 -10.06976 -10.06930 -10.06913 -10.06853
  Beta  occ. eigenvalues --  -10.06419 -10.06412 -10.06412  -0.78418  -0.73139
  Beta  occ. eigenvalues --   -0.68763  -0.65931  -0.63166  -0.60239  -0.58907
  Beta  occ. eigenvalues --   -0.57580  -0.51196  -0.50192  -0.45456  -0.43958
  Beta  occ. eigenvalues --   -0.38335  -0.37013  -0.35651  -0.33850  -0.33634
  Beta  occ. eigenvalues --   -0.33230  -0.32083  -0.31518  -0.31323  -0.31126
  Beta  occ. eigenvalues --   -0.29204  -0.28422  -0.28104  -0.26374  -0.26119
  Beta  occ. eigenvalues --   -0.24187  -0.23772  -0.22927  -0.21969  -0.18439
  Beta  occ. eigenvalues --   -0.14273  -0.11719
  Beta virt. eigenvalues --    0.06496   0.06568   0.07200   0.07548   0.08315
  Beta virt. eigenvalues --    0.08740   0.09184   0.09287   0.10507   0.10658
  Beta virt. eigenvalues --    0.10952   0.11215   0.11660   0.12913   0.13159

 Mulliken charges and spin densities:
               1          2
     1  C    3.152714  -3.712060
     2  C   -0.483893   1.019393
     3  C   -0.526489   0.245921
     4  C   -0.875302   1.091269
     5  C   -0.107394   0.418114
     6  C    0.206605  -0.564914
     7  C    0.335236  -1.118450
     8  C   -0.444766   1.070216
     9  C   -0.773092   0.653873
    10  C   -0.827766   0.915211
    11  C    1.184932  -1.722088
    12  C    0.667181  -1.442626
    13  C    0.653696  -1.432824
    14  H   -0.056226   0.216612
    15  H   -0.277014   0.422950
    16  H   -0.170069   0.314106
    17  H   -0.128314   0.277763
    18  H   -0.222633   0.362820
    19  H   -0.393646   0.529897
    20  H   -0.591457   0.768666
    21  H   -0.173228   0.329830
    22  H   -0.152899   0.307349
    23  H   -0.401255   0.559214
    24  H   -0.224758   0.382590
    25  H   -0.075619   0.219718
    26  H    0.014478   0.131186
    27  H    0.017493   0.127583
    28  H   -0.106136   0.249590
    29  H   -0.220379   0.379091
 Sum of Mulliken charges =  -1.00000   1.00000

 Dipole moment (field-independent basis, Debye):
    X=             -0.6769    Y=             -0.9828    Z=              0.2014  Tot=              1.2102
 Quadrupole moment (field-independent basis, Debye-Ang):
   XX=           -153.9004   YY=           -132.9553   ZZ=           -110.7137
   XY=             -3.1740   XZ=             -0.9077   YZ=              0.2551

 Summary of Natural Population Analysis:

                                       Natural Population
                Natural  -----------------------------------------------
    Atom  No    Charge         Core      Valence    Rydberg      Total
 -----------------------------------------------------------------------
      C    1   -0.28994      0.99964     2.28504    0.00527     3.28994
      C    2   -0.01590      0.99954     2.00844    0.00792     3.01590
      C    3   -0.10045      0.99948     2.09073    0.01024     3.10045
      C    4   -0.03435      0.99948     2.02177    0.01310     3.03435
      C    5    0.03676      0.99946     1.95527    0.00851     2.96324
      C    6   -0.10977      0.99955     2.09650    0.01371     3.10977
      C    7   -0.10316      0.99953     2.09416    0.00947     3.10316
      C    8   -0.07159      0.99956     2.05784    0.01419     3.07159
      C    9   -0.07644      0.99945     2.06563    0.01135     3.07644
      C   10   -0.01384      0.99945     2.00362    0.01077     3.01384
      C   11   -0.29687      0.99963     2.29151    0.00573     3.29687
      C   12   -0.27561      0.99963     2.26843    0.00756     3.27561
      C   13   -0.27559      0.99962     2.26838    0.00759     3.27559
      H   14    0.10281      0.00000     0.39567    0.00152     0.39719
      H   15    0.10131      0.00000     0.39711    0.00158     0.39869
      H   16    0.10273      0.00000     0.39578    0.00149     0.39727
      H   17    0.10077      0.00000     0.39768    0.00155     0.39923
      H   18    0.10070      0.00000     0.39743    0.00187     0.39930
      H   19    0.09793      0.00000     0.40057    0.00150     0.40207
      H   20    0.10058      0.00000     0.39812    0.00130     0.39942
      H   21    0.10518      0.00000     0.39347    0.00136     0.39482
      H   22    0.10492      0.00000     0.39375    0.00133     0.39508
      H   23    0.10569      0.00000     0.39312    0.00119     0.39431
      H   24    0.09961      0.00000     0.39926    0.00114     0.40039
      H   25    0.09921      0.00000     0.39965    0.00114     0.40079
      H   26    0.10333      0.00000     0.39556    0.00110     0.39667
      H   27    0.10325      0.00000     0.39565    0.00110     0.39675
      H   28    0.09922      0.00000     0.39964    0.00114     0.40078
      H   29    0.09962      0.00000     0.39925    0.00114     0.40038
 =======================================================================
   * Total *    0.00006     12.99404    33.85905    0.14685    46.99994

 Normal termination of Gaussian 16 at Sun Dec 13 16:21:39 2020.
