 Gaussian 16, Revision A.03,

 -----------------------------------------------------------
 # opt freq B3LYP/6-31G(d) empiricaldispersion=gd3bj scf=xqc
 -----------------------------------------------------------

 ------------------------------
 CID_131130880_JID_831_neutraal
 ------------------------------
 Symbolic Z-matrix:
 Charge =  0 Multiplicity = 1

 SCF Done:  E(RB3LYP) =  -495.742873504     A.U. after   15 cycles
 SCF Done:  E(RB3LYP) =  -495.739144667     A.U. after   16 cycles
 SCF Done:  E(RB3LYP) =  -495.747924039     A.U. after   14 cycles
 SCF Done:  E(RB3LYP) =  -495.748362668     A.U. after   13 cycles
 SCF Done:  E(RB3LYP) =  -495.748446417     A.U. after   11 cycles
 SCF Done:  E(RB3LYP) =  -495.748492838     A.U. after   13 cycles
 SCF Done:  E(RB3LYP) =  -495.748515189     A.U. after   12 cycles
 SCF Done:  E(RB3LYP) =  -495.748560092     A.U. after   12 cycles
 SCF Done:  E(RB3LYP) =  -495.748590992     A.U. after   12 cycles
 SCF Done:  E(RB3LYP) =  -495.748622245     A.U. after   12 cycles
 SCF Done:  E(RB3LYP) =  -495.748627823     A.U. after   12 cycles
 SCF Done:  E(RB3LYP) =  -495.748628506     A.U. after    9 cycles
 SCF Done:  E(RB3LYP) =  -495.748628628     A.U. after    9 cycles
 Optimization completed.
    -- Stationary point found.
 Normal termination of Gaussian 16 at Tue Dec  8 13:04:51 2020.

 --------------------------------------------------------------------
 #N Geom=AllCheck Guess=TCheck SCRF=Check GenChk RB3LYP/6-31G(d) Freq
 --------------------------------------------------------------------

 Structure from the checkpoint file:  "JID_831.chk"
 ------------------------------
 CID_131130880_JID_831_neutraal
 ------------------------------
 Charge =  0 Multiplicity = 1

 SCF Done:  E(RB3LYP) =  -495.748628628     A.U. after    1 cycles

  Exact polarizability:  92.668   1.383  84.336  -1.428  -2.578  69.498
 Approx polarizability: 116.016   2.800 142.955  -8.753  -8.645 106.772

                      1                      2                      3
                      A                      A                      A
 Frequencies --     33.9086                50.6689               113.5209
 Red. masses --      3.4608                 7.9792                 4.0506
 Frc consts  --      0.0023                 0.0121                 0.0308
 IR Inten    --      0.8443                 0.7512                 2.2733

                      4                      5                      6
                      A                      A                      A
 Frequencies --    141.9747               213.0819               237.1170
 Red. masses --      3.9331                 2.0442                 1.7156
 Frc consts  --      0.0467                 0.0547                 0.0568
 IR Inten    --      5.7538                 1.2799                 0.1425

                      7                      8                      9
                      A                      A                      A
 Frequencies --    258.2167               341.9144               365.7993
 Red. masses --      1.4884                 3.7896                 3.0023
 Frc consts  --      0.0585                 0.2610                 0.2367
 IR Inten    --      0.2002                 8.6024                 1.5231

                     10                     11                     12
                      A                      A                      A
 Frequencies --    430.1865               478.3973               530.2546
 Red. masses --      2.1211                 2.0821                 3.7902
 Frc consts  --      0.2313                 0.2808                 0.6279
 IR Inten    --      0.1892                 0.8567                 2.0815

                     13                     14                     15
                      A                      A                      A
 Frequencies --    558.5565               587.4667               792.8565
 Red. masses --      5.1109                 3.3514                 4.1936
 Frc consts  --      0.9395                 0.6815                 1.5532
 IR Inten    --     33.3280                16.3179                16.4989

                     16                     17                     18
                      A                      A                      A
 Frequencies --    819.9769               847.1719               876.4580
 Red. masses --      2.4810                 3.8499                 8.2754
 Frc consts  --      0.9828                 1.6279                 3.7454
 IR Inten    --      1.8675                 0.5292                 0.5301

                     19                     20                     21
                      A                      A                      A
 Frequencies --    897.4197               944.1637               966.0974
 Red. masses --      1.9922                 1.8179                 1.3613
 Frc consts  --      0.9453                 0.9548                 0.7486
 IR Inten    --      2.9942                 1.7701                 1.7084

                     22                     23                     24
                      A                      A                      A
 Frequencies --    994.6431              1004.1526              1032.5121
 Red. masses --      1.2682                 1.7249                 2.1243
 Frc consts  --      0.7392                 1.0247                 1.3343
 IR Inten    --      1.7200                 0.9013                 3.9242

                     25                     26                     27
                      A                      A                      A
 Frequencies --   1102.0608              1164.9109              1171.3017
 Red. masses --      2.4145                 1.6690                 1.9883
 Frc consts  --      1.7278                 1.3345                 1.6072
 IR Inten    --      2.8850                13.5617                 6.7473

                     28                     29                     30
                      A                      A                      A
 Frequencies --   1177.0405              1216.7475              1240.4367
 Red. masses --      1.9453                 1.3013                 1.5772
 Frc consts  --      1.5879                 1.1350                 1.4299
 IR Inten    --     34.9902                 7.7306                14.0925

                     31                     32                     33
                      A                      A                      A
 Frequencies --   1271.7424              1286.2155              1315.9092
 Red. masses --      1.4808                 1.8060                 1.4509
 Frc consts  --      1.4110                 1.7603                 1.4803
 IR Inten    --     24.2986                28.2318                 3.9142

                     34                     35                     36
                      A                      A                      A
 Frequencies --   1332.8311              1359.2328              1366.5405
 Red. masses --      1.3548                 1.2275                 1.2925
 Frc consts  --      1.4180                 1.3362                 1.4221
 IR Inten    --      5.9220                13.1493                 2.4640

                     37                     38                     39
                      A                      A                      A
 Frequencies --   1387.9318              1404.6921              1419.8457
 Red. masses --      1.4775                 1.9757                 2.5468
 Frc consts  --      1.6769                 2.2968                 3.0251
 IR Inten    --     11.2790                48.4416                49.3713

                     40                     41                     42
                      A                      A                      A
 Frequencies --   1428.7820              1442.6637              1492.2826
 Red. masses --      1.8865                 1.2548                 1.1381
 Frc consts  --      2.2690                 1.5387                 1.4933
 IR Inten    --     17.2628                 2.5853                 1.1372

                     43                     44                     45
                      A                      A                      A
 Frequencies --   1519.6723              1527.0524              1530.9795
 Red. masses --      1.1000                 1.0513                 1.0454
 Frc consts  --      1.4967                 1.4443                 1.4437
 IR Inten    --      2.4049                 3.2546                 6.7620

                     46                     47                     48
                      A                      A                      A
 Frequencies --   1550.6595              1560.8468              1647.0571
 Red. masses --      1.0840                 1.0965                 9.1145
 Frc consts  --      1.5358                 1.5739                14.5680
 IR Inten    --      1.9303                 4.6469               220.9744

                     49                     50                     51
                      A                      A                      A
 Frequencies --   3006.0320              3024.1798              3035.7706
 Red. masses --      1.0698                 1.0677                 1.0807
 Frc consts  --      5.6957                 5.7533                 5.8680
 IR Inten    --     32.8405                29.9440                11.7709

                     52                     53                     54
                      A                      A                      A
 Frequencies --   3043.9057              3058.4006              3080.6951
 Red. masses --      1.0369                 1.0658                 1.0993
 Frc consts  --      5.6605                 5.8739                 6.1469
 IR Inten    --     28.3560                29.0614                17.2674

                     55                     56                     57
                      A                      A                      A
 Frequencies --   3085.3679              3104.9161              3109.9590
 Red. masses --      1.0933                 1.0558                 1.1017
 Frc consts  --      6.1323                 5.9967                 6.2782
 IR Inten    --     47.6587                26.0735                30.4696

                     58                     59                     60
                      A                      A                      A
 Frequencies --   3115.7465              3121.8756              3177.9333
 Red. masses --      1.1025                 1.1015                 1.1149
 Frc consts  --      6.3061                 6.3252                 6.6342
 IR Inten    --     19.6157                46.0826                 5.8259

 - Thermochemistry -
 -------------------
 Temperature   298.150 Kelvin.  Pressure   1.00000 Atm.
 Atom     1 has atomic number  6 and mass  12.00000

 Molecular mass:   144.08988 amu.
 Principal axes and moments of inertia in atomic units:
                           1         2         3
     Eigenvalues --   698.254022199.426342455.03666
           X            0.99970   0.01740   0.01729
           Y           -0.01713   0.99973  -0.01568
           Z           -0.01756   0.01538   0.99973
 This molecule is an asymmetric top.
 Rotational symmetry number  1.
 Warning -- assumption of classical behavior for rotation
           may cause significant error
 Rotational temperatures (Kelvin)      0.12404     0.03938     0.03528
 Rotational constants (GHZ):           2.58465     0.82055     0.73512
 Zero-point vibrational energy     498835.2 (Joules/Mol)
                                  119.22447 (Kcal/Mol)
 Warning -- explicit consideration of  14 degrees of freedom as
           vibrations may cause significant error
 Vibrational temperatures:     48.79    72.90   163.33   204.27   306.58
          (Kelvin)            341.16   371.52   491.94   526.30   618.94
                              688.31   762.92   803.64   845.23  1140.74
                             1179.76  1218.89  1261.03  1291.19  1358.44
                             1390.00  1431.07  1444.75  1485.55  1585.62
                             1676.05  1685.24  1693.50  1750.63  1784.71
                             1829.75  1850.58  1893.30  1917.65  1955.63
                             1966.15  1996.92  2021.04  2042.84  2055.70
                             2075.67  2147.06  2186.47  2197.09  2202.74
                             2231.05  2245.71  2369.75  4325.01  4351.12
                             4367.80  4379.50  4400.36  4432.43  4439.16
                             4467.28  4474.54  4482.86  4491.68  4572.34

 Zero-point correction=                           0.189996 (Hartree/Particle)
 Thermal correction to Energy=                    0.199972
 Thermal correction to Enthalpy=                  0.200916
 Thermal correction to Gibbs Free Energy=         0.153498
 Sum of electronic and zero-point Energies=           -495.558632
 Sum of electronic and thermal Energies=              -495.548657
 Sum of electronic and thermal Enthalpies=            -495.547713
 Sum of electronic and thermal Free Energies=         -495.595131

                     E (Thermal)             CV                S
                      KCal/Mol        Cal/Mol-Kelvin    Cal/Mol-Kelvin
 Total                  125.484             36.284             99.799
 Electronic               0.000              0.000              0.000
 Translational            0.889              2.981             40.807
 Rotational               0.889              2.981             29.712
 Vibrational            123.707             30.322             29.280
 Vibration     1          0.594              1.983              5.587
 Vibration     2          0.595              1.977              4.791
 Vibration     3          0.607              1.938              3.208
 Vibration     4          0.615              1.911              2.777
 Vibration     5          0.644              1.821              2.017
 Vibration     6          0.656              1.784              1.824
 Vibration     7          0.667              1.749              1.674
 Vibration     8          0.721              1.592              1.203
 Vibration     9          0.739              1.543              1.097
 Vibration    10          0.791              1.404              0.858
 Vibration    11          0.835              1.298              0.714
 Vibration    12          0.885              1.183              0.587
 Vibration    13          0.914              1.121              0.527
 Vibration    14          0.945              1.059              0.472

 Optimization completed.
    -- Stationary point found.
 Normal termination of Gaussian 16 at Tue Dec  8 13:10:28 2020.

 ----------------------------------------------------------------------
 # B3LYP/6-311++G(d,p) empiricaldispersion=gd3bj scf=xqc pop=npa geom=c
 heck
 ----------------------------------------------------------------------

 --------------------------------------
 CID_131130880_JID_831_Energie_neutraal
 --------------------------------------
 Structure from the checkpoint file:  "JID_831.chk"
 Charge =  0 Multiplicity = 1

 SCF Done:  E(RB3LYP) =  -495.895170169     A.U. after   14 cycles
 Normal termination of Gaussian 16 at Tue Dec  8 13:17:20 2020.

 ----------------------------------------------------------------------
 # B3LYP/6-311++G(d,p) empiricaldispersion=gd3bj scf=xqc pop=npa geom=c
 heck
 ----------------------------------------------------------------------

 ------------------------------------
 CID_131130880_JID_831_Energie_kation
 ------------------------------------
 Structure from the checkpoint file:  "JID_831.chk"
 Charge =  1 Multiplicity = 2

 SCF Done:  E(UB3LYP) =  -495.579628260     A.U. after   20 cycles
 Normal termination of Gaussian 16 at Tue Dec  8 13:23:34 2020.
 Gaussian 16:  ES64L-G16RevA.03 25-Dec-2016

 ----------------------------------------------------------------------
 # B3LYP/6-311++G(d,p) empiricaldispersion=gd3bj scf=xqc pop=npa geom=c
 heck
 ----------------------------------------------------------------------

 -----------------------------------
 CID_131130880_JID_831_Energie_anion
 -----------------------------------
 Structure from the checkpoint file:  "JID_831.chk"
 Charge = -1 Multiplicity = 2

                         Standard orientation:
 ---------------------------------------------------------------------
 Center     Atomic      Atomic             Coordinates (Angstroms)
 Number     Number       Type             X           Y           Z
 ---------------------------------------------------------------------
      1          6           0       -3.230969   -0.939187   -0.244948
      2          6           0       -1.860376   -0.300031   -0.446380
      3          6           0       -1.823880    1.227017   -0.248500
      4          6           0       -0.338622    1.498264   -0.022238
      5          7           0        0.057539    0.367605    0.827944
      6          6           0       -0.782200   -0.811958    0.533901
      7          6           0        1.423995    0.174513    1.105334
      8          7           0        2.195262   -0.269487   -0.163773
      9          8           0        2.584771    0.620482   -0.919145
     10          8           0        2.248403   -1.477552   -0.396147
     11          1           0       -3.959625   -0.542347   -0.960601
     12          1           0       -3.607226   -0.739687    0.765959
     13          1           0       -3.188943   -2.026084   -0.379699
     14          1           0       -1.515323   -0.511482   -1.467377
     15          1           0       -2.230911    1.775357   -1.103097
     16          1           0       -2.397786    1.505668    0.644159
     17          1           0       -0.131769    2.443323    0.492606
     18          1           0        0.206148    1.510289   -0.979357
     19          1           0       -1.230626   -1.180261    1.467307
     20          1           0       -0.198876   -1.629866    0.095589
     21          1           0        1.907966    1.103811    1.410815
     22          1           0        1.584278   -0.630698    1.823820
 ---------------------------------------------------------------------

 SCF Done:  E(UB3LYP) =  -495.896590800     A.U. after   33 cycles
 SCF Done:  E(UB3LYP) =  -495.896590800     a.u. after    1 cycles

 The electronic state is 2-A.
 Alpha  occ. eigenvalues --  -18.95477 -18.95423 -14.30955 -14.18914 -10.10194
 Alpha  occ. eigenvalues --  -10.07570 -10.07360 -10.06650 -10.05609 -10.05603
 Alpha  occ. eigenvalues --   -1.02606  -0.85849  -0.82182  -0.69724  -0.63235
 Alpha  occ. eigenvalues --   -0.60217  -0.55710  -0.48570  -0.45911  -0.43988
 Alpha  occ. eigenvalues --   -0.39746  -0.37432  -0.36179  -0.33932  -0.32745
 Alpha  occ. eigenvalues --   -0.32022  -0.30979  -0.30264  -0.29368  -0.26135
 Alpha  occ. eigenvalues --   -0.25622  -0.25364  -0.22591  -0.21962  -0.21280
 Alpha  occ. eigenvalues --   -0.14679  -0.14140  -0.11041  -0.08448   0.05130
 Alpha virt. eigenvalues --    0.06746   0.08627   0.08983   0.09848   0.10940
 Alpha virt. eigenvalues --    0.11007   0.12386   0.12549   0.13229   0.13885
 Alpha virt. eigenvalues --    0.14991   0.15997   0.17342   0.17817   0.18883

  Beta  occ. eigenvalues --  -18.95084 -18.94999 -14.30126 -14.18880 -10.10228
  Beta  occ. eigenvalues --  -10.07566 -10.07353 -10.06647 -10.05591 -10.05575
  Beta  occ. eigenvalues --   -1.01481  -0.85056  -0.82117  -0.69660  -0.63154
  Beta  occ. eigenvalues --   -0.60012  -0.55496  -0.48164  -0.45806  -0.43432
  Beta  occ. eigenvalues --   -0.39331  -0.37114  -0.35344  -0.33434  -0.32415
  Beta  occ. eigenvalues --   -0.31479  -0.30184  -0.29910  -0.28673  -0.26040
  Beta  occ. eigenvalues --   -0.25444  -0.25315  -0.22554  -0.21938  -0.21242
  Beta  occ. eigenvalues --   -0.14443  -0.11383  -0.10650  -0.08163
  Beta virt. eigenvalues --    0.07364   0.08814   0.09291   0.10151   0.11107
  Beta virt. eigenvalues --    0.11135   0.12438   0.12690   0.13393   0.13461
  Beta virt. eigenvalues --    0.14049   0.14969   0.16042   0.17363   0.17858

 Mulliken charges and spin densities:
               1          2
     1  C    1.102938  -1.814708
     2  C   -1.351979   1.742635
     3  C    0.572469  -1.023275
     4  C   -0.594857   0.272576
     5  N    0.094102   0.122285
     6  C    0.088628  -0.719631
     7  C   -0.082434  -0.239459
     8  N   -0.166794   0.291995
     9  O   -0.216052   0.149642
    10  O   -0.211599   0.152345
    11  H   -0.326474   0.458139
    12  H   -0.162180   0.301706
    13  H   -0.073575   0.204060
    14  H    0.131628   0.029570
    15  H   -0.042956   0.181363
    16  H   -0.122948   0.268080
    17  H   -0.063525   0.192106
    18  H    0.221505  -0.055277
    19  H   -0.063092   0.214863
    20  H    0.224616  -0.041008
    21  H    0.015825   0.169524
    22  H    0.026753   0.142470
 Sum of Mulliken charges =  -1.00000   1.00000

 Dipole moment (field-independent basis, Debye):
    X=             -1.8397    Y=              1.0391    Z=              1.3391  Tot=              2.5015
 Quadrupole moment (field-independent basis, Debye-Ang):
   XX=           -120.0387   YY=            -82.6955   ZZ=            -80.2824
   XY=              2.6523   XZ=              8.3861   YZ=             -1.3581

 Summary of Natural Population Analysis:

                                       Natural Population
                Natural  -----------------------------------------------
    Atom  No    Charge         Core      Valence    Rydberg      Total
 -----------------------------------------------------------------------
      C    1   -0.28210      0.99965     2.27669    0.00576     3.28210
      C    2   -0.11835      0.99961     2.10899    0.00975     3.11835
      C    3   -0.19208      0.99962     2.18337    0.00910     3.19208
      C    4   -0.08362      0.99962     2.07242    0.01158     3.08362
      N    5   -0.27807      0.99971     2.76608    0.01228     3.77807
      C    6   -0.08207      0.99960     2.07097    0.01150     3.08207
      C    7   -0.01703      0.99958     2.00341    0.01405     3.01703
      N    8    0.31778      0.99980     2.15270    0.02972     3.18222
      O    9   -0.20978      0.99989     3.20161    0.00827     4.20978
      O   10   -0.20669      0.99989     3.19864    0.00816     4.20669
      H   11    0.09861      0.00000     0.40033    0.00106     0.40139
      H   12    0.09737      0.00000     0.40139    0.00124     0.40263
      H   13    0.09754      0.00000     0.40165    0.00081     0.40246
      H   14    0.09546      0.00000     0.40286    0.00167     0.40454
      H   15    0.09858      0.00000     0.40066    0.00077     0.40142
      H   16    0.09538      0.00000     0.40309    0.00153     0.40462
      H   17    0.09242      0.00000     0.40656    0.00102     0.40758
      H   18    0.09392      0.00000     0.40447    0.00161     0.40608
      H   19    0.08585      0.00000     0.41284    0.00130     0.41415
      H   20    0.10403      0.00000     0.39449    0.00148     0.39597
      H   21    0.09664      0.00000     0.40199    0.00136     0.40336
      H   22    0.09622      0.00000     0.40251    0.00127     0.40378
 =======================================================================
   * Total *   -0.00000      9.99698    28.86773    0.13529    39.00000

 Normal termination of Gaussian 16 at Tue Dec  8 13:32:31 2020.
