 Gaussian 16, Revision A.03,

 -----------------------------------------------------------
 # opt freq B3LYP/6-31G(d) empiricaldispersion=gd3bj scf=xqc
 -----------------------------------------------------------

 ------------------------------
 CID_12335190_JID_2200_neutraal
 ------------------------------
 Symbolic Z-matrix:
 Charge =  0 Multiplicity = 1

 SCF Done:  E(RB3LYP) =  -547.137452594     A.U. after   15 cycles
 SCF Done:  E(RB3LYP) =  -547.141267292     A.U. after   13 cycles
 SCF Done:  E(RB3LYP) =  -547.142067685     A.U. after   13 cycles
 SCF Done:  E(RB3LYP) =  -547.142719189     A.U. after   13 cycles
 SCF Done:  E(RB3LYP) =  -547.143298720     A.U. after   13 cycles
 SCF Done:  E(RB3LYP) =  -547.143673985     A.U. after   12 cycles
 SCF Done:  E(RB3LYP) =  -547.143887615     A.U. after   12 cycles
 SCF Done:  E(RB3LYP) =  -547.143998170     A.U. after   12 cycles
 SCF Done:  E(RB3LYP) =  -547.144074187     A.U. after   12 cycles
 SCF Done:  E(RB3LYP) =  -547.144140541     A.U. after   12 cycles
 SCF Done:  E(RB3LYP) =  -547.144181196     A.U. after    8 cycles
 SCF Done:  E(RB3LYP) =  -547.144181325     A.U. after    8 cycles
 SCF Done:  E(RB3LYP) =  -547.144181398     A.U. after    7 cycles
 SCF Done:  E(RB3LYP) =  -547.144181455     A.U. after    7 cycles
 SCF Done:  E(RB3LYP) =  -547.144181480     A.U. after    7 cycles
 Optimization completed.
    -- Stationary point found.

 1\1\GINC-NODE206\FOpt\RB3LYP\6-31G(d)\C7H11N5\VSC10255\09-Dec-2020\0\\
 # opt freq B3LYP/6-31G(d) empiricaldispersion=gd3bj scf=xqc\\CID_12335
 190_JID_2200_neutraal\\0,1\C,-2.2822373928,1.4235497378,-0.2941584095\
 C,-0.9637597772,0.7175797278,-0.4425169642\C,-0.8869185386,-0.68924860
 6,-0.5915411848\N,0.2988832805,-1.2838400422,-0.7209104188\N,1.4120775
 899,-0.5536963023,-0.7165535179\C,1.3079842109,0.7838252037,-0.5648748
 825\N,0.1373022451,1.4529437296,-0.4314695889\N,2.4380617578,1.5631008
 39,-0.6256646386\C,3.5787227678,1.1741361996,-0.1568449855\C,3.8767578

 Normal termination of Gaussian 16 at Wed Dec  9 16:56:20 2020.

 --------------------------------------------------------------------
 #N Geom=AllCheck Guess=TCheck SCRF=Check GenChk RB3LYP/6-31G(d) Freq
 --------------------------------------------------------------------

 Structure from the checkpoint file:  "JID_2200.chk"
 ------------------------------
 CID_12335190_JID_2200_neutraal
 ------------------------------
 Charge =  0 Multiplicity = 1

 SCF Done:  E(RB3LYP) =  -547.144181480     A.U. after    1 cycles

  Exact polarizability: 183.461   0.978  96.514  -2.545  -1.153  61.098
 Approx polarizability: 253.529   1.220 164.245  -6.140   2.224  93.223

                      1                      2                      3
                      A                      A                      A
 Frequencies --     48.0873                63.8729               107.4624
 Red. masses --      3.2650                 3.8782                 5.3595
 Frc consts  --      0.0044                 0.0093                 0.0365
 IR Inten    --      3.4465                 4.0597                 3.8383

                      4                      5                      6
                      A                      A                      A
 Frequencies --    128.2431               146.2778               165.0963
 Red. masses --      1.0748                 1.1290                 1.1683
 Frc consts  --      0.0104                 0.0142                 0.0188
 IR Inten    --      0.4182                 1.3571                 2.3592

                      7                      8                      9
                      A                      A                      A
 Frequencies --    175.7866               220.8999               244.1335
 Red. masses --      2.5027                 1.5097                 2.1743
 Frc consts  --      0.0456                 0.0434                 0.0764
 IR Inten    --      2.3562               226.1636                64.8235

                     10                     11                     12
                      A                      A                      A
 Frequencies --    284.9023               329.7708               347.3103
 Red. masses --      2.4949                 3.4742                 4.0652
 Frc consts  --      0.1193                 0.2226                 0.2889
 IR Inten    --      1.0874                 4.7450                 0.7728

                     13                     14                     15
                      A                      A                      A
 Frequencies --    382.0918               445.8157               470.2056
 Red. masses --      3.7186                 4.0120                 4.3097
 Frc consts  --      0.3199                 0.4698                 0.5614
 IR Inten    --      1.8565                 3.6643                 5.5043

                     16                     17                     18
                      A                      A                      A
 Frequencies --    503.5461               543.2652               564.2541
 Red. masses --      1.7359                 3.4369                 3.4176
 Frc consts  --      0.2593                 0.5976                 0.6411
 IR Inten    --      8.7461                11.7053                 4.3529

                     19                     20                     21
                      A                      A                      A
 Frequencies --    628.1516               638.6227               669.2587
 Red. masses --      3.3995                 2.1145                 4.5219
 Frc consts  --      0.7903                 0.5081                 1.1933
 IR Inten    --      2.2915                28.6546                 4.8814

                     22                     23                     24
                      A                      A                      A
 Frequencies --    754.4001               784.4974               830.8787
 Red. masses --      5.5213                 6.6717                 8.4638
 Frc consts  --      1.8514                 2.4192                 3.4426
 IR Inten    --      1.5405                 2.4963                13.9892

                     25                     26                     27
                      A                      A                      A
 Frequencies --    882.3146               973.3639              1023.6617
 Red. masses --      3.6047                 2.2976                 1.6039
 Frc consts  --      1.6533                 1.2826                 0.9903
 IR Inten    --      8.8960                24.5957                41.3817

                     28                     29                     30
                      A                      A                      A
 Frequencies --   1035.2683              1036.8644              1049.5427
 Red. masses --      1.9069                 1.7695                 1.4207
 Frc consts  --      1.2041                 1.1208                 0.9221
 IR Inten    --      1.9136                 2.2904                 3.5983

                     31                     32                     33
                      A                      A                      A
 Frequencies --   1069.4189              1084.5438              1145.4045
 Red. masses --      1.6356                 1.6531                 4.0573
 Frc consts  --      1.1021                 1.1456                 3.1362
 IR Inten    --     14.8340                 0.0331                 9.4655

                     34                     35                     36
                      A                      A                      A
 Frequencies --   1168.1675              1220.6644              1318.1981
 Red. masses --      2.8547                 4.1191                 6.6554
 Frc consts  --      2.2952                 3.6161                 6.8137
 IR Inten    --     44.0450                13.8322                25.2129

                     37                     38                     39
                      A                      A                      A
 Frequencies --   1389.4602              1402.5630              1424.8400
 Red. masses --      3.2115                 3.1861                 1.4024
 Frc consts  --      3.6530                 3.6927                 1.6775
 IR Inten    --     46.8182               264.7993                40.9949

                     40                     41                     42
                      A                      A                      A
 Frequencies --   1436.8889              1442.0366              1461.8129
 Red. masses --      1.3872                 1.4722                 2.3735
 Frc consts  --      1.6875                 1.8037                 2.9883
 IR Inten    --     75.8532                45.0349                98.1082

                     43                     44                     45
                      A                      A                      A
 Frequencies --   1493.6667              1503.8710              1504.2353
 Red. masses --      1.1292                 1.2160                 1.2349
 Frc consts  --      1.4843                 1.6204                 1.6463
 IR Inten    --     32.6827                68.9912                25.4347

                     46                     47                     48
                      A                      A                      A
 Frequencies --   1505.8788              1518.5260              1519.4332
 Red. masses --      1.0459                 1.0484                 1.2458
 Frc consts  --      1.3974                 1.4244                 1.6946
 IR Inten    --      0.3525                13.5483                48.4658

                     49                     50                     51
                      A                      A                      A
 Frequencies --   1562.0930              1599.9821              1655.5002
 Red. masses --      3.8961                 6.0727                 1.4092
 Frc consts  --      5.6014                 9.1593                 2.2755
 IR Inten    --     52.0938               251.0879                35.3819

                     52                     53                     54
                      A                      A                      A
 Frequencies --   1717.3236              3042.7289              3048.7784
 Red. masses --      5.3600                 1.0392                 1.0389
 Frc consts  --      9.3136                 5.6687                 5.6895
 IR Inten    --    920.5733                25.4948                16.4932

                     55                     56                     57
                      A                      A                      A
 Frequencies --   3068.9878              3091.2500              3099.9970
 Red. masses --      1.0407                 1.1005                 1.0997
 Frc consts  --      5.7754                 6.1959                 6.2268
 IR Inten    --     25.4276                19.0518                11.6747

                     58                     59                     60
                      A                      A                      A
 Frequencies --   3143.0436              3154.2881              3164.2176
 Red. masses --      1.0998                 1.0992                 1.1003
 Frc consts  --      6.4014                 6.4437                 6.4908
 IR Inten    --     17.6874                 7.9114                 7.3187

                     61                     62                     63
                      A                      A                      A
 Frequencies --   3172.0239              3597.6138              3726.4421
 Red. masses --      1.0992                 1.0464                 1.1033
 Frc consts  --      6.5163                 7.9793                 9.0267
 IR Inten    --      5.1566                85.2208                37.8982

 - Thermochemistry -
 -------------------
 Temperature   298.150 Kelvin.  Pressure   1.00000 Atm.
 Atom     1 has atomic number  6 and mass  12.00000

 Molecular mass:   165.10145 amu.
 Principal axes and moments of inertia in atomic units:
                           1         2         3
     Eigenvalues --   776.419313437.794474035.54869
           X            0.99992  -0.01288   0.00080
           Y            0.01289   0.99980  -0.01530
           Z           -0.00060   0.01531   0.99988
 This molecule is an asymmetric top.
 Rotational symmetry number  1.
 Warning -- assumption of classical behavior for rotation
           may cause significant error
 Rotational temperatures (Kelvin)      0.11156     0.02519     0.02146
 Rotational constants (GHZ):           2.32444     0.52497     0.44721
 Zero-point vibrational energy     490060.6 (Joules/Mol)
                                  117.12728 (Kcal/Mol)
 Warning -- explicit consideration of  18 degrees of freedom as
           vibrations may cause significant error
 Vibrational temperatures:     69.19    91.90   154.61   184.51   210.46
          (Kelvin)            237.54   252.92   317.83   351.25   409.91
                              474.47   499.70   549.74   641.43   676.52
                              724.49   781.64   811.84   903.77   918.84
                              962.91  1085.41  1128.72  1195.45  1269.45
                             1400.45  1472.82  1489.52  1491.82  1510.06
                             1538.66  1560.42  1647.98  1680.73  1756.26
                             1896.59  1999.12  2017.98  2050.03  2067.36
                             2074.77  2103.22  2149.05  2163.73  2164.26
                             2166.62  2184.82  2186.13  2247.50  2302.02
                             2381.90  2470.85  4377.81  4386.51  4415.59
                             4447.62  4460.20  4522.14  4538.32  4552.60
                             4563.83  5176.16  5361.52

 Zero-point correction=                           0.186654 (Hartree/Particle)
 Thermal correction to Energy=                    0.199134
 Thermal correction to Enthalpy=                  0.200078
 Thermal correction to Gibbs Free Energy=         0.147866
 Sum of electronic and zero-point Energies=           -546.957527
 Sum of electronic and thermal Energies=              -546.945048
 Sum of electronic and thermal Enthalpies=            -546.944103
 Sum of electronic and thermal Free Energies=         -546.996316

                     E (Thermal)             CV                S
                      KCal/Mol        Cal/Mol-Kelvin    Cal/Mol-Kelvin
 Total                  124.958             45.346            109.890
 Electronic               0.000              0.000              0.000
 Translational            0.889              2.981             41.213
 Rotational               0.889              2.981             30.755
 Vibrational            123.181             39.384             37.923
 Vibration     1          0.595              1.978              4.895
 Vibration     2          0.597              1.972              4.334
 Vibration     3          0.606              1.943              3.314
 Vibration     4          0.611              1.925              2.972
 Vibration     5          0.617              1.907              2.720
 Vibration     6          0.623              1.885              2.491
 Vibration     7          0.628              1.872              2.373
 Vibration     8          0.648              1.809              1.952
 Vibration     9          0.659              1.772              1.773
 Vibration    10          0.683              1.702              1.504
 Vibration    11          0.713              1.616              1.261
 Vibration    12          0.725              1.581              1.178
 Vibration    13          0.752              1.508              1.031
 Vibration    14          0.805              1.370              0.809
 Vibration    15          0.827              1.316              0.737
 Vibration    16          0.859              1.242              0.649
 Vibration    17          0.898              1.154              0.558
 Vibration    18          0.920              1.109              0.515

 Optimization completed.
    -- Stationary point found.

 1\1\GINC-NODE206\Freq\RB3LYP\6-31G(d)\C7H11N5\VSC10255\09-Dec-2020\0\\
 #N Geom=AllCheck Guess=TCheck SCRF=Check GenChk RB3LYP/6-31G(d) Freq\\
 CID_12335190_JID_2200_neutraal\\0,1\C,-2.2822373928,1.4235497378,-0.29
 41584095\C,-0.9637597772,0.7175797278,-0.4425169642\C,-0.8869185386,-0
 .689248606,-0.5915411848\N,0.2988832805,-1.2838400422,-0.7209104188\N,
 1.4120775899,-0.5536963023,-0.7165535179\C,1.3079842109,0.7838252037,-
 0.5648748825\N,0.1373022451,1.4529437296,-0.4314695889\N,2.4380617578,
 1.563100839,-0.6256646386\C,3.5787227678,1.1741361996,-0.1568449855\C,

 Normal termination of Gaussian 16 at Wed Dec  9 17:00:37 2020.

 ----------------------------------------------------------------------
 # B3LYP/6-311++G(d,p) empiricaldispersion=gd3bj scf=xqc pop=npa geom=c
 heck
 ----------------------------------------------------------------------

 --------------------------------------
 CID_12335190_JID_2200_Energie_neutraal
 --------------------------------------
 Structure from the checkpoint file:  "JID_2200.chk"
 Charge =  0 Multiplicity = 1

 SCF Done:  E(RB3LYP) =  -547.297055451     A.U. after   15 cycles
 Normal termination of Gaussian 16 at Wed Dec  9 17:03:03 2020.

 ----------------------------------------------------------------------
 # B3LYP/6-311++G(d,p) empiricaldispersion=gd3bj scf=xqc pop=npa geom=c
 heck
 ----------------------------------------------------------------------

 ------------------------------------
 CID_12335190_JID_2200_Energie_kation
 ------------------------------------
 Structure from the checkpoint file:  "JID_2200.chk"
 Charge =  1 Multiplicity = 2

 SCF Done:  E(UB3LYP) =  -546.999875923     A.U. after   30 cycles
 Normal termination of Gaussian 16 at Wed Dec  9 17:10:01 2020.
 Gaussian 16:  ES64L-G16RevA.03 25-Dec-2016

 -----------------------------------
 CID_12335190_JID_2200_Energie_anion
 -----------------------------------
 Structure from the checkpoint file:  "JID_2200.chk"
 Charge = -1 Multiplicity = 2

                         Standard orientation:
 ---------------------------------------------------------------------
 Center     Atomic      Atomic             Coordinates (Angstroms)
 Number     Number       Type             X           Y           Z
 ---------------------------------------------------------------------
      1          6           0       -2.895534    1.747125    0.366314
      2          6           0       -1.795614    0.759303    0.095813
      3          6           0       -2.064991   -0.618208   -0.097006
      4          7           0       -1.065910   -1.467636   -0.335144
      5          7           0        0.186125   -1.019581   -0.398274
      6          6           0        0.412853    0.296890   -0.202558
      7          7           0       -0.553631    1.214970    0.040444
      8          7           0        1.688344    0.791632   -0.330598
      9          6           0        2.734184    0.125573    0.036524
     10          6           0        2.790227   -1.173533    0.809392
     11          7           0        3.951213    0.667181   -0.252996
     12          6           0       -3.451800   -1.192355   -0.046871
     13          1           0       -2.468487    2.744787    0.482946
     14          1           0       -3.622954    1.760564   -0.454703
     15          1           0       -3.448193    1.482862    1.276382
     16          1           0        2.721338   -2.020365    0.121320
     17          1           0        3.722017   -1.242576    1.380592
     18          1           0        1.942894   -1.254716    1.491237
     19          1           0        3.970077    1.456636   -0.883732
     20          1           0        4.793668    0.125681   -0.143691
     21          1           0       -3.929506   -1.010585    0.924152
     22          1           0       -4.100732   -0.747025   -0.811565
     23          1           0       -3.399057   -2.269987   -0.216605
 ---------------------------------------------------------------------

 SCF Done:  E(UB3LYP) =  -547.295023408     A.U. after   33 cycles
 SCF Done:  E(UB3LYP) =  -547.295023408     a.u. after    1 cycles

 The electronic state is 2-A.
 Alpha  occ. eigenvalues --  -14.21229 -14.17738 -14.17285 -14.15849 -14.15148
 Alpha  occ. eigenvalues --  -10.13575 -10.11289 -10.06955 -10.06475 -10.05519
 Alpha  occ. eigenvalues --  -10.05459 -10.05247  -0.87937  -0.83879  -0.77921
 Alpha  occ. eigenvalues --   -0.75235  -0.68404  -0.62008  -0.61072  -0.59126
 Alpha  occ. eigenvalues --   -0.51822  -0.50029  -0.45232  -0.42184  -0.40631
 Alpha  occ. eigenvalues --   -0.36699  -0.33392  -0.32605  -0.32036  -0.31422
 Alpha  occ. eigenvalues --   -0.29457  -0.28550  -0.28338  -0.27999  -0.27392
 Alpha  occ. eigenvalues --   -0.26749  -0.23446  -0.19274  -0.17862  -0.16309
 Alpha  occ. eigenvalues --   -0.15547  -0.13191  -0.09728  -0.07459   0.04765
 Alpha virt. eigenvalues --    0.06333   0.07714   0.09620   0.09738   0.10007
 Alpha virt. eigenvalues --    0.10942   0.11166   0.12411   0.12844   0.13677
 Alpha virt. eigenvalues --    0.13797   0.14163   0.15085   0.15836   0.16611

  Beta  occ. eigenvalues --  -14.21182 -14.17214 -14.17071 -14.15847 -14.14762
  Beta  occ. eigenvalues --  -10.13583 -10.11345 -10.06732 -10.06529 -10.05519
  Beta  occ. eigenvalues --  -10.05435 -10.05266  -0.87436  -0.83757  -0.77384
  Beta  occ. eigenvalues --   -0.74903  -0.68171  -0.61939  -0.60904  -0.58867
  Beta  occ. eigenvalues --   -0.51683  -0.49532  -0.45124  -0.42090  -0.40402
  Beta  occ. eigenvalues --   -0.36582  -0.33000  -0.32481  -0.31998  -0.31344
  Beta  occ. eigenvalues --   -0.29347  -0.28416  -0.28249  -0.27891  -0.26973
  Beta  occ. eigenvalues --   -0.26352  -0.23263  -0.18003  -0.17171  -0.15134
  Beta  occ. eigenvalues --   -0.15043  -0.13035  -0.09077  -0.06971
  Beta virt. eigenvalues --    0.07647   0.07937   0.09679   0.10017   0.10178
  Beta virt. eigenvalues --    0.10411   0.11361   0.11756   0.12577   0.12811
  Beta virt. eigenvalues --    0.13759   0.13836   0.14103   0.15165   0.15853

 Mulliken charges and spin densities:
               1          2
     1  C   -0.522215  -0.024394
     2  C    0.311634   0.129263
     3  C   -0.072660  -0.022487
     4  N    0.075260   0.237451
     5  N   -0.279152   0.092243
     6  C   -0.346240  -0.220958
     7  N   -0.094737   0.183614
     8  N   -0.088428  -0.071701
     9  C    0.583235  -0.313583
    10  C    0.014110  -0.534694
    11  N   -0.363571   0.107453
    12  C   -0.573474  -0.006408
    13  H    0.145300  -0.000774
    14  H    0.114405   0.013283
    15  H    0.120829   0.006542
    16  H    0.192127   0.003278
    17  H   -0.303225   0.419998
    18  H    0.147119   0.035536
    19  H    0.060128   0.188711
    20  H   -0.506390   0.782550
    21  H    0.119154  -0.001967
    22  H    0.121344  -0.000300
    23  H    0.145445  -0.002657
 Sum of Mulliken charges =  -1.00000   1.00000

 Dipole moment (field-independent basis, Debye):
    X=             -6.7604    Y=              0.4677    Z=              0.7888  Tot=              6.8223
 Quadrupole moment (field-independent basis, Debye-Ang):
   XX=           -132.3776   YY=            -96.3190   ZZ=            -83.1029
   XY=             -1.2226   XZ=             -3.0402   YZ=             -1.6867

 Summary of Natural Population Analysis:

                                       Natural Population
                Natural  -----------------------------------------------
    Atom  No    Charge         Core      Valence    Rydberg      Total
 -----------------------------------------------------------------------
      C    1   -0.30208      0.99965     2.29823    0.00420     3.30208
      C    2    0.13811      0.99952     1.84872    0.01365     2.86189
      C    3    0.04188      0.99952     1.94458    0.01402     2.95812
      N    4   -0.05677      0.99968     2.53877    0.01831     3.55677
      N    5   -0.14841      0.99969     2.63333    0.01539     3.64841
      C    6    0.25938      0.99960     1.72286    0.01816     2.74062
      N    7   -0.19639      0.99964     2.68412    0.01262     3.69639
      N    8   -0.28674      0.99959     2.77557    0.01158     3.78674
      C    9    0.24204      0.99962     1.74072    0.01762     2.75796
      C   10   -0.32281      0.99962     2.31685    0.00635     3.32281
      N   11   -0.39111      0.99970     2.88093    0.01048     3.89111
      C   12   -0.29608      0.99965     2.29206    0.00438     3.29608
      H   13    0.10699      0.00000     0.39170    0.00131     0.39301
      H   14    0.09790      0.00000     0.40025    0.00185     0.40210
      H   15    0.09842      0.00000     0.40062    0.00096     0.40158
      H   16    0.11793      0.00000     0.38062    0.00145     0.38207
      H   17    0.09856      0.00000     0.40020    0.00124     0.40144
      H   18    0.11532      0.00000     0.38360    0.00107     0.38468
      H   19    0.19329      0.00000     0.30411    0.00260     0.30671
      H   20    0.19450      0.00000     0.29637    0.00913     0.30550
      H   21    0.09444      0.00000     0.40448    0.00109     0.40556
      H   22    0.09482      0.00000     0.40413    0.00105     0.40518
      H   23    0.10681      0.00000     0.39150    0.00169     0.39319
 =======================================================================
   * Total *   -0.00000     11.99547    31.83434    0.17019    44.00000

 Normal termination of Gaussian 16 at Wed Dec  9 17:16:58 2020.
