 Gaussian 16, Revision A.03,

 -----------------------------------------------------------
 # opt freq B3LYP/6-31G(d) empiricaldispersion=gd3bj scf=xqc
 -----------------------------------------------------------

 -----------------------------
 CID_21709263_JID_452_neutraal
 -----------------------------
 Symbolic Z-matrix:
 Charge =  0 Multiplicity = 1

 SCF Done:  E(RB3LYP) =  -514.514904134     A.U. after   15 cycles
 SCF Done:  E(RB3LYP) =  -514.524711610     A.U. after   14 cycles
 SCF Done:  E(RB3LYP) =  -514.524626627     A.U. after   14 cycles
 SCF Done:  E(RB3LYP) =  -514.527166563     A.U. after   13 cycles
 SCF Done:  E(RB3LYP) =  -514.527358971     A.U. after   13 cycles
 SCF Done:  E(RB3LYP) =  -514.527456288     A.U. after   12 cycles
 SCF Done:  E(RB3LYP) =  -514.527485485     A.U. after   12 cycles
 SCF Done:  E(RB3LYP) =  -514.527723412     A.U. after   12 cycles
 SCF Done:  E(RB3LYP) =  -514.527736205     A.U. after   11 cycles
 SCF Done:  E(RB3LYP) =  -514.527738364     A.U. after   11 cycles
 SCF Done:  E(RB3LYP) =  -514.527741624     A.U. after    9 cycles
 SCF Done:  E(RB3LYP) =  -514.527741709     A.U. after    8 cycles
 Optimization completed.
    -- Stationary point found.
 Normal termination of Gaussian 16 at Tue Dec  8 10:38:34 2020.

 --------------------------------------------------------------------
 #N Geom=AllCheck Guess=TCheck SCRF=Check GenChk RB3LYP/6-31G(d) Freq
 --------------------------------------------------------------------

 Structure from the checkpoint file:  "JID_452.chk"
 -----------------------------
 CID_21709263_JID_452_neutraal
 -----------------------------
 Charge =  0 Multiplicity = 1

 SCF Done:  E(RB3LYP) =  -514.527741709     A.U. after    1 cycles

  Exact polarizability:  90.739   2.049  73.369  -9.244   0.868  59.266
 Approx polarizability: 138.314   2.885  93.694 -32.209   2.112 101.294

                      1                      2                      3
                      A                      A                      A
 Frequencies --     49.5568                60.0329                63.5051
 Red. masses --      7.0429                 3.4975                 6.3325
 Frc consts  --      0.0102                 0.0074                 0.0150
 IR Inten    --      0.2337                 0.5481                 0.6358

                      4                      5                      6
                      A                      A                      A
 Frequencies --    111.7171               176.3934               226.2400
 Red. masses --      8.6233                 3.5036                 1.1063
 Frc consts  --      0.0634                 0.0642                 0.0334
 IR Inten    --      1.5313                 0.0283                 0.0027

                      7                      8                      9
                      A                      A                      A
 Frequencies --    238.5204               300.4235               309.1453
 Red. masses --      1.1535                 3.8170                 5.0380
 Frc consts  --      0.0387                 0.2030                 0.2837
 IR Inten    --      0.3290                 2.4616                 3.1445

                     10                     11                     12
                      A                      A                      A
 Frequencies --    369.4613               370.9375               426.5823
 Red. masses --      2.6206                 4.4906                 2.7141
 Frc consts  --      0.2108                 0.3640                 0.2910
 IR Inten    --      1.0784                 4.3690                 2.4198

                     13                     14                     15
                      A                      A                      A
 Frequencies --    487.1931               577.2660               613.2566
 Red. masses --      4.8598                11.6751                 2.0306
 Frc consts  --      0.6796                 2.2923                 0.4500
 IR Inten    --     16.4056                16.2266                65.6397

                     16                     17                     18
                      A                      A                      A
 Frequencies --    635.0825               699.7224               756.1994
 Red. masses --      2.4972                 5.0886                 3.7439
 Frc consts  --      0.5934                 1.4679                 1.2614
 IR Inten    --     32.5989                56.6771                64.3060

                     19                     20                     21
                      A                      A                      A
 Frequencies --    854.9936               895.5074               944.2209
 Red. masses --      2.4639                 3.2478                 1.4132
 Frc consts  --      1.0612                 1.5345                 0.7424
 IR Inten    --     15.9881                 8.8903                 0.3705

                     22                     23                     24
                      A                      A                      A
 Frequencies --    963.3576               975.6037               992.5491
 Red. masses --      1.6628                 2.8244                 2.0753
 Frc consts  --      0.9092                 1.5839                 1.2046
 IR Inten    --      4.1211                42.6480                10.3621

                     25                     26                     27
                      A                      A                      A
 Frequencies --   1146.2437              1155.2903              1181.1684
 Red. masses --      1.9573                 2.3589                 2.3084
 Frc consts  --      1.5152                 1.8550                 1.8975
 IR Inten    --     28.0072                41.7195               162.7390

                     28                     29                     30
                      A                      A                      A
 Frequencies --   1207.3453              1295.8743              1339.7490
 Red. masses --      1.7941                 1.3387                 1.4065
 Frc consts  --      1.5408                 1.3245                 1.4874
 IR Inten    --     27.0416                 9.1044                14.8693

                     31                     32                     33
                      A                      A                      A
 Frequencies --   1372.1432              1387.1360              1424.0685
 Red. masses --      1.3708                 1.3203                 2.0789
 Frc consts  --      1.5206                 1.4968                 2.4840
 IR Inten    --      0.7939                10.0168                27.3252

                     34                     35                     36
                      A                      A                      A
 Frequencies --   1433.0881              1454.6210              1481.9357
 Red. masses --      1.2832                 1.2273                 6.1898
 Frc consts  --      1.5527                 1.5300                 8.0091
 IR Inten    --      9.4815                 5.2523                10.9685

                     37                     38                     39
                      A                      A                      A
 Frequencies --   1515.6887              1521.3877              1535.0230
 Red. masses --      1.0491                 1.0471                 1.0535
 Frc consts  --      1.4200                 1.4279                 1.4626
 IR Inten    --      1.9160                 1.7630                 2.0519

                     40                     41                     42
                      A                      A                      A
 Frequencies --   1540.9317              1849.4703              2353.2292
 Red. masses --      1.0485                 9.9619                12.6417
 Frc consts  --      1.4668                20.0764                41.2463
 IR Inten    --     14.6226               175.4499               986.8669

                     43                     44                     45
                      A                      A                      A
 Frequencies --   3041.0636              3050.1981              3056.2625
 Red. masses --      1.0819                 1.0394                 1.0385
 Frc consts  --      5.8949                 5.6977                 5.7152
 IR Inten    --      3.5763                19.2760                24.3150

                     46                     47                     48
                      A                      A                      A
 Frequencies --   3100.8461              3113.8785              3122.4769
 Red. masses --      1.0858                 1.1006                 1.1004
 Frc consts  --      6.1514                 6.2877                 6.3213
 IR Inten    --     14.7349                 8.3185                49.7938

                     49                     50                     51
                      A                      A                      A
 Frequencies --   3134.4513              3145.9807              3673.9103
 Red. masses --      1.1017                 1.1007                 1.0640
 Frc consts  --      6.3776                 6.4184                 8.4614
 IR Inten    --     28.1744                19.1501                56.3169

 - Thermochemistry -
 -------------------
 Temperature   298.150 Kelvin.  Pressure   1.00000 Atm.
 Atom     1 has atomic number  6 and mass  12.00000

 Molecular mass:   143.05824 amu.
 Principal axes and moments of inertia in atomic units:
                           1         2         3
     Eigenvalues --  1139.730921561.008112377.28801
           X            0.99654  -0.08242   0.01061
           Y            0.08244   0.99660  -0.00150
           Z           -0.01045   0.00237   0.99994
 This molecule is an asymmetric top.
 Rotational symmetry number  1.
 Warning -- assumption of classical behavior for rotation
           may cause significant error
 Rotational temperatures (Kelvin)      0.07600     0.05549     0.03643
 Rotational constants (GHZ):           1.58348     1.15614     0.75916
 Zero-point vibrational energy     399139.6 (Joules/Mol)
                                   95.39665 (Kcal/Mol)
 Warning -- explicit consideration of  15 degrees of freedom as
           vibrations may cause significant error
 Vibrational temperatures:     71.30    86.37    91.37   160.74   253.79
          (Kelvin)            325.51   343.18   432.24   444.79   531.57
                              533.70   613.76   700.96   830.56   882.34
                              913.74  1006.74  1088.00  1230.15  1288.44
                             1358.52  1386.06  1403.68  1428.06  1649.19
                             1662.21  1699.44  1737.10  1864.47  1927.60
                             1974.21  1995.78  2048.92  2061.89  2092.88
                             2132.17  2180.74  2188.94  2208.56  2217.06
                             2660.98  3385.77  4375.41  4388.55  4397.28
                             4461.43  4480.18  4492.55  4509.78  4526.36
                             5285.94

 Zero-point correction=                           0.152024 (Hartree/Particle)
 Thermal correction to Energy=                    0.162787
 Thermal correction to Enthalpy=                  0.163731
 Thermal correction to Gibbs Free Energy=         0.114767
 Sum of electronic and zero-point Energies=           -514.375717
 Sum of electronic and thermal Energies=              -514.364955
 Sum of electronic and thermal Enthalpies=            -514.364011
 Sum of electronic and thermal Free Energies=         -514.412975

                     E (Thermal)             CV                S
                      KCal/Mol        Cal/Mol-Kelvin    Cal/Mol-Kelvin
 Total                  102.150             37.745            103.053
 Electronic               0.000              0.000              0.000
 Translational            0.889              2.981             40.785
 Rotational               0.889              2.981             29.826
 Vibrational            100.373             31.783             32.441
 Vibration     1          0.595              1.978              4.835
 Vibration     2          0.597              1.973              4.456
 Vibration     3          0.597              1.972              4.345
 Vibration     4          0.607              1.940              3.239
 Vibration     5          0.628              1.871              2.366
 Vibration     6          0.650              1.801              1.909
 Vibration     7          0.656              1.782              1.814
 Vibration     8          0.693              1.673              1.415
 Vibration     9          0.698              1.656              1.367
 Vibration    10          0.742              1.535              1.082
 Vibration    11          0.743              1.532              1.076
 Vibration    12          0.788              1.412              0.870
 Vibration    13          0.843              1.278              0.691
 Vibration    14          0.934              1.080              0.490
 Vibration    15          0.973              1.004              0.427

 Optimization completed.
    -- Stationary point found.
 Normal termination of Gaussian 16 at Tue Dec  8 10:44:24 2020.

 ----------------------------------------------------------------------
 # B3LYP/6-311++G(d,p) empiricaldispersion=gd3bj scf=xqc pop=npa geom=c
 heck
 ----------------------------------------------------------------------

 -------------------------------------
 CID_21709263_JID_452_Energie_neutraal
 -------------------------------------
 Structure from the checkpoint file:  "JID_452.chk"
 Charge =  0 Multiplicity = 1

 SCF Done:  E(RB3LYP) =  -514.690166151     A.U. after   14 cycles
 Normal termination of Gaussian 16 at Tue Dec  8 10:46:11 2020.

 ----------------------------------------------------------------------
 # B3LYP/6-311++G(d,p) empiricaldispersion=gd3bj scf=xqc pop=npa geom=c
 heck
 ----------------------------------------------------------------------

 -----------------------------------
 CID_21709263_JID_452_Energie_kation
 -----------------------------------
 Structure from the checkpoint file:  "JID_452.chk"
 Charge =  1 Multiplicity = 2

 SCF Done:  E(UB3LYP) =  -514.322532937     A.U. after   25 cycles
 Normal termination of Gaussian 16 at Tue Dec  8 10:50:18 2020.
 Gaussian 16:  ES64L-G16RevA.03 25-Dec-2016

 ----------------------------------------------------------------------
 # B3LYP/6-311++G(d,p) empiricaldispersion=gd3bj scf=xqc pop=npa geom=c
 heck
 ----------------------------------------------------------------------

 ----------------------------------
 CID_21709263_JID_452_Energie_anion
 ----------------------------------
 Structure from the checkpoint file:  "JID_452.chk"
 Charge = -1 Multiplicity = 2

                         Standard orientation:
 ---------------------------------------------------------------------
 Center     Atomic      Atomic             Coordinates (Angstroms)
 Number     Number       Type             X           Y           Z
 ---------------------------------------------------------------------
      1          6           0       -2.460619    0.264355   -0.581370
      2          6           0       -1.074651    0.885350   -0.368852
      3          6           0       -1.192351    2.319194    0.157945
      4          6           0       -0.200340    0.033685    0.594986
      5          6           0       -0.057069   -1.391335    0.065834
      6          8           0        0.759921   -1.736067   -0.756665
      7          8           0       -0.973359   -2.224967    0.602060
      8          7           0        1.107826    0.617913    0.773587
      9          6           0        2.119971    0.567760    0.099981
     10          8           0        3.170930    0.636951   -0.422393
     11          1           0       -2.990711    0.149856    0.371664
     12          1           0       -2.410272   -0.719983   -1.055637
     13          1           0       -3.063337    0.914591   -1.223737
     14          1           0       -0.541507    0.900697   -1.329198
     15          1           0       -1.730474    2.337223    1.113976
     16          1           0       -0.209483    2.771105    0.313230
     17          1           0       -1.750366    2.938585   -0.552235
     18          1           0       -0.690470   -0.003900    1.572093
     19          1           0       -0.837741   -3.094967    0.179572
 ---------------------------------------------------------------------

 SCF Done:  E(UB3LYP) =  -514.680301614     A.U. after   31 cycles

 The electronic state is 2-A.
 Alpha  occ. eigenvalues --  -19.06687 -19.06385 -19.01868 -14.23204 -10.20675
 Alpha  occ. eigenvalues --  -10.19958 -10.13676 -10.08846 -10.05972 -10.05570
 Alpha  occ. eigenvalues --   -1.01096  -1.00067  -0.92441  -0.85524  -0.71883
 Alpha  occ. eigenvalues --   -0.63876  -0.58795  -0.53307  -0.49081  -0.42768
 Alpha  occ. eigenvalues --   -0.42023  -0.40003  -0.38668  -0.37769  -0.35284
 Alpha  occ. eigenvalues --   -0.34667  -0.32778  -0.32394  -0.30315  -0.29586
 Alpha  occ. eigenvalues --   -0.28393  -0.26232  -0.24714  -0.23953  -0.22472
 Alpha  occ. eigenvalues --   -0.20782  -0.18797  -0.17599   0.04610
 Alpha virt. eigenvalues --    0.07119   0.08152   0.08839   0.09007   0.10120
 Alpha virt. eigenvalues --    0.11265   0.11821   0.12256   0.12711   0.13098
 Alpha virt. eigenvalues --    0.14136   0.15411   0.15604   0.16668   0.17021

  Beta  occ. eigenvalues --  -19.06598 -19.06346 -19.01848 -14.23210 -10.20654
  Beta  occ. eigenvalues --  -10.19898 -10.13631 -10.08837 -10.05937 -10.05522
  Beta  occ. eigenvalues --   -1.00982  -0.99984  -0.92346  -0.85470  -0.71829
  Beta  occ. eigenvalues --   -0.63772  -0.58711  -0.53142  -0.48982  -0.42674
  Beta  occ. eigenvalues --   -0.41960  -0.39932  -0.38598  -0.37698  -0.35152
  Beta  occ. eigenvalues --   -0.34553  -0.32706  -0.32303  -0.30232  -0.29521
  Beta  occ. eigenvalues --   -0.28349  -0.26174  -0.24661  -0.23897  -0.22384
  Beta  occ. eigenvalues --   -0.20713  -0.18747  -0.17558
  Beta virt. eigenvalues --    0.07273   0.08440   0.09010   0.09354   0.09562
  Beta virt. eigenvalues --    0.10868   0.11743   0.12144   0.12577   0.13152
  Beta virt. eigenvalues --    0.13343   0.14818   0.15511   0.15969   0.16640

 Mulliken charges and spin densities:
               1          2
     1  C    0.646360  -1.313764
     2  C   -2.217636   2.751449
     3  C    1.026386  -1.606335
     4  C    2.486472  -2.980004
     5  C   -0.046350  -0.047751
     6  O   -0.290084   0.025951
     7  O   -0.152483   0.043092
     8  N   -0.268829   0.186628
     9  C    0.570623  -0.227218
    10  O   -0.314181   0.027657
    11  H   -0.143631   0.293364
    12  H   -0.237312   0.412243
    13  H   -0.528342   0.683669
    14  H    0.123018   0.062572
    15  H   -0.068607   0.208942
    16  H   -0.063792   0.210572
    17  H   -0.392902   0.537668
    18  H   -0.321979   0.611828
    19  H   -0.806730   1.119438
 Sum of Mulliken charges =  -1.00000   1.00000

 Dipole moment (field-independent basis, Debye):
    X=              3.3979    Y=              3.2243    Z=              0.7764  Tot=              4.7481
 Quadrupole moment (field-independent basis, Debye-Ang):
   XX=           -108.0257   YY=           -111.3261   ZZ=            -84.5797
   XY=             -1.4671   XZ=              0.2515   YZ=              1.1672

 Summary of Natural Population Analysis:

                                       Natural Population
                Natural  -----------------------------------------------
    Atom  No    Charge         Core      Valence    Rydberg      Total
 -----------------------------------------------------------------------
      C    1   -0.28739      0.99964     2.28153    0.00622     3.28739
      C    2   -0.10884      0.99960     2.09977    0.00947     3.10884
      C    3   -0.28542      0.99965     2.27964    0.00614     3.28542
      C    4   -0.04985      0.99948     2.03535    0.01502     3.04985
      C    5    0.40969      0.99969     1.56437    0.02625     2.59031
      O    6   -0.30303      0.99987     3.29676    0.00641     4.30303
      O    7   -0.33780      0.99988     3.33066    0.00726     4.33780
      N    8   -0.28820      0.99953     2.77883    0.00984     3.78820
      C    9    0.43823      0.99959     1.54344    0.01874     2.56177
      O   10   -0.26023      0.99987     3.25278    0.00758     4.26023
      H   11    0.10108      0.00000     0.39744    0.00148     0.39892
      H   12    0.10560      0.00000     0.39267    0.00173     0.39440
      H   13    0.10316      0.00000     0.39524    0.00160     0.39684
      H   14    0.09713      0.00000     0.40099    0.00189     0.40287
      H   15    0.09820      0.00000     0.40068    0.00112     0.40180
      H   16    0.10381      0.00000     0.39509    0.00110     0.39619
      H   17    0.10235      0.00000     0.39649    0.00116     0.39765
      H   18    0.11115      0.00000     0.38707    0.00178     0.38885
      H   19    0.25037      0.00000     0.21248    0.03715     0.24963
 =======================================================================
   * Total *   -0.00000      9.99679    27.84128    0.16193    38.00000

 Normal termination of Gaussian 16 at Tue Dec  8 10:55:38 2020.
