 Gaussian 16, Revision A.03,

 -----------------------------------------------------------
 # opt freq B3LYP/6-31G(d) empiricaldispersion=gd3bj scf=xqc
 -----------------------------------------------------------

 -------------------------------
 CID_101839762_JID_2036_neutraal
 -------------------------------
 Symbolic Z-matrix:
 Charge =  0 Multiplicity = 1

 SCF Done:  E(RB3LYP) =  -565.620718223     A.U. after   24 cycles
 SCF Done:  E(RB3LYP) =  -565.660146278     A.U. after   20 cycles
 SCF Done:  E(RB3LYP) =  -565.696291683     A.U. after   16 cycles
 SCF Done:  E(RB3LYP) =  -565.707081037     A.U. after   16 cycles
 SCF Done:  E(RB3LYP) =  -565.708529008     A.U. after   14 cycles
 SCF Done:  E(RB3LYP) =  -565.709108280     A.U. after   15 cycles
 SCF Done:  E(RB3LYP) =  -565.709360737     A.U. after   15 cycles
 SCF Done:  E(RB3LYP) =  -565.709404048     A.U. after   11 cycles
 SCF Done:  E(RB3LYP) =  -565.709420956     A.U. after   11 cycles
 SCF Done:  E(RB3LYP) =  -565.709445936     A.U. after   12 cycles
 SCF Done:  E(RB3LYP) =  -565.709456875     A.U. after   10 cycles
 SCF Done:  E(RB3LYP) =  -565.709459682     A.U. after   11 cycles
 SCF Done:  E(RB3LYP) =  -565.709460029     A.U. after    8 cycles
 SCF Done:  E(RB3LYP) =  -565.709460128     A.U. after    8 cycles
 SCF Done:  E(RB3LYP) =  -565.709460141     A.U. after    7 cycles
 Optimization completed.
    -- Stationary point found.
 Normal termination of Gaussian 16 at Wed Dec  9 16:46:42 2020.

 --------------------------------------------------------------------
 #N Geom=AllCheck Guess=TCheck SCRF=Check GenChk RB3LYP/6-31G(d) Freq
 --------------------------------------------------------------------

 Structure from the checkpoint file:  "JID_2036.chk"
 -------------------------------
 CID_101839762_JID_2036_neutraal
 -------------------------------
 Charge =  0 Multiplicity = 1

 SCF Done:  E(RB3LYP) =  -565.709460141     A.U. after    1 cycles

  Exact polarizability: 158.718 -11.039 101.934  12.991   0.429  49.415
 Approx polarizability: 239.439 -37.524 182.810  31.822  -5.824  78.799

                      1                      2                      3
                      A                      A                      A
 Frequencies --     20.8372                39.2344                55.5027
 Red. masses --      7.2015                 5.5270                 5.4449
 Frc consts  --      0.0018                 0.0050                 0.0099
 IR Inten    --      0.1950                 1.1917                 0.9897

                      4                      5                      6
                      A                      A                      A
 Frequencies --    108.2250               231.2566               235.2618
 Red. masses --      5.1566                 5.1760                 4.3082
 Frc consts  --      0.0356                 0.1631                 0.1405
 IR Inten    --      0.3455                 1.6598                 3.2001

                      7                      8                      9
                      A                      A                      A
 Frequencies --    271.3940               305.1394               334.9124
 Red. masses --      3.2781                 7.1112                 6.0007
 Frc consts  --      0.1423                 0.3901                 0.3966
 IR Inten    --      1.8006                 0.8686                 1.9198

                     10                     11                     12
                      A                      A                      A
 Frequencies --    360.6416               451.0376               463.0787
 Red. masses --      1.1061                 3.1792                 3.4106
 Frc consts  --      0.0848                 0.3811                 0.4309
 IR Inten    --    121.9572                 9.1220                 5.8124

                     13                     14                     15
                      A                      A                      A
 Frequencies --    537.0367               566.1410               573.2558
 Red. masses --      7.2571                11.3637                 4.5627
 Frc consts  --      1.2332                 2.1460                 0.8834
 IR Inten    --      1.0542                 6.7600                 4.0957

                     16                     17                     18
                      A                      A                      A
 Frequencies --    619.1797               680.4308               710.5772
 Red. masses --      6.3064                 4.2875                 2.8609
 Frc consts  --      1.4245                 1.1696                 0.8511
 IR Inten    --      9.3435                16.8955                18.3732

                     19                     20                     21
                      A                      A                      A
 Frequencies --    774.6904               803.8067               846.4906
 Red. masses --      3.8429                 1.4958                 1.6026
 Frc consts  --      1.3588                 0.5694                 0.6766
 IR Inten    --     10.0391                27.2906                27.9635

                     22                     23                     24
                      A                      A                      A
 Frequencies --    880.3052               900.6503               950.8915
 Red. masses --      2.4048                 1.3999                 2.4223
 Frc consts  --      1.0980                 0.6690                 1.2905
 IR Inten    --     16.3229                 4.1016                27.1086

                     25                     26                     27
                      A                      A                      A
 Frequencies --    961.9118               975.9700              1018.9415
 Red. masses --      2.7279                 1.2682                 6.0944
 Frc consts  --      1.4871                 0.7117                 3.7280
 IR Inten    --     11.1612                 0.7417                 5.1710

                     28                     29                     30
                      A                      A                      A
 Frequencies --   1039.4316              1101.4427              1113.8191
 Red. masses --      2.6628                 2.3366                 1.5693
 Frc consts  --      1.6950                 1.6702                 1.1471
 IR Inten    --     14.9921                 8.2818                 2.8067

                     31                     32                     33
                      A                      A                      A
 Frequencies --   1195.5123              1205.2051              1210.9781
 Red. masses --      1.1906                 1.7436                 1.6271
 Frc consts  --      1.0026                 1.4922                 1.4059
 IR Inten    --     43.5346                42.8532               126.1915

                     34                     35                     36
                      A                      A                      A
 Frequencies --   1220.9494              1294.1900              1327.8622
 Red. masses --      1.5763                 1.8003                 3.3887
 Frc consts  --      1.3845                 1.7766                 3.5204
 IR Inten    --     26.7878                50.7633                69.8660

                     37                     38                     39
                      A                      A                      A
 Frequencies --   1359.8214              1372.0377              1398.8642
 Red. masses --      1.3619                 2.7681                 1.7467
 Frc consts  --      1.4838                 3.0702                 2.0138
 IR Inten    --      9.0860                 9.6909                 8.0526

                     40                     41                     42
                      A                      A                      A
 Frequencies --   1497.0453              1507.7726              1542.6668
 Red. masses --      1.1807                 2.8113                 1.1227
 Frc consts  --      1.5591                 3.7656                 1.5742
 IR Inten    --     18.9290               117.2884                 4.6832

                     43                     44                     45
                      A                      A                      A
 Frequencies --   1556.6622              1664.6476              1669.3395
 Red. masses --      2.3749                 5.8026                 5.9823
 Frc consts  --      3.3907                 9.4736                 9.8222
 IR Inten    --      4.7004                19.7678                85.4664

                     46                     47                     48
                      A                      A                      A
 Frequencies --   2229.9401              3022.1735              3076.6526
 Red. masses --     13.9575                 1.0649                 1.0987
 Frc consts  --     40.8925                 5.7307                 6.1273
 IR Inten    --    519.0624                40.4589                20.6684

                     49                     50                     51
                      A                      A                      A
 Frequencies --   3161.2822              3194.1999              3216.7145
 Red. masses --      1.0899                 1.0873                 1.0913
 Frc consts  --      6.4177                 6.5364                 6.6530
 IR Inten    --     19.0377                 9.3339                 8.1427

                     52                     53                     54
                      A                      A                      A
 Frequencies --   3222.7487              3478.0324              3751.3634
 Red. masses --      1.0955                 1.0752                 1.0659
 Frc consts  --      6.7035                 7.6630                 8.8380
 IR Inten    --      8.0775                 2.5670                39.6521

 - Thermochemistry -
 -------------------
 Temperature   298.150 Kelvin.  Pressure   1.00000 Atm.
 Atom     1 has atomic number  6 and mass  12.00000

 Molecular mass:   164.06981 amu.
 Principal axes and moments of inertia in atomic units:
                           1         2         3
     Eigenvalues --   609.155194840.640025317.50785
           X            1.00000   0.00244   0.00140
           Y           -0.00246   0.99991   0.01327
           Z           -0.00137  -0.01327   0.99991
 This molecule is an asymmetric top.
 Rotational symmetry number  1.
 Warning -- assumption of classical behavior for rotation
           may cause significant error
 Rotational temperatures (Kelvin)      0.14219     0.01789     0.01629
 Rotational constants (GHZ):           2.96270     0.37283     0.33940
 Zero-point vibrational energy     402592.2 (Joules/Mol)
                                   96.22184 (Kcal/Mol)
 Warning -- explicit consideration of  16 degrees of freedom as
           vibrations may cause significant error
 Vibrational temperatures:     29.98    56.45    79.86   155.71   332.73
          (Kelvin)            338.49   390.48   439.03   481.86   518.88
                              648.94   666.27   772.68   814.55   824.79
                              890.86   978.99  1022.36  1114.61  1156.50
                             1217.91  1266.56  1295.83  1368.12  1383.98
                             1404.20  1466.03  1495.51  1584.73  1602.54
                             1720.08  1734.02  1742.33  1756.67  1862.05
                             1910.50  1956.48  1974.06  2012.65  2153.91
                             2169.35  2219.55  2239.69  2395.06  2401.81
                             3208.39  4348.23  4426.62  4548.38  4595.74
                             4628.13  4636.82  5004.11  5397.38

 Zero-point correction=                           0.153339 (Hartree/Particle)
 Thermal correction to Energy=                    0.164254
 Thermal correction to Enthalpy=                  0.165198
 Thermal correction to Gibbs Free Energy=         0.114296
 Sum of electronic and zero-point Energies=           -565.556121
 Sum of electronic and thermal Energies=              -565.545206
 Sum of electronic and thermal Enthalpies=            -565.544262
 Sum of electronic and thermal Free Energies=         -565.595164

                     E (Thermal)             CV                S
                      KCal/Mol        Cal/Mol-Kelvin    Cal/Mol-Kelvin
 Total                  103.071             39.927            107.132
 Electronic               0.000              0.000              0.000
 Translational            0.889              2.981             41.194
 Rotational               0.889              2.981             31.128
 Vibrational            101.293             33.966             34.809
 Vibration     1          0.593              1.986              6.553
 Vibration     2          0.594              1.981              5.297
 Vibration     3          0.596              1.975              4.611
 Vibration     4          0.606              1.943              3.301
 Vibration     5          0.653              1.793              1.869
 Vibration     6          0.655              1.787              1.838
 Vibration     7          0.675              1.726              1.587
 Vibration     8          0.696              1.664              1.389
 Vibration     9          0.716              1.606              1.236
 Vibration    10          0.735              1.553              1.119
 Vibration    11          0.810              1.359              0.793
 Vibration    12          0.821              1.332              0.757
 Vibration    13          0.892              1.168              0.572
 Vibration    14          0.922              1.105              0.512
 Vibration    15          0.930              1.089              0.498
 Vibration    16          0.979              0.991              0.418

                           ! Non-Optimized Parameters !
 Normal termination of Gaussian 16 at Wed Dec  9 16:50:18 2020.

 ----------------------------------------------------------------------
 # B3LYP/6-311++G(d,p) empiricaldispersion=gd3bj scf=xqc pop=npa geom=c
 heck
 ----------------------------------------------------------------------

 ---------------------------------------
 CID_101839762_JID_2036_Energie_neutraal
 ---------------------------------------
 Structure from the checkpoint file:  "JID_2036.chk"
 Charge =  0 Multiplicity = 1

 SCF Done:  E(RB3LYP) =  -565.875780176     A.U. after   16 cycles
 Normal termination of Gaussian 16 at Wed Dec  9 16:51:43 2020.

 ----------------------------------------------------------------------
 # B3LYP/6-311++G(d,p) empiricaldispersion=gd3bj scf=xqc pop=npa geom=c
 heck
 ----------------------------------------------------------------------

 -------------------------------------
 CID_101839762_JID_2036_Energie_kation
 -------------------------------------
 Structure from the checkpoint file:  "JID_2036.chk"
 Charge =  1 Multiplicity = 2

 SCF Done:  E(UB3LYP) =  -565.568781462     A.U. after   29 cycles
 Normal termination of Gaussian 16 at Wed Dec  9 16:55:03 2020.
 Gaussian 16:  ES64L-G16RevA.03 25-Dec-2016

 ----------------------------------------------------------------------
 # B3LYP/6-311++G(d,p) empiricaldispersion=gd3bj scf=xqc pop=npa geom=c
 heck
 ----------------------------------------------------------------------

 ------------------------------------
 CID_101839762_JID_2036_Energie_anion
 ------------------------------------
 Structure from the checkpoint file:  "JID_2036.chk"
 Charge = -1 Multiplicity = 2

                         Standard orientation:
 ---------------------------------------------------------------------
 Center     Atomic      Atomic             Coordinates (Angstroms)
 Number     Number       Type             X           Y           Z
 ---------------------------------------------------------------------
      1          6           0        1.965367    1.831054    0.063804
      2          6           0        0.678672    1.343644   -0.165677
      3          6           0        0.471551   -0.033634   -0.302208
      4          6           0        1.558152   -0.906445   -0.199497
      5          6           0        2.846182   -0.409836    0.023398
      6          6           0        3.052760    0.965539    0.157479
      7          8           0        3.939183   -1.224783    0.124508
      8          6           0       -0.916781   -0.576132   -0.542824
      9          7           0       -1.816617   -0.097280    0.527577
     10          7           0       -3.082349   -0.820513    0.438184
     11          7           0       -4.001111   -0.057028    0.075266
     12          7           0       -4.939176    0.499235   -0.256638
     13          1           0        2.126185    2.900199    0.169557
     14          1           0       -0.167289    2.019866   -0.229816
     15          1           0        1.401044   -1.979598   -0.298012
     16          1           0        4.058774    1.331645    0.333426
     17          1           0        3.657215   -2.145193    0.007882
     18          1           0       -1.321135   -0.202828   -1.491118
     19          1           0       -0.898606   -1.673876   -0.604815
     20          1           0       -1.430301   -0.407995    1.419257
 ---------------------------------------------------------------------

 SCF Done:  E(UB3LYP) =  -565.878345312     A.U. after   33 cycles
 SCF Done:  E(UB3LYP) =  -565.878345312     a.u. after    1 cycles

 The electronic state is 2-A.
 Alpha  occ. eigenvalues --  -19.04917 -14.30950 -14.23001 -14.22209 -14.21419
 Alpha  occ. eigenvalues --  -10.13186 -10.08557 -10.07677 -10.07494 -10.06580
 Alpha  occ. eigenvalues --  -10.06576 -10.06117  -0.98874  -0.95977  -0.86006
 Alpha  occ. eigenvalues --   -0.76114  -0.73531  -0.65576  -0.63623  -0.56632
 Alpha  occ. eigenvalues --   -0.52056  -0.48204  -0.43985  -0.42898  -0.39658
 Alpha  occ. eigenvalues --   -0.37767  -0.36528  -0.36317  -0.33224  -0.32933
 Alpha  occ. eigenvalues --   -0.31304  -0.31239  -0.30090  -0.29469  -0.28389
 Alpha  occ. eigenvalues --   -0.25941  -0.23791  -0.23208  -0.21406  -0.15305
 Alpha  occ. eigenvalues --   -0.13073  -0.12018  -0.11131   0.04333
 Alpha virt. eigenvalues --    0.06204   0.07925   0.08589   0.09578   0.09933
 Alpha virt. eigenvalues --    0.10587   0.11036   0.11401   0.13656   0.13775
 Alpha virt. eigenvalues --    0.14739   0.15535   0.16322   0.16439   0.17246

  Beta  occ. eigenvalues --  -19.04873 -14.30612 -14.23057 -14.21674 -14.21258
  Beta  occ. eigenvalues --  -10.13196 -10.08546 -10.07647 -10.07489 -10.06524
  Beta  occ. eigenvalues --  -10.06523 -10.06103  -0.98171  -0.95892  -0.85638
  Beta  occ. eigenvalues --   -0.75948  -0.73281  -0.65422  -0.63541  -0.56456
  Beta  occ. eigenvalues --   -0.51982  -0.48113  -0.43903  -0.42537  -0.39534
  Beta  occ. eigenvalues --   -0.37387  -0.36334  -0.35372  -0.33150  -0.32477
  Beta  occ. eigenvalues --   -0.31124  -0.30746  -0.29655  -0.29149  -0.28218
  Beta  occ. eigenvalues --   -0.25839  -0.23725  -0.23095  -0.20466  -0.15066
  Beta  occ. eigenvalues --   -0.12866  -0.11824  -0.10952
  Beta virt. eigenvalues --    0.07476   0.08162   0.08513   0.09315   0.10012
  Beta virt. eigenvalues --    0.10405   0.10767   0.11552   0.12115   0.13698
  Beta virt. eigenvalues --    0.14031   0.15001   0.15645   0.16241   0.16695

 Mulliken charges and spin densities:
               1          2
     1  C   -0.585590   0.247245
     2  C   -1.156932   0.801962
     3  C   -0.350053   1.388507
     4  C   -1.029626   0.709219
     5  C    1.039230  -1.484662
     6  C    1.055851  -1.076417
     7  O   -0.291124   0.051515
     8  C    1.364917  -2.006976
     9  N   -0.128307  -0.044038
    10  N   -0.481577   0.069885
    11  N    0.377275   0.064315
    12  N   -0.236760   0.288240
    13  H    0.101206   0.039771
    14  H    0.150889   0.013672
    15  H   -0.739635   0.872338
    16  H    0.139103   0.004400
    17  H   -0.344055   0.630715
    18  H    0.072165   0.088397
    19  H   -0.068644   0.242018
    20  H    0.111666   0.099895
 Sum of Mulliken charges =  -1.00000   1.00000

 Dipole moment (field-independent basis, Debye):
    X=              2.9007    Y=              4.3080    Z=              0.1235  Tot=              5.1950
 Quadrupole moment (field-independent basis, Debye-Ang):
   XX=           -152.9252   YY=            -96.8587   ZZ=            -82.7554
   XY=             14.4999   XZ=             -0.0374   YZ=              0.0454

 Summary of Natural Population Analysis:

                                       Natural Population
                Natural  -----------------------------------------------
    Atom  No    Charge         Core      Valence    Rydberg      Total
 -----------------------------------------------------------------------
      C    1   -0.09573      0.99958     2.08689    0.00927     3.09573
      C    2   -0.11315      0.99951     2.10466    0.00897     3.11315
      C    3   -0.01002      0.99951     2.00000    0.01051     3.01002
      C    4   -0.13068      0.99947     2.12046    0.01075     3.13068
      C    5    0.15796      0.99939     1.82856    0.01409     2.84204
      C    6   -0.12528      0.99952     2.11659    0.00918     3.12528
      O    7   -0.34315      0.99988     3.33606    0.00721     4.34315
      C    8   -0.09596      0.99959     2.08371    0.01266     3.09596
      N    9   -0.23909      0.99974     2.72683    0.01252     3.73909
      N   10   -0.15952      0.99973     2.64364    0.01615     3.65952
      N   11    0.13704      0.99971     2.34779    0.01546     3.36296
      N   12    0.01428      0.99982     2.47147    0.01443     3.48572
      H   13    0.09582      0.00000     0.40342    0.00076     0.40418
      H   14    0.10608      0.00000     0.39283    0.00108     0.39392
      H   15    0.10329      0.00000     0.39420    0.00251     0.39671
      H   16    0.10171      0.00000     0.39745    0.00084     0.39829
      H   17    0.23939      0.00000     0.25040    0.01020     0.26061
      H   18    0.09623      0.00000     0.40244    0.00133     0.40377
      H   19    0.09045      0.00000     0.40724    0.00231     0.40955
      H   20    0.17031      0.00000     0.32724    0.00245     0.32969
 =======================================================================
   * Total *    0.00000     11.99544    30.84189    0.16267    43.00000

 Normal termination of Gaussian 16 at Wed Dec  9 16:58:58 2020.
