 Gaussian 16, Revision A.03,

 -----------------------------------------------------------
 # opt freq B3LYP/6-31G(d) empiricaldispersion=gd3bj scf=xqc
 -----------------------------------------------------------

 ------------------------------
 CID_64093906_JID_8272_neutraal
 ------------------------------
 Symbolic Z-matrix:
 Charge =  0 Multiplicity = 1

 SCF Done:  E(RB3LYP) =  -790.696337329     A.U. after   14 cycles
 SCF Done:  E(RB3LYP) =  -790.701456483     A.U. after   12 cycles
 SCF Done:  E(RB3LYP) =  -790.702391134     A.U. after   11 cycles
 SCF Done:  E(RB3LYP) =  -790.703140705     A.U. after   11 cycles
 SCF Done:  E(RB3LYP) =  -790.701817530     A.U. after   12 cycles
 SCF Done:  E(RB3LYP) =  -790.703519456     A.U. after   11 cycles
 SCF Done:  E(RB3LYP) =  -790.703607586     A.U. after   10 cycles
 SCF Done:  E(RB3LYP) =  -790.703636380     A.U. after   10 cycles
 SCF Done:  E(RB3LYP) =  -790.703645685     A.U. after    9 cycles
 SCF Done:  E(RB3LYP) =  -790.703651230     A.U. after    9 cycles
 SCF Done:  E(RB3LYP) =  -790.703656253     A.U. after    9 cycles
 SCF Done:  E(RB3LYP) =  -790.703657996     A.U. after    8 cycles
 SCF Done:  E(RB3LYP) =  -790.703658172     A.U. after    7 cycles
 Optimization completed.
    -- Stationary point found.
 Normal termination of Gaussian 16 at Fri Dec 11 19:54:31 2020.

 --------------------------------------------------------------------
 #N Geom=AllCheck Guess=TCheck SCRF=Check GenChk RB3LYP/6-31G(d) Freq
 --------------------------------------------------------------------

 Structure from the checkpoint file:  "JID_8272.chk"
 ------------------------------
 CID_64093906_JID_8272_neutraal
 ------------------------------
 Charge =  0 Multiplicity = 1

 SCF Done:  E(RB3LYP) =  -790.703658172     A.U. after    1 cycles

  Exact polarizability: 197.623   1.916 167.152  20.095  -1.728 130.943
 Approx polarizability: 260.153  -3.831 260.254  44.396  -6.947 206.160

                      1                      2                      3
                      A                      A                      A
 Frequencies --     18.1687                25.3999                44.2599
 Red. masses --      4.9846                 4.3422                 3.9645
 Frc consts  --      0.0010                 0.0017                 0.0046
 IR Inten    --      0.1034                 1.5549                 1.0730

                      4                      5                      6
                      A                      A                      A
 Frequencies --     79.0618                98.2863               126.0773
 Red. masses --      4.1137                 3.3254                 3.4281
 Frc consts  --      0.0151                 0.0189                 0.0321
 IR Inten    --      2.4851                 0.5686                 4.7388

                      7                      8                      9
                      A                      A                      A
 Frequencies --    173.5426               190.2759               205.4169
 Red. masses --      3.1511                 3.5052                 3.4961
 Frc consts  --      0.0559                 0.0748                 0.0869
 IR Inten    --      3.0329                 0.0464                 1.9928

                     10                     11                     12
                      A                      A                      A
 Frequencies --    229.3023               240.2026               248.2257
 Red. masses --      3.5117                 1.1427                 2.7802
 Frc consts  --      0.1088                 0.0388                 0.1009
 IR Inten    --      3.4153                 1.8799                 1.1826

                     13                     14                     15
                      A                      A                      A
 Frequencies --    287.4828               289.9342               294.3797
 Red. masses --      2.2238                 1.0532                 2.6155
 Frc consts  --      0.1083                 0.0522                 0.1335
 IR Inten    --      0.7929                21.5002                 3.1853

                     16                     17                     18
                      A                      A                      A
 Frequencies --    307.5592               358.0180               374.0809
 Red. masses --      1.0973                 2.8822                 3.1276
 Frc consts  --      0.0612                 0.2177                 0.2579
 IR Inten    --      0.2878                 3.3860                 1.6804

                     19                     20                     21
                      A                      A                      A
 Frequencies --    391.9553               400.1310               441.8837
 Red. masses --      2.3092                 3.3642                 3.1560
 Frc consts  --      0.2090                 0.3173                 0.3631
 IR Inten    --      3.6923                 2.4352                 2.8555

                     22                     23                     24
                      A                      A                      A
 Frequencies --    450.3050               478.6981               487.0672
 Red. masses --      2.1203                 2.8201                 3.1672
 Frc consts  --      0.2533                 0.3808                 0.4427
 IR Inten    --      4.8376                 4.2470                 2.9360

                     25                     26                     27
                      A                      A                      A
 Frequencies --    520.8886               538.6295               547.7523
 Red. masses --      3.4031                 3.3533                 4.8206
 Frc consts  --      0.5440                 0.5732                 0.8522
 IR Inten    --     10.0784                50.3799                 1.0652

                     28                     29                     30
                      A                      A                      A
 Frequencies --    619.6042               634.9915               686.3428
 Red. masses --      3.3274                 1.7048                 2.8333
 Frc consts  --      0.7526                 0.4050                 0.7864
 IR Inten    --     25.9305               234.8791                52.3346

                     31                     32                     33
                      A                      A                      A
 Frequencies --    704.8320               716.9706               742.2024
 Red. masses --      2.9969                 2.9070                 2.4793
 Frc consts  --      0.8772                 0.8804                 0.8047
 IR Inten    --      6.9760                 9.2489                 4.1828

                     34                     35                     36
                      A                      A                      A
 Frequencies --    754.0952               798.5058               808.6460
 Red. masses --      2.2426                 1.7978                 1.9013
 Frc consts  --      0.7514                 0.6754                 0.7325
 IR Inten    --      9.7332                25.9709                13.5240

                     37                     38                     39
                      A                      A                      A
 Frequencies --    847.8989               873.8989               885.0152
 Red. masses --      3.0001                 1.5190                 1.7522
 Frc consts  --      1.2708                 0.6835                 0.8086
 IR Inten    --      4.1915                18.0723                18.8568

                     40                     41                     42
                      A                      A                      A
 Frequencies --    886.8149               905.0181               916.9841
 Red. masses --      1.9792                 1.7621                 2.8087
 Frc consts  --      0.9171                 0.8504                 1.3915
 IR Inten    --      8.5345                 1.6624                11.5223

                     43                     44                     45
                      A                      A                      A
 Frequencies --    934.8675               952.7533               968.6210
 Red. masses --      2.6877                 1.8579                 1.2603
 Frc consts  --      1.3840                 0.9937                 0.6967
 IR Inten    --      4.1142                 8.0374                 0.4181

                     46                     47                     48
                      A                      A                      A
 Frequencies --    978.5753              1017.6986              1033.5158
 Red. masses --      2.3217                 6.0749                 2.9720
 Frc consts  --      1.3099                 3.7070                 1.8704
 IR Inten    --     18.8060                 2.5987                 5.8259

                     49                     50                     51
                      A                      A                      A
 Frequencies --   1055.4239              1066.7319              1085.6636
 Red. masses --      1.8023                 1.7538                 2.1573
 Frc consts  --      1.1829                 1.1758                 1.4981
 IR Inten    --      1.4248                28.4722                29.3925

                     52                     53                     54
                      A                      A                      A
 Frequencies --   1096.2416              1101.6392              1107.8362
 Red. masses --      2.0252                 2.0063                 2.1530
 Frc consts  --      1.4339                 1.4346                 1.5569
 IR Inten    --     24.8894                20.0788                17.6955

                     55                     56                     57
                      A                      A                      A
 Frequencies --   1127.1489              1142.6800              1150.3046
 Red. masses --      1.9039                 2.5696                 1.0603
 Frc consts  --      1.4251                 1.9768                 0.8266
 IR Inten    --      1.7123               146.2899                 0.4894

                     58                     59                     60
                      A                      A                      A
 Frequencies --   1157.5406              1184.1409              1196.6020
 Red. masses --      1.3969                 2.8240                 1.2806
 Frc consts  --      1.1028                 2.3330                 1.0803
 IR Inten    --     18.2014                89.9175                 1.1050

                     61                     62                     63
                      A                      A                      A
 Frequencies --   1206.0270              1214.6883              1217.9824
 Red. masses --      1.1179                 1.8672                 1.5978
 Frc consts  --      0.9580                 1.6232                 1.3966
 IR Inten    --      2.9308                23.5105                18.0505

                     64                     65                     66
                      A                      A                      A
 Frequencies --   1244.4370              1301.3382              1314.5081
 Red. masses --      1.4410                 1.1808                 1.8811
 Frc consts  --      1.3148                 1.1782                 1.9151
 IR Inten    --      7.0923                17.5866                41.1367

                     67                     68                     69
                      A                      A                      A
 Frequencies --   1317.6242              1339.7627              1356.8856
 Red. masses --      1.4374                 1.5159                 1.9878
 Frc consts  --      1.4703                 1.6032                 2.1563
 IR Inten    --     10.3777                 5.2164                58.8360

                     70                     71                     72
                      A                      A                      A
 Frequencies --   1367.8818              1373.5878              1378.4606
 Red. masses --      1.6128                 2.0932                 1.4697
 Frc consts  --      1.7780                 2.3269                 1.6454
 IR Inten    --     11.4632                27.0847                 1.3047

                     73                     74                     75
                      A                      A                      A
 Frequencies --   1383.6151              1395.5799              1400.4090
 Red. masses --      1.8717                 1.3945                 1.2986
 Frc consts  --      2.1112                 1.6002                 1.5005
 IR Inten    --      8.0677                 1.3529                 5.1597

                     76                     77                     78
                      A                      A                      A
 Frequencies --   1406.8964              1416.2280              1428.8570
 Red. masses --      1.4372                 1.4311                 1.2996
 Frc consts  --      1.6760                 1.6912                 1.5633
 IR Inten    --      1.1918                 0.2259                 6.0908

                     79                     80                     81
                      A                      A                      A
 Frequencies --   1436.7778              1442.6542              1492.7266
 Red. masses --      1.2575                 1.1678                 1.0928
 Frc consts  --      1.5295                 1.4320                 1.4347
 IR Inten    --     21.8057                 4.1737                 2.8296

                     82                     83                     84
                      A                      A                      A
 Frequencies --   1501.3793              1509.5643              1511.0540
 Red. masses --      1.1178                 1.1265                 2.8595
 Frc consts  --      1.4846                 1.5125                 3.8469
 IR Inten    --      0.5194                 7.7907                36.7331

                     85                     86                     87
                      A                      A                      A
 Frequencies --   1514.9037              1525.0103              1527.3508
 Red. masses --      1.0811                 1.0511                 1.0515
 Frc consts  --      1.4617                 1.4402                 1.4453
 IR Inten    --      7.0176                 3.6883                 0.4414

                     88                     89                     90
                      A                      A                      A
 Frequencies --   1531.9343              1532.5383              1548.2018
 Red. masses --      1.0909                 1.0759                 2.4634
 Frc consts  --      1.5084                 1.4889                 3.4789
 IR Inten    --      8.0963                 2.9660                15.9005

                     91                     92                     93
                      A                      A                      A
 Frequencies --   1559.0108              1650.8631              1670.6338
 Red. masses --      1.0546                 5.3314                 3.9795
 Frc consts  --      1.5102                 8.5607                 6.5440
 IR Inten    --      7.7087                18.3174                47.2011

                     94                     95                     96
                      A                      A                      A
 Frequencies --   1695.0321              3011.3991              3025.5525
 Red. masses --      1.2634                 1.0465                 1.0711
 Frc consts  --      2.1388                 5.5915                 5.7769
 IR Inten    --    122.5592                73.3618                 1.7682

                     97                     98                     99
                      A                      A                      A
 Frequencies --   3027.9387              3030.6270              3049.6153
 Red. masses --      1.0687                 1.0700                 1.0848
 Frc consts  --      5.7728                 5.7902                 5.9444
 IR Inten    --     10.6388                21.0684                23.5013

                    100                    101                    102
                      A                      A                      A
 Frequencies --   3053.2109              3055.7963              3058.2050
 Red. masses --      1.0807                 1.0670                 1.0465
 Frc consts  --      5.9358                 5.8706                 5.7667
 IR Inten    --     64.0645                54.7324                21.3844

                    103                    104                    105
                      A                      A                      A
 Frequencies --   3062.4022              3082.4994              3090.6823
 Red. masses --      1.0772                 1.0951                 1.0953
 Frc consts  --      5.9521                 6.1309                 6.1644
 IR Inten    --     41.0180                38.8223                40.7059

                    106                    107                    108
                      A                      A                      A
 Frequencies --   3095.1131              3115.0763              3126.1925
 Red. masses --      1.0855                 1.0963                 1.1018
 Frc consts  --      6.1265                 6.2680                 6.3444
 IR Inten    --     49.2670                35.5294                30.2191

                    109                    110                    111
                      A                      A                      A
 Frequencies --   3127.4074              3136.0167              3138.6105
 Red. masses --      1.0920                 1.1057                 1.1025
 Frc consts  --      6.2925                 6.4069                 6.3990
 IR Inten    --     15.9913                11.7291                26.0440

                    112                    113                    114
                      A                      A                      A
 Frequencies --   3175.4883              3191.3423              3194.3344
 Red. masses --      1.0871                 1.0888                 1.0909
 Frc consts  --      6.4589                 6.5337                 6.5581
 IR Inten    --     13.2614                19.9221                16.8385

                    115                    116                    117
                      A                      A                      A
 Frequencies --   3212.8349              3547.2816              3645.5841
 Red. masses --      1.0943                 1.0479                 1.0978
 Frc consts  --      6.6554                 7.7692                 8.5964
 IR Inten    --      8.1392                10.8021                 7.1705

 - Thermochemistry -
 -------------------
 Temperature   298.150 Kelvin.  Pressure   1.00000 Atm.
 Atom     1 has atomic number  6 and mass  12.00000

 Molecular mass:   249.17288 amu.
 Principal axes and moments of inertia in atomic units:
                           1         2         3
     Eigenvalues --  2379.827477315.926758157.93841
           X            1.00000   0.00115   0.00118
           Y           -0.00116   1.00000   0.00235
           Z           -0.00118  -0.00235   1.00000
 This molecule is an asymmetric top.
 Rotational symmetry number  1.
 Warning -- assumption of classical behavior for rotation
           may cause significant error
 Rotational temperatures (Kelvin)      0.03640     0.01184     0.01062
 Rotational constants (GHZ):           0.75835     0.24669     0.22123
 Zero-point vibrational energy     956739.8 (Joules/Mol)
                                  228.66630 (Kcal/Mol)
 Warning -- explicit consideration of  28 degrees of freedom as
           vibrations may cause significant error
 Vibrational temperatures:     26.14    36.54    63.68   113.75   141.41
          (Kelvin)            181.40   249.69   273.76   295.55   329.91
                              345.60   357.14   413.62   417.15   423.55
                              442.51   515.11   538.22   563.94   575.70
                              635.77   647.89   688.74   700.78   749.44
                              774.97   788.09   891.47   913.61   987.49
                             1014.10  1031.56  1067.86  1084.97  1148.87
                             1163.46  1219.94  1257.35  1273.34  1275.93
                             1302.12  1319.34  1345.07  1370.80  1393.63
                             1407.95  1464.24  1487.00  1518.52  1534.79
                             1562.03  1577.25  1585.01  1593.93  1621.72
                             1644.06  1655.03  1665.44  1703.71  1721.64
                             1735.20  1747.67  1752.40  1790.47  1872.34
                             1891.28  1895.77  1927.62  1952.26  1968.08
                             1976.29  1983.30  1990.71  2007.93  2014.88
                             2024.21  2037.64  2055.81  2067.20  2075.66
                             2147.70  2160.15  2171.93  2174.07  2179.61
                             2194.15  2197.52  2204.11  2204.98  2227.52
                             2243.07  2375.22  2403.67  2438.77  4332.73
                             4353.10  4356.53  4360.40  4387.72  4392.89
                             4396.61  4400.07  4406.11  4435.03  4446.80
                             4453.18  4481.90  4497.89  4499.64  4512.03
                             4515.76  4568.82  4591.63  4595.93  4622.55
                             5103.75  5245.18

 Zero-point correction=                           0.364403 (Hartree/Particle)
 Thermal correction to Energy=                    0.382018
 Thermal correction to Enthalpy=                  0.382962
 Thermal correction to Gibbs Free Energy=         0.318125
 Sum of electronic and zero-point Energies=           -790.339255
 Sum of electronic and thermal Energies=              -790.321641
 Sum of electronic and thermal Enthalpies=            -790.320696
 Sum of electronic and thermal Free Energies=         -790.385533

                     E (Thermal)             CV                S
                      KCal/Mol        Cal/Mol-Kelvin    Cal/Mol-Kelvin
 Total                  239.720             69.617            136.460
 Electronic               0.000              0.000              0.000
 Translational            0.889              2.981             42.439
 Rotational               0.889              2.981             33.318
 Vibrational            237.942             63.656             60.702
 Vibration     1          0.593              1.986              6.825
 Vibration     2          0.593              1.985              6.160
 Vibration     3          0.595              1.980              5.059
 Vibration     4          0.600              1.963              3.914
 Vibration     5          0.604              1.950              3.488
 Vibration     6          0.611              1.927              3.005
 Vibration     7          0.627              1.875              2.397
 Vibration     8          0.634              1.853              2.225
 Vibration     9          0.640              1.832              2.084
 Vibration    10          0.652              1.796              1.884
 Vibration    11          0.657              1.779              1.801
 Vibration    12          0.662              1.766              1.743
 Vibration    13          0.685              1.697              1.489
 Vibration    14          0.686              1.692              1.474
 Vibration    15          0.689              1.684              1.449
 Vibration    16          0.697              1.659              1.375
 Vibration    17          0.733              1.559              1.131
 Vibration    18          0.745              1.525              1.063
 Vibration    19          0.759              1.487              0.993
 Vibration    20          0.766              1.470              0.962
 Vibration    21          0.802              1.379              0.821
 Vibration    22          0.809              1.360              0.795
 Vibration    23          0.835              1.297              0.714
 Vibration    24          0.843              1.279              0.691
 Vibration    25          0.876              1.204              0.608
 Vibration    26          0.894              1.165              0.568
 Vibration    27          0.903              1.145              0.549
 Vibration    28          0.980              0.991              0.417

                           ! Non-Optimized Parameters !
 Normal termination of Gaussian 16 at Fri Dec 11 20:15:39 2020.

 ----------------------------------------------------------------------
 # B3LYP/6-311++G(d,p) empiricaldispersion=gd3bj scf=xqc pop=npa geom=c
 heck
 ----------------------------------------------------------------------

 --------------------------------------
 CID_64093906_JID_8272_Energie_neutraal
 --------------------------------------
 Structure from the checkpoint file:  "JID_8272.chk"
 Charge =  0 Multiplicity = 1

 SCF Done:  E(RB3LYP) =  -790.926923594     A.U. after   15 cycles
 Normal termination of Gaussian 16 at Fri Dec 11 20:25:35 2020.

 ----------------------------------------------------------------------
 # B3LYP/6-311++G(d,p) empiricaldispersion=gd3bj scf=xqc pop=npa geom=c
 heck
 ----------------------------------------------------------------------

 ------------------------------------
 CID_64093906_JID_8272_Energie_kation
 ------------------------------------
 Structure from the checkpoint file:  "JID_8272.chk"
 Charge =  1 Multiplicity = 2

 SCF Done:  E(UB3LYP) =  -790.650562624     A.U. after   25 cycles
 Normal termination of Gaussian 16 at Fri Dec 11 20:49:58 2020.
 Gaussian 16:  ES64L-G16RevA.03 25-Dec-2016

 ----------------------------------------------------------------------
 # B3LYP/6-311++G(d,p) empiricaldispersion=gd3bj scf=xqc pop=npa geom=c
 heck
 ----------------------------------------------------------------------

 -----------------------------------
 CID_64093906_JID_8272_Energie_anion
 -----------------------------------
 Structure from the checkpoint file:  "JID_8272.chk"
 Charge = -1 Multiplicity = 2

                         Standard orientation:
 ---------------------------------------------------------------------
 Center     Atomic      Atomic             Coordinates (Angstroms)
 Number     Number       Type             X           Y           Z
 ---------------------------------------------------------------------
      1          6           0       -0.791814    2.557782    1.134620
      2          6           0       -0.582125    1.050782    1.278869
      3          6           0       -1.688579    0.174407    0.701953
      4          6           0       -2.805866    0.699274    0.055217
      5          6           0       -3.804614   -0.140441   -0.469425
      6          6           0       -3.661808   -1.527681   -0.333958
      7          6           0       -2.543465   -2.053223    0.311651
      8          6           0       -1.559937   -1.216418    0.830352
      9          7           0       -4.887531    0.404981   -1.168129
     10          8           0        0.702286    0.647571    0.788253
     11          6           0        0.901258    0.725047   -0.633718
     12          6           0        1.990483    1.763082   -0.923964
     13          6           0        3.344872    1.302656   -0.372565
     14          6           0        3.764315   -0.041972   -0.987627
     15          6           0        2.710512   -1.163737   -0.887958
     16          6           0        1.287973   -0.646090   -1.200684
     17          8           0        2.781195   -1.967062    0.291489
     18          6           0        2.962079   -1.337921    1.547157
     19          1           0       -0.863426    2.864611    0.085921
     20          1           0        0.055474    3.081011    1.586550
     21          1           0       -1.707226    2.875297    1.645195
     22          1           0       -0.509297    0.826175    2.349974
     23          1           0       -2.919954    1.773506   -0.057698
     24          1           0       -4.424281   -2.189174   -0.738445
     25          1           0       -2.444152   -3.130764    0.411241
     26          1           0       -0.682931   -1.628856    1.318876
     27          1           0       -5.709732   -0.185559   -1.195454
     28          1           0       -5.127628    1.351414   -0.899500
     29          1           0       -0.040327    1.027497   -1.106687
     30          1           0        2.060855    1.903606   -2.012392
     31          1           0        1.703857    2.727474   -0.490513
     32          1           0        3.270164    1.226841    0.716349
     33          1           0        4.113438    2.055675   -0.585982
     34          1           0        4.708128   -0.398180   -0.558259
     35          1           0        3.955940    0.120575   -2.057795
     36          1           0        2.945533   -1.897942   -1.667526
     37          1           0        0.558752   -1.397654   -0.887703
     38          1           0        1.212853   -0.561077   -2.294363
     39          1           0        3.938651   -0.836454    1.621713
     40          1           0        2.169529   -0.616788    1.768174
     41          1           0        2.940949   -2.143461    2.287784
 ---------------------------------------------------------------------

 SCF Done:  E(UB3LYP) =  -790.916517748     A.U. after   33 cycles
 SCF Done:  E(UB3LYP) =  -790.916517748     a.u. after    1 cycles

 The electronic state is 2-A.
 Alpha  occ. eigenvalues --  -19.02699 -19.02674 -14.21548 -10.13705 -10.12922
 Alpha  occ. eigenvalues --  -10.12587 -10.11806 -10.11186 -10.08522 -10.08045
 Alpha  occ. eigenvalues --  -10.07912 -10.07506 -10.07378 -10.07195 -10.07171
 Alpha  occ. eigenvalues --  -10.07154 -10.06981 -10.06756  -0.94159  -0.93453
 Alpha  occ. eigenvalues --   -0.82047  -0.75004  -0.73390  -0.68634  -0.65943
 Alpha  occ. eigenvalues --   -0.65087  -0.63334  -0.63008  -0.59153  -0.55389
 Alpha  occ. eigenvalues --   -0.52507  -0.51310  -0.50614  -0.48780  -0.44712
 Alpha  occ. eigenvalues --   -0.42353  -0.42218  -0.40847  -0.39347  -0.38351
 Alpha  occ. eigenvalues --   -0.38074  -0.37096  -0.36541  -0.35478  -0.34568
 Alpha  occ. eigenvalues --   -0.33661  -0.33210  -0.32885  -0.31780  -0.30695
 Alpha  occ. eigenvalues --   -0.29809  -0.29605  -0.28901  -0.28578  -0.27868
 Alpha  occ. eigenvalues --   -0.27345  -0.27040  -0.25830  -0.25027  -0.23517
 Alpha  occ. eigenvalues --   -0.23217  -0.21477  -0.20762  -0.20531  -0.16843
 Alpha  occ. eigenvalues --   -0.16140  -0.15552  -0.11260   0.03938
 Alpha virt. eigenvalues --    0.05345   0.06555   0.06856   0.07346   0.07690
 Alpha virt. eigenvalues --    0.07861   0.08801   0.08933   0.09304   0.09412
 Alpha virt. eigenvalues --    0.09866   0.10228   0.11087   0.11160   0.11917

  Beta  occ. eigenvalues --  -19.02696 -19.02673 -14.21478 -10.13700 -10.12919
  Beta  occ. eigenvalues --  -10.12584 -10.11804 -10.11181 -10.08520 -10.08041
  Beta  occ. eigenvalues --  -10.07897 -10.07496 -10.07364 -10.07179 -10.07147
  Beta  occ. eigenvalues --  -10.07131 -10.06975 -10.06756  -0.94153  -0.93450
  Beta  occ. eigenvalues --   -0.81968  -0.74974  -0.73368  -0.68612  -0.65925
  Beta  occ. eigenvalues --   -0.65065  -0.63287  -0.62976  -0.59138  -0.55355
  Beta  occ. eigenvalues --   -0.52479  -0.51284  -0.50567  -0.48748  -0.44675
  Beta  occ. eigenvalues --   -0.42319  -0.42181  -0.40794  -0.39320  -0.38328
  Beta  occ. eigenvalues --   -0.38029  -0.37081  -0.36509  -0.35461  -0.34537
  Beta  occ. eigenvalues --   -0.33639  -0.33189  -0.32853  -0.31762  -0.30672
  Beta  occ. eigenvalues --   -0.29786  -0.29582  -0.28873  -0.28553  -0.27849
  Beta  occ. eigenvalues --   -0.27325  -0.27015  -0.25811  -0.25004  -0.23498
  Beta  occ. eigenvalues --   -0.23199  -0.21449  -0.20746  -0.20520  -0.16827
  Beta  occ. eigenvalues --   -0.16133  -0.15530  -0.11218
  Beta virt. eigenvalues --    0.05764   0.06720   0.06887   0.07173   0.07672
  Beta virt. eigenvalues --    0.08012   0.08213   0.08974   0.09134   0.09546
  Beta virt. eigenvalues --    0.09597   0.10128   0.10437   0.11377   0.11400

 Mulliken charges and spin densities:
               1          2
     1  C    0.498971  -1.122681
     2  C   -0.165853  -0.142368
     3  C    0.996745  -0.193234
     4  C    0.072762  -0.298150
     5  C   -0.366939  -0.098896
     6  C    0.164872  -0.152417
     7  C   -0.421925   0.027640
     8  C   -0.279965  -0.067134
     9  N   -0.184765  -0.108231
    10  O    0.068337   0.013667
    11  C    0.283743   0.134097
    12  C   -0.169811  -0.531436
    13  C    0.012699  -0.022830
    14  C    0.109776  -0.652060
    15  C   -0.059106   0.008556
    16  C   -0.767341  -0.173744
    17  O   -0.081353   0.002894
    18  C   -0.198184  -0.188002
    19  H   -0.127014   0.305189
    20  H    0.097861   0.066894
    21  H   -0.175540   0.323896
    22  H    0.107170   0.065784
    23  H   -0.251006   0.439792
    24  H   -0.304925   0.454105
    25  H    0.059743   0.098256
    26  H    0.166350   0.000372
    27  H   -0.319710   0.577322
    28  H   -0.348174   0.594591
    29  H    0.251012  -0.014291
    30  H   -0.097962   0.238934
    31  H    0.048163   0.102069
    32  H    0.177949  -0.039371
    33  H   -0.301806   0.496465
    34  H    0.024801   0.152842
    35  H   -0.042933   0.184543
    36  H    0.013900   0.195052
    37  H    0.288857  -0.063976
    38  H   -0.116486   0.262527
    39  H    0.035309   0.081077
    40  H    0.164340   0.050860
    41  H    0.137438  -0.008601
 Sum of Mulliken charges =  -1.00000   1.00000

 Dipole moment (field-independent basis, Debye):
    X=              7.2166    Y=             -2.6230    Z=              3.2390  Tot=              8.3337
 Quadrupole moment (field-independent basis, Debye-Ang):
   XX=           -227.1105   YY=           -155.2031   ZZ=           -142.6469
   XY=              8.2919   XZ=             -4.2206   YZ=              1.3376

 Summary of Natural Population Analysis:

                                       Natural Population
                Natural  -----------------------------------------------
    Atom  No    Charge         Core      Valence    Rydberg      Total
 -----------------------------------------------------------------------
      C    1   -0.30191      0.99965     2.29644    0.00582     3.30191
      C    2    0.06622      0.99951     1.92007    0.01421     2.93378
      C    3   -0.02434      0.99949     2.01442    0.01043     3.02434
      C    4   -0.12336      0.99946     2.11410    0.00980     3.12336
      C    5    0.09032      0.99949     1.89827    0.01191     2.90968
      C    6   -0.12759      0.99952     2.11807    0.01000     3.12759
      C    7   -0.09149      0.99957     2.08218    0.00975     3.09149
      C    8   -0.12308      0.99951     2.11454    0.00903     3.12308
      N    9   -0.39314      0.99972     2.88295    0.01047     3.89314
      O   10   -0.32022      0.99988     3.30879    0.01156     4.32022
      C   11    0.06068      0.99952     1.92554    0.01426     2.93932
      C   12   -0.19668      0.99960     2.18809    0.00900     3.19668
      C   13   -0.19635      0.99962     2.18766    0.00906     3.19635
      C   14   -0.20710      0.99961     2.19939    0.00811     3.20710
      C   15    0.07029      0.99953     1.91386    0.01633     2.92971
      C   16   -0.21226      0.99957     2.20351    0.00918     3.21226
      O   17   -0.30550      0.99988     3.29597    0.00965     4.30550
      C   18   -0.10574      0.99959     2.09764    0.00851     3.10574
      H   19    0.10078      0.00000     0.39806    0.00116     0.39922
      H   20    0.10364      0.00000     0.39541    0.00095     0.39636
      H   21    0.10567      0.00000     0.39328    0.00106     0.39433
      H   22    0.09344      0.00000     0.40530    0.00126     0.40656
      H   23    0.10391      0.00000     0.39411    0.00198     0.39609
      H   24    0.10020      0.00000     0.39884    0.00096     0.39980
      H   25    0.09808      0.00000     0.40112    0.00080     0.40192
      H   26    0.10440      0.00000     0.39412    0.00149     0.39560
      H   27    0.18758      0.00000     0.30687    0.00555     0.31242
      H   28    0.18983      0.00000     0.30271    0.00746     0.31017
      H   29    0.09419      0.00000     0.40378    0.00202     0.40581
      H   30    0.09628      0.00000     0.40259    0.00113     0.40372
      H   31    0.10240      0.00000     0.39649    0.00111     0.39760
      H   32    0.09937      0.00000     0.39891    0.00172     0.40063
      H   33    0.09871      0.00000     0.40028    0.00100     0.40129
      H   34    0.10191      0.00000     0.39717    0.00092     0.39809
      H   35    0.10132      0.00000     0.39751    0.00117     0.39868
      H   36    0.09016      0.00000     0.40857    0.00126     0.40984
      H   37    0.11381      0.00000     0.38490    0.00130     0.38619
      H   38    0.10131      0.00000     0.39767    0.00102     0.39869
      H   39    0.07313      0.00000     0.42567    0.00121     0.42687
      H   40    0.09671      0.00000     0.40191    0.00137     0.40329
      H   41    0.08440      0.00000     0.41473    0.00087     0.41560
 =======================================================================
   * Total *    0.00000     17.99271    49.78147    0.22582    68.00000

 Normal termination of Gaussian 16 at Fri Dec 11 21:21:37 2020.
