 Gaussian 16, Revision A.03,

 -----------------------------------------------------------
 # opt freq B3LYP/6-31G(d) empiricaldispersion=gd3bj scf=xqc
 -----------------------------------------------------------

 -------------------------------
 CID_117529455_JID_9336_neutraal
 -------------------------------
 Symbolic Z-matrix:
 Charge =  0 Multiplicity = 1

 SCF Done:  E(RB3LYP) =  -844.829118571     A.U. after   14 cycles
 SCF Done:  E(RB3LYP) =  -844.834946223     A.U. after   12 cycles
 SCF Done:  E(RB3LYP) =  -844.835689629     A.U. after   12 cycles
 SCF Done:  E(RB3LYP) =  -844.835991239     A.U. after   11 cycles
 SCF Done:  E(RB3LYP) =  -844.836084803     A.U. after   10 cycles
 SCF Done:  E(RB3LYP) =  -844.836139398     A.U. after   11 cycles
 SCF Done:  E(RB3LYP) =  -844.836165750     A.U. after   11 cycles
 SCF Done:  E(RB3LYP) =  -844.836175613     A.U. after   10 cycles
 SCF Done:  E(RB3LYP) =  -844.836179208     A.U. after    9 cycles
 SCF Done:  E(RB3LYP) =  -844.836180315     A.U. after    7 cycles
 SCF Done:  E(RB3LYP) =  -844.836181584     A.U. after    8 cycles
 SCF Done:  E(RB3LYP) =  -844.836182316     A.U. after    9 cycles
 SCF Done:  E(RB3LYP) =  -844.836182424     A.U. after    7 cycles
 SCF Done:  E(RB3LYP) =  -844.836182452     A.U. after    6 cycles
 Optimization completed.
    -- Stationary point found.
 Normal termination of Gaussian 16 at Mon Dec 14 16:50:35 2020.

 --------------------------------------------------------------------
 #N Geom=AllCheck Guess=TCheck SCRF=Check GenChk RB3LYP/6-31G(d) Freq
 --------------------------------------------------------------------

 Structure from the checkpoint file:  "JID_9336.chk"
 -------------------------------
 CID_117529455_JID_9336_neutraal
 -------------------------------
 Charge =  0 Multiplicity = 1

 SCF Done:  E(RB3LYP) =  -844.836182451     A.U. after    1 cycles

  Exact polarizability: 212.840  11.742 185.155  -5.613   4.546 124.052
 Approx polarizability: 281.875   7.328 287.784 -14.967  12.654 186.911

                      1                      2                      3
                      A                      A                      A
 Frequencies --     11.9575                50.8809                64.2678
 Red. masses --      4.2307                 3.8724                 2.7894
 Frc consts  --      0.0004                 0.0059                 0.0068
 IR Inten    --      0.0236                 0.2048                 4.9669

                      4                      5                      6
                      A                      A                      A
 Frequencies --     73.2460               100.2165               100.9368
 Red. masses --      2.6560                 2.3502                 3.2981
 Frc consts  --      0.0084                 0.0139                 0.0198
 IR Inten    --      1.7772                 0.1333                 0.0208

                      7                      8                      9
                      A                      A                      A
 Frequencies --    137.1772               162.6484               186.4451
 Red. masses --      3.6674                 3.0768                 3.1636
 Frc consts  --      0.0407                 0.0480                 0.0648
 IR Inten    --      0.5855                 1.5274                 1.1814

                     10                     11                     12
                      A                      A                      A
 Frequencies --    202.2818               226.5940               245.6583
 Red. masses --      1.7351                 2.2988                 3.3072
 Frc consts  --      0.0418                 0.0695                 0.1176
 IR Inten    --      0.0140                 1.6803                 1.4796

                     13                     14                     15
                      A                      A                      A
 Frequencies --    266.6405               279.2487               296.1892
 Red. masses --      2.1388                 1.8947                 1.6424
 Frc consts  --      0.0896                 0.0871                 0.0849
 IR Inten    --      1.3823                 0.6276                 0.1618

                     16                     17                     18
                      A                      A                      A
 Frequencies --    331.6665               332.7480               344.0926
 Red. masses --      2.8712                 2.3557                 3.3339
 Frc consts  --      0.1861                 0.1537                 0.2326
 IR Inten    --      9.5493                 2.0245                 5.8119

                     19                     20                     21
                      A                      A                      A
 Frequencies --    375.5582               402.5157               471.8523
 Red. masses --      4.1837                 3.5673                 4.7877
 Frc consts  --      0.3477                 0.3405                 0.6280
 IR Inten    --      0.6209                 3.8627                 1.7688

                     22                     23                     24
                      A                      A                      A
 Frequencies --    495.0609               504.4099               538.1175
 Red. masses --      4.6557                 2.4617                 3.4885
 Frc consts  --      0.6723                 0.3690                 0.5952
 IR Inten    --      0.4007                 2.1157                 5.2688

                     25                     26                     27
                      A                      A                      A
 Frequencies --    559.9750               591.9950               620.4123
 Red. masses --      3.9273                 4.9391                 3.2282
 Frc consts  --      0.7256                 1.0198                 0.7321
 IR Inten    --      8.2282                17.8431                 5.0131

                     28                     29                     30
                      A                      A                      A
 Frequencies --    627.8429               640.5068               650.4835
 Red. masses --      4.6526                 3.6620                 3.0236
 Frc consts  --      1.0806                 0.8852                 0.7538
 IR Inten    --      0.6121                17.4680                 1.2472

                     31                     32                     33
                      A                      A                      A
 Frequencies --    708.0087               764.6714               789.7671
 Red. masses --      2.5410                 1.5861                 3.2709
 Frc consts  --      0.7505                 0.5464                 1.2020
 IR Inten    --      4.5483                 8.2723                 6.0643

                     34                     35                     36
                      A                      A                      A
 Frequencies --    816.0789               831.8972               851.0840
 Red. masses --      1.7378                 1.7411                 1.8479
 Frc consts  --      0.6819                 0.7099                 0.7886
 IR Inten    --     84.9226                12.2265                19.6221

                     37                     38                     39
                      A                      A                      A
 Frequencies --    855.9574               883.4451               892.0827
 Red. masses --      1.4771                 1.5977                 2.2844
 Frc consts  --      0.6376                 0.7347                 1.0711
 IR Inten    --     24.8540                27.5643                 3.9404

                     40                     41                     42
                      A                      A                      A
 Frequencies --    917.0998               930.7521               951.1902
 Red. masses --      2.1445                 2.4089                 2.7364
 Frc consts  --      1.0627                 1.2295                 1.4587
 IR Inten    --     20.6572                 4.9129                 4.7624

                     43                     44                     45
                      A                      A                      A
 Frequencies --    955.7973               991.2871              1000.9171
 Red. masses --      2.5794                 1.8581                 2.7515
 Frc consts  --      1.3883                 1.0758                 1.6241
 IR Inten    --      0.7394                 6.4020                 3.3922

                     46                     47                     48
                      A                      A                      A
 Frequencies --   1018.6673              1031.8899              1063.8000
 Red. masses --      5.9409                 2.4532                 2.0376
 Frc consts  --      3.6322                 1.5391                 1.3586
 IR Inten    --      1.8591                 4.2013                26.3417

                     49                     50                     51
                      A                      A                      A
 Frequencies --   1083.7779              1098.3070              1101.1043
 Red. masses --      2.5303                 4.0533                 1.8210
 Frc consts  --      1.7510                 2.8808                 1.3008
 IR Inten    --     10.4693                 2.8206                22.7754

                     52                     53                     54
                      A                      A                      A
 Frequencies --   1116.3923              1133.9951              1143.0246
 Red. masses --      2.9418                 2.4190                 2.4216
 Frc consts  --      2.1602                 1.8328                 1.8641
 IR Inten    --     15.9762                10.9713                10.8454

                     55                     56                     57
                      A                      A                      A
 Frequencies --   1182.8301              1186.4847              1187.0286
 Red. masses --      2.2263                 1.2716                 1.2712
 Frc consts  --      1.8352                 1.0547                 1.0554
 IR Inten    --      9.7651                 0.6232                 0.4662

                     58                     59                     60
                      A                      A                      A
 Frequencies --   1198.6177              1202.7778              1209.9433
 Red. masses --      1.5939                 1.9968                 1.8683
 Frc consts  --      1.3492                 1.7020                 1.6115
 IR Inten    --     12.9245               198.6150                63.5685

                     61                     62                     63
                      A                      A                      A
 Frequencies --   1224.5039              1229.2918              1236.4406
 Red. masses --      1.3470                 1.4615                 2.0584
 Frc consts  --      1.1899                 1.3012                 1.8540
 IR Inten    --      9.3493                11.0061               233.0389

                     64                     65                     66
                      A                      A                      A
 Frequencies --   1251.1219              1272.5567              1283.9598
 Red. masses --      1.4593                 1.1823                 1.4194
 Frc consts  --      1.3458                 1.1280                 1.3787
 IR Inten    --     27.5074                 1.8844                 4.5528

                     67                     68                     69
                      A                      A                      A
 Frequencies --   1298.0637              1301.0920              1321.0422
 Red. masses --      1.3473                 1.4276                 1.3845
 Frc consts  --      1.3375                 1.4239                 1.4236
 IR Inten    --     10.7885                18.7323                31.2629

                     70                     71                     72
                      A                      A                      A
 Frequencies --   1336.1620              1342.0312              1356.5096
 Red. masses --      1.3247                 1.5719                 1.6769
 Frc consts  --      1.3934                 1.6680                 1.8181
 IR Inten    --      2.2851                20.1898                17.9547

                     73                     74                     75
                      A                      A                      A
 Frequencies --   1368.4496              1382.9756              1387.4278
 Red. masses --      2.0039                 1.5762                 1.4669
 Frc consts  --      2.2110                 1.7762                 1.6637
 IR Inten    --     20.6258                30.4838                28.2948

                     76                     77                     78
                      A                      A                      A
 Frequencies --   1388.9751              1394.7856              1423.6381
 Red. masses --      2.3856                 1.8707                 1.5000
 Frc consts  --      2.7116                 2.1442                 1.7912
 IR Inten    --     38.2198                25.9763                 2.0451

                     79                     80                     81
                      A                      A                      A
 Frequencies --   1435.7809              1482.5502              1500.3976
 Red. masses --      1.5507                 1.5326                 1.2666
 Frc consts  --      1.8835                 1.9847                 1.6800
 IR Inten    --      8.0504               112.2881                23.2113

                     82                     83                     84
                      A                      A                      A
 Frequencies --   1507.1660              1510.4067              1515.3138
 Red. masses --      1.0944                 1.2676                 1.0837
 Frc consts  --      1.4647                 1.7038                 1.4660
 IR Inten    --      2.9746                 4.0661                 1.2780

                     85                     86                     87
                      A                      A                      A
 Frequencies --   1519.3803              1520.0058              1521.4670
 Red. masses --      1.0569                 1.0505                 1.7176
 Frc consts  --      1.4375                 1.4300                 2.3426
 IR Inten    --      4.8356                 6.1363                26.2145

                     88                     89                     90
                      A                      A                      A
 Frequencies --   1523.4092              1525.5763              1534.3019
 Red. masses --      1.7314                 1.3335                 1.0938
 Frc consts  --      2.3675                 1.8286                 1.5171
 IR Inten    --     29.7051                17.9346                 5.3370

                     91                     92                     93
                      A                      A                      A
 Frequencies --   1536.3849              1542.4059              1553.0055
 Red. masses --      1.0547                 1.2774                 1.1101
 Frc consts  --      1.4668                 1.7904                 1.5775
 IR Inten    --     43.9832                 1.3505                 0.6142

                     94                     95                     96
                      A                      A                      A
 Frequencies --   1653.4323              1668.7161              2849.3268
 Red. masses --      5.7864                 6.2783                 1.0797
 Frc consts  --      9.3203                10.3005                 5.1645
 IR Inten    --    106.1721               231.5992                64.9021

                     97                     98                     99
                      A                      A                      A
 Frequencies --   2895.1884              2922.7329              3023.2189
 Red. masses --      1.0738                 1.0739                 1.0346
 Frc consts  --      5.3028                 5.4048                 5.5715
 IR Inten    --     74.2862               140.4931                64.1301

                    100                    101                    102
                      A                      A                      A
 Frequencies --   3024.0550              3051.8483              3062.1546
 Red. masses --      1.0348                 1.0852                 1.0597
 Frc consts  --      5.5753                 5.9549                 5.8543
 IR Inten    --     37.9838                36.9420                14.3126

                    103                    104                    105
                      A                      A                      A
 Frequencies --   3067.7880              3074.5562              3076.7939
 Red. masses --      1.0624                 1.0861                 1.0802
 Frc consts  --      5.8911                 6.0490                 6.0251
 IR Inten    --     40.0136                 5.9402                46.3919

                    106                    107                    108
                      A                      A                      A
 Frequencies --   3079.8204              3081.7770              3086.1385
 Red. masses --      1.1059                 1.1063                 1.0696
 Frc consts  --      6.1801                 6.1905                 6.0024
 IR Inten    --     53.5924                47.0999                52.2009

                    109                    110                    111
                      A                      A                      A
 Frequencies --   3108.0874              3111.0851              3129.2788
 Red. masses --      1.1057                 1.1050                 1.1061
 Frc consts  --      6.2934                 6.3017                 6.3818
 IR Inten    --     13.6111                15.0345                63.0164

                    112                    113                    114
                      A                      A                      A
 Frequencies --   3153.3317              3154.1909              3229.8289
 Red. masses --      1.0998                 1.0998                 1.0893
 Frc consts  --      6.4434                 6.4467                 6.6954
 IR Inten    --     34.1870                34.2400                 6.2785

                    115                    116                    117
                      A                      A                      A
 Frequencies --   3232.1569              3259.2450              3453.0581
 Red. masses --      1.0913                 1.0894                 1.0735
 Frc consts  --      6.7171                 6.8181                 7.5414
 IR Inten    --      2.1084                11.5223                 7.3980

 - Thermochemistry -
 -------------------
 Temperature   298.150 Kelvin.  Pressure   1.00000 Atm.
 Atom     1 has atomic number  6 and mass  12.00000

 Molecular mass:   262.16813 amu.
 Principal axes and moments of inertia in atomic units:
                           1         2         3
     Eigenvalues --  3020.789557333.947999304.26251
           X            0.99979   0.02052   0.00107
           Y           -0.02052   0.99979   0.00078
           Z           -0.00105  -0.00080   1.00000
 This molecule is an asymmetric top.
 Rotational symmetry number  1.
 Warning -- assumption of classical behavior for rotation
           may cause significant error
 Rotational temperatures (Kelvin)      0.02867     0.01181     0.00931
 Rotational constants (GHZ):           0.59744     0.24608     0.19397
 Zero-point vibrational energy     944838.7 (Joules/Mol)
                                  225.82186 (Kcal/Mol)
 Warning -- explicit consideration of  27 degrees of freedom as
           vibrations may cause significant error
 Vibrational temperatures:     17.20    73.21    92.47   105.38   144.19
          (Kelvin)            145.23   197.37   234.01   268.25   291.04
                              326.02   353.45   383.64   401.78   426.15
                              477.19   478.75   495.07   540.34   579.13
                              678.89   712.28   725.73   774.23   805.68
                              851.75   892.63   903.33   921.55   935.90
                             1018.67  1100.19  1136.30  1174.16  1196.91
                             1224.52  1231.53  1271.08  1283.51  1319.50
                             1339.14  1368.55  1375.18  1426.24  1440.10
                             1465.64  1484.66  1530.57  1559.31  1580.22
                             1584.24  1606.24  1631.57  1644.56  1701.83
                             1707.09  1707.87  1724.54  1730.53  1740.84
                             1761.79  1768.68  1778.96  1800.09  1830.93
                             1847.33  1867.62  1871.98  1900.69  1922.44
                             1930.88  1951.71  1968.89  1989.79  1996.20
                             1998.43  2006.79  2048.30  2065.77  2133.06
                             2158.74  2168.48  2173.14  2180.20  2186.05
                             2186.95  2189.05  2191.85  2194.96  2207.52
                             2210.52  2219.18  2234.43  2378.92  2400.91
                             4099.55  4165.53  4205.16  4349.74  4350.94
                             4390.93  4405.76  4413.86  4423.60  4426.82
                             4431.17  4433.99  4440.26  4471.84  4476.16
                             4502.33  4536.94  4538.18  4647.00  4650.35
                             4689.33  4968.18

 Zero-point correction=                           0.359870 (Hartree/Particle)
 Thermal correction to Energy=                    0.377399
 Thermal correction to Enthalpy=                  0.378343
 Thermal correction to Gibbs Free Energy=         0.313348
 Sum of electronic and zero-point Energies=           -844.476312
 Sum of electronic and thermal Energies=              -844.458784
 Sum of electronic and thermal Enthalpies=            -844.457840
 Sum of electronic and thermal Free Energies=         -844.522834

                     E (Thermal)             CV                S
                      KCal/Mol        Cal/Mol-Kelvin    Cal/Mol-Kelvin
 Total                  236.821             68.445            136.793
 Electronic               0.000              0.000              0.000
 Translational            0.889              2.981             42.591
 Rotational               0.889              2.981             33.688
 Vibrational            235.044             62.484             60.514
 Vibration     1          0.593              1.987              7.656
 Vibration     2          0.595              1.977              4.783
 Vibration     3          0.597              1.971              4.322
 Vibration     4          0.599              1.967              4.064
 Vibration     5          0.604              1.949              3.450
 Vibration     6          0.604              1.948              3.436
 Vibration     7          0.614              1.916              2.843
 Vibration     8          0.623              1.888              2.519
 Vibration     9          0.632              1.858              2.263
 Vibration    10          0.639              1.837              2.112
 Vibration    11          0.650              1.800              1.906
 Vibration    12          0.660              1.770              1.762
 Vibration    13          0.672              1.734              1.618
 Vibration    14          0.680              1.712              1.538
 Vibration    15          0.690              1.681              1.438
 Vibration    16          0.714              1.612              1.252
 Vibration    17          0.715              1.610              1.247
 Vibration    18          0.723              1.587              1.193
 Vibration    19          0.746              1.522              1.057
 Vibration    20          0.768              1.465              0.953
 Vibration    21          0.829              1.312              0.732
 Vibration    22          0.851              1.261              0.671
 Vibration    23          0.860              1.240              0.647
 Vibration    24          0.893              1.166              0.569
 Vibration    25          0.916              1.118              0.524
 Vibration    26          0.949              1.049              0.464
 Vibration    27          0.980              0.989              0.416

                           ! Non-Optimized Parameters !
 Normal termination of Gaussian 16 at Mon Dec 14 17:15:34 2020.

 ----------------------------------------------------------------------
 # B3LYP/6-311++G(d,p) empiricaldispersion=gd3bj scf=xqc pop=npa geom=c
 heck
 ----------------------------------------------------------------------

 ---------------------------------------
 CID_117529455_JID_9336_Energie_neutraal
 ---------------------------------------
 Structure from the checkpoint file:  "JID_9336.chk"
 Charge =  0 Multiplicity = 1

 SCF Done:  E(RB3LYP) =  -845.066473671     A.U. after   14 cycles
 Normal termination of Gaussian 16 at Mon Dec 14 17:26:17 2020.

 ----------------------------------------------------------------------
 # B3LYP/6-311++G(d,p) empiricaldispersion=gd3bj scf=xqc pop=npa geom=c
 heck
 ----------------------------------------------------------------------

 -------------------------------------
 CID_117529455_JID_9336_Energie_kation
 -------------------------------------
 Structure from the checkpoint file:  "JID_9336.chk"
 Charge =  1 Multiplicity = 2

 SCF Done:  E(UB3LYP) =  -844.798589100     A.U. after   24 cycles
 Normal termination of Gaussian 16 at Mon Dec 14 17:52:23 2020.
 Gaussian 16:  ES64L-G16RevA.03 25-Dec-2016

 ----------------------------------------------------------------------
 # B3LYP/6-311++G(d,p) empiricaldispersion=gd3bj scf=xqc pop=npa geom=c
 heck
 ----------------------------------------------------------------------

 ------------------------------------
 CID_117529455_JID_9336_Energie_anion
 ------------------------------------
 Structure from the checkpoint file:  "JID_9336.chk"
 Charge = -1 Multiplicity = 2

                         Standard orientation:
 ---------------------------------------------------------------------
 Center     Atomic      Atomic             Coordinates (Angstroms)
 Number     Number       Type             X           Y           Z
 ---------------------------------------------------------------------
      1          6           0       -0.058099    3.602831    0.045691
      2          8           0       -1.369653    3.092660    0.206708
      3          6           0       -1.554649    1.749312    0.027050
      4          6           0       -2.855277    1.288029    0.216829
      5          6           0       -3.129152   -0.073694    0.070093
      6          6           0       -2.110638   -0.967796   -0.274563
      7          6           0       -0.809026   -0.493961   -0.471773
      8          6           0       -0.523874    0.864182   -0.318164
      9          6           0        0.262256   -1.516732   -0.837059
     10          6           0        1.517350   -0.929071   -1.517340
     11          7           0        2.338130   -0.233630   -0.545653
     12          6           0        3.577852    0.357235   -1.027696
     13          6           0        4.320838    0.738095    0.275270
     14          6           0        3.648555   -0.131047    1.377556
     15          6           0        2.724961   -1.067912    0.591069
     16          6           0        1.472371   -1.597747    1.283891
     17          7           0        0.598705   -2.326880    0.354813
     18          8           0       -4.430655   -0.435413    0.281215
     19          6           0       -4.761301   -1.807991    0.167796
     20          1           0       -0.127380    4.674934    0.239406
     21          1           0        0.317033    3.440555   -0.973635
     22          1           0        0.643687    3.147833    0.757311
     23          1           0       -3.647837    1.977185    0.484126
     24          1           0       -2.302478   -2.028840   -0.375658
     25          1           0        0.497447    1.199010   -0.427445
     26          1           0       -0.191674   -2.213496   -1.552082
     27          1           0        2.079324   -1.761829   -1.991481
     28          1           0        1.230180   -0.233676   -2.314870
     29          1           0        3.372233    1.212642   -1.680714
     30          1           0        4.172262   -0.373289   -1.612040
     31          1           0        4.204622    1.803095    0.495174
     32          1           0        5.392595    0.537930    0.189156
     33          1           0        3.050253    0.494010    2.049308
     34          1           0        4.371652   -0.680737    1.986853
     35          1           0        3.314783   -1.943379    0.233988
     36          1           0        0.904210   -0.757200    1.697886
     37          1           0        1.737080   -2.266363    2.110529
     38          1           0        1.095591   -3.160306    0.037128
     39          1           0       -4.569303   -2.187731   -0.844702
     40          1           0       -4.203416   -2.418949    0.889604
     41          1           0       -5.829241   -1.878201    0.382753
 ---------------------------------------------------------------------

 SCF Done:  E(UB3LYP) =  -845.054674342     A.U. after   33 cycles
 SCF Done:  E(UB3LYP) =  -845.054674342     a.u. after    1 cycles

 The electronic state is 2-A.
 Alpha  occ. eigenvalues --  -19.06387 -19.06058 -14.20876 -14.20372 -10.14060
 Alpha  occ. eigenvalues --  -10.13913 -10.13635 -10.13023 -10.10911 -10.10006
 Alpha  occ. eigenvalues --  -10.09804 -10.09768 -10.09466 -10.08656 -10.07709
 Alpha  occ. eigenvalues --  -10.07656 -10.06918 -10.06813 -10.06447  -0.97997
 Alpha  occ. eigenvalues --   -0.97618  -0.85931  -0.80513  -0.75767  -0.70445
 Alpha  occ. eigenvalues --   -0.67619  -0.66253  -0.64965  -0.62206  -0.61236
 Alpha  occ. eigenvalues --   -0.59486  -0.55369  -0.54134  -0.49729  -0.49295
 Alpha  occ. eigenvalues --   -0.49142  -0.47103  -0.43709  -0.41526  -0.40759
 Alpha  occ. eigenvalues --   -0.40126  -0.39578  -0.38814  -0.38319  -0.37951
 Alpha  occ. eigenvalues --   -0.37655  -0.35963  -0.35209  -0.34366  -0.33598
 Alpha  occ. eigenvalues --   -0.31842  -0.31381  -0.30442  -0.29881  -0.29051
 Alpha  occ. eigenvalues --   -0.28609  -0.28030  -0.27149  -0.26227  -0.25694
 Alpha  occ. eigenvalues --   -0.25389  -0.25187  -0.24483  -0.24361  -0.23139
 Alpha  occ. eigenvalues --   -0.23035  -0.20837  -0.14467  -0.13445  -0.12943
 Alpha  occ. eigenvalues --   -0.11964   0.03959
 Alpha virt. eigenvalues --    0.05495   0.06045   0.06816   0.07411   0.08109
 Alpha virt. eigenvalues --    0.08328   0.08735   0.08924   0.09337   0.09672
 Alpha virt. eigenvalues --    0.10089   0.10555   0.10657   0.10964   0.11651

  Beta  occ. eigenvalues --  -19.06383 -19.06054 -14.20855 -14.20354 -10.14060
  Beta  occ. eigenvalues --  -10.13913 -10.13612 -10.12996 -10.10903 -10.09992
  Beta  occ. eigenvalues --  -10.09784 -10.09750 -10.09458 -10.08643 -10.07693
  Beta  occ. eigenvalues --  -10.07646 -10.06912 -10.06805 -10.06444  -0.97987
  Beta  occ. eigenvalues --   -0.97609  -0.85901  -0.80475  -0.75752  -0.70417
  Beta  occ. eigenvalues --   -0.67592  -0.66235  -0.64929  -0.62173  -0.61208
  Beta  occ. eigenvalues --   -0.59449  -0.55326  -0.54098  -0.49692  -0.49257
  Beta  occ. eigenvalues --   -0.49109  -0.47061  -0.43681  -0.41493  -0.40715
  Beta  occ. eigenvalues --   -0.40112  -0.39549  -0.38780  -0.38300  -0.37913
  Beta  occ. eigenvalues --   -0.37635  -0.35931  -0.35182  -0.34327  -0.33569
  Beta  occ. eigenvalues --   -0.31819  -0.31360  -0.30402  -0.29864  -0.29027
  Beta  occ. eigenvalues --   -0.28576  -0.28011  -0.27112  -0.26199  -0.25664
  Beta  occ. eigenvalues --   -0.25371  -0.25161  -0.24451  -0.24330  -0.23113
  Beta  occ. eigenvalues --   -0.23007  -0.20807  -0.14416  -0.13417  -0.12889
  Beta  occ. eigenvalues --   -0.11900
  Beta virt. eigenvalues --    0.05943   0.06256   0.06798   0.07312   0.07782
  Beta virt. eigenvalues --    0.08295   0.08622   0.09109   0.09245   0.09761
  Beta virt. eigenvalues --    0.09790   0.10259   0.10629   0.10880   0.11190

 Mulliken charges and spin densities:
               1          2
     1  C    0.066965  -0.420016
     2  O   -0.163156   0.004256
     3  C   -0.621161   0.043959
     4  C   -0.614450  -0.007896
     5  C   -0.913443   0.157187
     6  C    0.523936  -0.163050
     7  C    1.536263  -0.533682
     8  C   -0.198448   0.230498
     9  C    0.674200  -0.555520
    10  C   -1.514006   0.770600
    11  N    0.241838  -0.059189
    12  C    0.113383  -0.328353
    13  C    0.261385  -0.653850
    14  C    0.116713  -0.558180
    15  C    0.496836  -0.254357
    16  C   -0.625469  -0.168180
    17  N    0.034871  -0.056565
    18  O   -0.184037   0.023971
    19  C    0.151399  -0.514367
    20  H   -0.289576   0.464365
    21  H   -0.276811   0.434000
    22  H    0.039448   0.125153
    23  H    0.133822   0.035971
    24  H    0.255733  -0.079341
    25  H    1.871702  -1.605611
    26  H   -0.530700   0.762265
    27  H   -0.283792   0.423571
    28  H   -0.218624   0.386374
    29  H   -0.250390   0.398549
    30  H   -0.087988   0.195965
    31  H   -0.109790   0.249467
    32  H   -0.116425   0.253945
    33  H    0.103507   0.025411
    34  H   -0.090919   0.224992
    35  H   -0.227354   0.396497
    36  H    0.071606   0.084641
    37  H   -0.141092   0.312780
    38  H   -0.001496   0.244885
    39  H   -0.126952   0.283753
    40  H    0.008440   0.146654
    41  H   -0.115970   0.278446
 Sum of Mulliken charges =  -1.00000   1.00000

 Dipole moment (field-independent basis, Debye):
    X=             -1.8860    Y=              1.1371    Z=              2.0758  Tot=              3.0263
 Quadrupole moment (field-independent basis, Debye-Ang):
   XX=           -194.8358   YY=           -178.2104   ZZ=           -149.5358
   XY=             -1.0333   XZ=              2.7224   YZ=             -1.2090

 Summary of Natural Population Analysis:

                                       Natural Population
                Natural  -----------------------------------------------
    Atom  No    Charge         Core      Valence    Rydberg      Total
 -----------------------------------------------------------------------
      C    1   -0.10130      0.99960     2.09216    0.00953     3.10130
      O    2   -0.27491      0.99986     3.26593    0.00912     4.27491
      C    3    0.16863      0.99939     1.81890    0.01308     2.83137
      C    4   -0.14545      0.99948     2.13708    0.00888     3.14545
      C    5    0.16688      0.99939     1.82042    0.01331     2.83312
      C    6   -0.15163      0.99946     2.14361    0.00856     3.15163
      C    7    0.00718      0.99951     1.98289    0.01041     2.99282
      C    8   -0.16351      0.99945     2.15675    0.00730     3.16351
      C    9   -0.02117      0.99954     2.00590    0.01572     3.02117
      C   10   -0.08808      0.99960     2.07665    0.01183     3.08808
      N   11   -0.29088      0.99968     2.77793    0.01327     3.79088
      C   12   -0.07951      0.99963     2.06929    0.01058     3.07951
      C   13   -0.19319      0.99964     2.18584    0.00772     3.19319
      C   14   -0.19025      0.99961     2.18202    0.00862     3.19025
      C   15   -0.01052      0.99959     1.99819    0.01275     3.01052
      C   16   -0.09188      0.99958     2.08041    0.01190     3.09188
      N   17   -0.33184      0.99975     2.81961    0.01248     3.83184
      O   18   -0.27510      0.99986     3.26605    0.00920     4.27510
      C   19   -0.10172      0.99960     2.09305    0.00906     3.10172
      H   20    0.09164      0.00000     0.40732    0.00104     0.40836
      H   21    0.08679      0.00000     0.41186    0.00134     0.41321
      H   22    0.08537      0.00000     0.41325    0.00137     0.41463
      H   23    0.10839      0.00000     0.39008    0.00152     0.39161
      H   24    0.10797      0.00000     0.39032    0.00171     0.39203
      H   25    0.11891      0.00000     0.37809    0.00301     0.38109
      H   26    0.10378      0.00000     0.39415    0.00208     0.39622
      H   27    0.08578      0.00000     0.41239    0.00182     0.41422
      H   28    0.10145      0.00000     0.39722    0.00133     0.39855
      H   29    0.09730      0.00000     0.40120    0.00149     0.40270
      H   30    0.07974      0.00000     0.41865    0.00161     0.42026
      H   31    0.09939      0.00000     0.39938    0.00123     0.40061
      H   32    0.09800      0.00000     0.40092    0.00108     0.40200
      H   33    0.09763      0.00000     0.40108    0.00129     0.40237
      H   34    0.09953      0.00000     0.39960    0.00087     0.40047
      H   35    0.07697      0.00000     0.42039    0.00264     0.42303
      H   36    0.09762      0.00000     0.40090    0.00148     0.40238
      H   37    0.09598      0.00000     0.40324    0.00078     0.40402
      H   38    0.17331      0.00000     0.32385    0.00284     0.32669
      H   39    0.08597      0.00000     0.41266    0.00137     0.41403
      H   40    0.08567      0.00000     0.41314    0.00120     0.41433
      H   41    0.09103      0.00000     0.40806    0.00090     0.40897
 =======================================================================
   * Total *    0.00000     18.99223    51.77045    0.23732    71.00000

 Normal termination of Gaussian 16 at Mon Dec 14 18:26:16 2020.
