 Gaussian 16, Revision A.03,

 -----------------------------------------------------------
 # opt freq B3LYP/6-31G(d) empiricaldispersion=gd3bj scf=xqc
 -----------------------------------------------------------

 ------------------------------
 CID_80590532_JID_7788_neutraal
 ------------------------------
 Symbolic Z-matrix:
 Charge =  0 Multiplicity = 1

 SCF Done:  E(RB3LYP) =  -801.823220794     A.U. after   15 cycles
 SCF Done:  E(RB3LYP) =  -801.838014722     A.U. after   13 cycles
 SCF Done:  E(RB3LYP) =  -801.840115652     A.U. after   13 cycles
 SCF Done:  E(RB3LYP) =  -801.841482003     A.U. after   13 cycles
 SCF Done:  E(RB3LYP) =  -801.842049957     A.U. after   12 cycles
 SCF Done:  E(RB3LYP) =  -801.841573841     A.U. after   12 cycles
 SCF Done:  E(RB3LYP) =  -801.842768688     A.U. after   12 cycles
 SCF Done:  E(RB3LYP) =  -801.843422899     A.U. after   12 cycles
 SCF Done:  E(RB3LYP) =  -801.836079598     A.U. after   15 cycles
 SCF Done:  E(RB3LYP) =  -801.843521886     A.U. after   13 cycles
 SCF Done:  E(RB3LYP) =  -801.845506025     A.U. after    8 cycles
 SCF Done:  E(RB3LYP) =  -801.845506568     A.U. after    7 cycles
 SCF Done:  E(RB3LYP) =  -801.845506840     A.U. after    7 cycles
 SCF Done:  E(RB3LYP) =  -801.845506954     A.U. after    7 cycles
 SCF Done:  E(RB3LYP) =  -801.845507029     A.U. after    7 cycles
 Optimization completed.
    -- Stationary point found.
 Normal termination of Gaussian 16 at Fri Dec 11 13:28:03 2020.

 --------------------------------------------------------------------
 #N Geom=AllCheck Guess=TCheck SCRF=Check GenChk RB3LYP/6-31G(d) Freq
 --------------------------------------------------------------------

 Structure from the checkpoint file:  "JID_7788.chk"
 ------------------------------
 CID_80590532_JID_7788_neutraal
 ------------------------------
 Charge =  0 Multiplicity = 1

 SCF Done:  E(RB3LYP) =  -801.845507029     A.U. after    1 cycles

  Exact polarizability: 162.706  -7.630 131.791  -1.948  -0.427 140.481
 Approx polarizability: 199.682 -12.382 200.758  -4.234  -5.602 226.588

                      1                      2                      3
                      A                      A                      A
 Frequencies --     25.8833                32.9134                55.5212
 Red. masses --      3.9428                 4.2687                 4.3885
 Frc consts  --      0.0016                 0.0027                 0.0080
 IR Inten    --      0.4547                 0.0642                 1.1299

                      4                      5                      6
                      A                      A                      A
 Frequencies --     73.9012                78.0636               122.5642
 Red. masses --      4.5627                 3.3157                 3.0582
 Frc consts  --      0.0147                 0.0119                 0.0271
 IR Inten    --      0.7770                 0.2425                 0.3422

                      7                      8                      9
                      A                      A                      A
 Frequencies --    135.4014               139.8720               159.1150
 Red. masses --      3.4826                 4.4527                 5.0590
 Frc consts  --      0.0376                 0.0513                 0.0755
 IR Inten    --      1.3114                 0.0471                 0.2755

                     10                     11                     12
                      A                      A                      A
 Frequencies --    177.5009               211.5831               233.1261
 Red. masses --      2.9140                 3.1602                 2.0063
 Frc consts  --      0.0541                 0.0834                 0.0642
 IR Inten    --      1.3755                 1.0363                 7.9261

                     13                     14                     15
                      A                      A                      A
 Frequencies --    235.8847               248.4929               260.8560
 Red. masses --      1.3446                 1.7356                 1.8963
 Frc consts  --      0.0441                 0.0631                 0.0760
 IR Inten    --      1.2310                 4.3206                 8.2903

                     16                     17                     18
                      A                      A                      A
 Frequencies --    265.2820               277.1235               312.5965
 Red. masses --      1.9095                 1.6830                 3.1417
 Frc consts  --      0.0792                 0.0762                 0.1809
 IR Inten    --     45.7687                12.4416                 5.4587

                     19                     20                     21
                      A                      A                      A
 Frequencies --    339.1263               350.6235               364.5209
 Red. masses --      2.3682                 1.7884                 2.7253
 Frc consts  --      0.1605                 0.1295                 0.2134
 IR Inten    --     23.1330                56.9814                 5.2141

                     22                     23                     24
                      A                      A                      A
 Frequencies --    376.9421               405.8552               412.6096
 Red. masses --      2.0743                 2.0073                 2.1493
 Frc consts  --      0.1737                 0.1948                 0.2156
 IR Inten    --     48.1357                10.8176                22.1222

                     25                     26                     27
                      A                      A                      A
 Frequencies --    433.4336               502.5540               541.6200
 Red. masses --      1.9028                 2.7819                 1.9474
 Frc consts  --      0.2106                 0.4140                 0.3366
 IR Inten    --      0.0814                 7.9157                19.5822

                     28                     29                     30
                      A                      A                      A
 Frequencies --    553.2219               580.8470               627.7562
 Red. masses --      1.6550                 3.9027                 4.5839
 Frc consts  --      0.2984                 0.7758                 1.0643
 IR Inten    --     32.3470                 9.2997                22.8682

                     31                     32                     33
                      A                      A                      A
 Frequencies --    634.9174               661.2630               698.8677
 Red. masses --      3.2073                 3.8544                 1.8317
 Frc consts  --      0.7618                 0.9930                 0.5271
 IR Inten    --     30.0150                28.9571                 1.9288

                     34                     35                     36
                      A                      A                      A
 Frequencies --    745.1228               759.5319               793.8285
 Red. masses --      3.6429                 2.0762                 1.6666
 Frc consts  --      1.1917                 0.7057                 0.6188
 IR Inten    --     19.9621                 1.8426               184.3365

                     37                     38                     39
                      A                      A                      A
 Frequencies --    817.7398               830.9384               858.9534
 Red. masses --      1.3385                 2.0448                 2.0641
 Frc consts  --      0.5274                 0.8318                 0.8972
 IR Inten    --      3.1460                 5.6036                14.1251

                     40                     41                     42
                      A                      A                      A
 Frequencies --    881.6939               893.3342               950.8800
 Red. masses --      2.9040                 2.2768                 2.3119
 Frc consts  --      1.3301                 1.0705                 1.2316
 IR Inten    --      5.0588                 0.2235                 2.8789

                     43                     44                     45
                      A                      A                      A
 Frequencies --    961.1391               979.4127              1008.4133
 Red. masses --      2.5559                 5.1243                 1.8855
 Frc consts  --      1.3911                 2.8961                 1.1297
 IR Inten    --      0.8238                70.0308                13.6053

                     46                     47                     48
                      A                      A                      A
 Frequencies --   1016.0118              1048.7189              1083.8386
 Red. masses --      1.7603                 4.3348                 1.2300
 Frc consts  --      1.0706                 2.8089                 0.8513
 IR Inten    --      8.5268                 0.7253                 0.5280

                     49                     50                     51
                      A                      A                      A
 Frequencies --   1087.8759              1098.9738              1108.3797
 Red. masses --      1.5282                 2.7750                 3.1111
 Frc consts  --      1.0656                 1.9746                 2.2519
 IR Inten    --     11.0129                15.8423                10.5930

                     52                     53                     54
                      A                      A                      A
 Frequencies --   1113.4370              1139.4469              1146.3981
 Red. masses --      2.0315                 1.3392                 2.2438
 Frc consts  --      1.4839                 1.0244                 1.7374
 IR Inten    --     14.5992                11.9526                 8.8987

                     55                     56                     57
                      A                      A                      A
 Frequencies --   1162.9241              1194.9694              1200.7997
 Red. masses --      1.9679                 1.4064                 1.9328
 Frc consts  --      1.5680                 1.1833                 1.6420
 IR Inten    --     50.4032                 7.0035                 2.7228

                     58                     59                     60
                      A                      A                      A
 Frequencies --   1219.7787              1220.5922              1255.5332
 Red. masses --      1.2998                 1.9783                 1.2805
 Frc consts  --      1.1395                 1.7366                 1.1893
 IR Inten    --      1.3434                12.3810                20.4307

                     61                     62                     63
                      A                      A                      A
 Frequencies --   1259.4886              1273.9259              1290.4809
 Red. masses --      1.2584                 1.3643                 1.4030
 Frc consts  --      1.1761                 1.3045                 1.3766
 IR Inten    --     10.0282                 1.8795                 1.4929

                     64                     65                     66
                      A                      A                      A
 Frequencies --   1300.4453              1325.0080              1339.0378
 Red. masses --      1.4872                 1.3384                 2.5972
 Frc consts  --      1.4818                 1.3844                 2.7437
 IR Inten    --      1.8358                 4.2744                22.5433

                     67                     68                     69
                      A                      A                      A
 Frequencies --   1367.0709              1373.3904              1376.5885
 Red. masses --      1.7082                 1.5593                 1.8261
 Frc consts  --      1.8809                 1.7328                 2.0388
 IR Inten    --     78.8803                 9.5375               158.1989

                     70                     71                     72
                      A                      A                      A
 Frequencies --   1412.4470              1417.0748              1423.2550
 Red. masses --      1.8497                 1.4408                 2.0539
 Frc consts  --      2.1742                 1.7047                 2.4513
 IR Inten    --     97.4302                 1.7745                 2.5393

                     73                     74                     75
                      A                      A                      A
 Frequencies --   1428.1544              1472.7006              1491.9679
 Red. masses --      1.4042                 1.1430                 1.3078
 Frc consts  --      1.6874                 1.4606                 1.7152
 IR Inten    --     41.6262                 0.1181                21.5154

                     76                     77                     78
                      A                      A                      A
 Frequencies --   1497.7575              1506.6788              1510.7152
 Red. masses --      1.2566                 1.0959                 1.0520
 Frc consts  --      1.6609                 1.4658                 1.4146
 IR Inten    --     29.9793                 7.1597                 9.6647

                     79                     80                     81
                      A                      A                      A
 Frequencies --   1513.1241              1519.6592              1521.1091
 Red. masses --      1.0864                 1.1120                 1.0831
 Frc consts  --      1.4655                 1.5131                 1.4765
 IR Inten    --      3.9112                 2.9949                 7.2858

                     82                     83                     84
                      A                      A                      A
 Frequencies --   1527.6894              1542.0598              1542.8154
 Red. masses --      1.1134                 1.0771                 1.1119
 Frc consts  --      1.5310                 1.5090                 1.5594
 IR Inten    --      5.5289                16.0275                 2.4538

                     85                     86                     87
                      A                      A                      A
 Frequencies --   1553.2541              1564.3205              1669.5081
 Red. masses --      1.0710                 1.0692                 1.2088
 Frc consts  --      1.5224                 1.5416                 1.9851
 IR Inten    --     15.9796                 8.6445                59.1847

                     88                     89                     90
                      A                      A                      A
 Frequencies --   1724.2797              1773.4568              2946.6031
 Red. masses --      5.1760                 8.2986                 1.0608
 Frc consts  --      9.0669                15.3780                 5.4267
 IR Inten    --     72.2927               324.7767                74.8076

                     91                     92                     93
                      A                      A                      A
 Frequencies --   2996.5361              3018.1619              3041.8347
 Red. masses --      1.0493                 1.0654                 1.0642
 Frc consts  --      5.5511                 5.7181                 5.8015
 IR Inten    --     68.3410                26.5931                43.6956

                     94                     95                     96
                      A                      A                      A
 Frequencies --   3058.7441              3059.0752              3060.9989
 Red. masses --      1.0726                 1.0866                 1.0717
 Frc consts  --      5.9124                 5.9909                 5.9160
 IR Inten    --     64.2637                21.1630                38.6049

                     97                     98                     99
                      A                      A                      A
 Frequencies --   3063.0945              3068.8288              3087.4812
 Red. masses --      1.0850                 1.0665                 1.0593
 Frc consts  --      5.9982                 5.9179                 5.9495
 IR Inten    --     53.7034                11.9623                23.0277

                    100                    101                    102
                      A                      A                      A
 Frequencies --   3089.9174              3105.9705              3108.7634
 Red. masses --      1.0949                 1.1033                 1.0631
 Frc consts  --      6.1589                 6.2708                 6.0536
 IR Inten    --     49.4863                30.2259                14.2325

                    103                    104                    105
                      A                      A                      A
 Frequencies --   3109.3206              3110.1562              3115.3990
 Red. masses --      1.1025                 1.1016                 1.1007
 Frc consts  --      6.2802                 6.2781                 6.2945
 IR Inten    --      5.9538                64.0924                29.5874

                    106                    107                    108
                      A                      A                      A
 Frequencies --   3139.0714              3171.1063              3524.2074
 Red. masses --      1.1081                 1.1083                 1.0478
 Frc consts  --      6.4333                 6.5667                 7.6672
 IR Inten    --     24.5337                 7.8883                 8.9069

                    109                    110                    111
                      A                      A                      A
 Frequencies --   3605.1113              3625.7085              3775.2883
 Red. masses --      1.0749                 1.0967                 1.0679
 Frc consts  --      8.2310                 8.4941                 8.9680
 IR Inten    --     18.1770                 9.9053                61.4504

 - Thermochemistry -
 -------------------
 Temperature   298.150 Kelvin.  Pressure   1.00000 Atm.
 Atom     1 has atomic number  6 and mass  12.00000

 Molecular mass:   242.17428 amu.
 Principal axes and moments of inertia in atomic units:
                           1         2         3
     Eigenvalues --  2208.672646375.623786560.06435
           X            0.99998  -0.00435  -0.00453
           Y            0.00471   0.99666   0.08148
           Z            0.00416  -0.08150   0.99666
 This molecule is an asymmetric top.
 Rotational symmetry number  1.
 Warning -- assumption of classical behavior for rotation
           may cause significant error
 Rotational temperatures (Kelvin)      0.03922     0.01359     0.01320
 Rotational constants (GHZ):           0.81712     0.28307     0.27511
 Zero-point vibrational energy     900233.9 (Joules/Mol)
                                  215.16106 (Kcal/Mol)
 Warning -- explicit consideration of  29 degrees of freedom as
           vibrations may cause significant error
 Vibrational temperatures:     37.24    47.36    79.88   106.33   112.32
          (Kelvin)            176.34   194.81   201.24   228.93   255.38
                              304.42   335.42   339.39   357.53   375.31
                              381.68   398.72   449.76   487.93   504.47
                              524.46   542.34   583.94   593.65   623.61
                              723.06   779.27   795.96   835.71   903.20
                              913.50   951.41  1005.51  1072.07  1092.80
                             1142.14  1176.55  1195.54  1235.84  1268.56
                             1285.31  1368.10  1382.86  1409.16  1450.88
                             1461.81  1508.87  1559.40  1565.21  1581.18
                             1594.71  1601.99  1639.41  1649.41  1673.19
                             1719.29  1727.68  1754.99  1756.16  1806.43
                             1812.12  1832.90  1856.71  1871.05  1906.39
                             1926.58  1966.91  1976.00  1980.60  2032.20
                             2038.85  2047.75  2054.80  2118.89  2146.61
                             2154.94  2167.77  2173.58  2177.05  2186.45
                             2188.54  2198.00  2218.68  2219.77  2234.79
                             2250.71  2402.05  2480.85  2551.61  4239.50
                             4311.35  4342.46  4376.52  4400.85  4401.33
                             4404.09  4407.11  4415.36  4442.20  4445.70
                             4468.80  4472.82  4473.62  4474.82  4482.36
                             4516.42  4562.51  5070.55  5186.95  5216.59
                             5431.80

 Zero-point correction=                           0.342881 (Hartree/Particle)
 Thermal correction to Energy=                    0.361806
 Thermal correction to Enthalpy=                  0.362750
 Thermal correction to Gibbs Free Energy=         0.295724
 Sum of electronic and zero-point Energies=           -801.502626
 Sum of electronic and thermal Energies=              -801.483701
 Sum of electronic and thermal Enthalpies=            -801.482757
 Sum of electronic and thermal Free Energies=         -801.549783

                     E (Thermal)             CV                S
                      KCal/Mol        Cal/Mol-Kelvin    Cal/Mol-Kelvin
 Total                  227.037             71.186            141.069
 Electronic               0.000              0.000              0.000
 Translational            0.889              2.981             42.354
 Rotational               0.889              2.981             32.890
 Vibrational            225.259             65.224             65.824
 Vibration     1          0.593              1.985              6.122
 Vibration     2          0.594              1.983              5.646
 Vibration     3          0.596              1.975              4.610
 Vibration     4          0.599              1.966              4.047
 Vibration     5          0.599              1.964              3.939
 Vibration     6          0.610              1.930              3.060
 Vibration     7          0.613              1.918              2.868
 Vibration     8          0.615              1.913              2.806
 Vibration     9          0.621              1.892              2.560
 Vibration    10          0.628              1.870              2.355
 Vibration    11          0.643              1.823              2.030
 Vibration    12          0.654              1.790              1.855
 Vibration    13          0.655              1.786              1.834
 Vibration    14          0.662              1.765              1.741
 Vibration    15          0.669              1.744              1.656
 Vibration    16          0.671              1.737              1.627
 Vibration    17          0.678              1.716              1.551
 Vibration    18          0.701              1.650              1.349
 Vibration    19          0.719              1.597              1.216
 Vibration    20          0.728              1.574              1.163
 Vibration    21          0.738              1.545              1.103
 Vibration    22          0.747              1.519              1.051
 Vibration    23          0.771              1.457              0.941
 Vibration    24          0.776              1.443              0.917
 Vibration    25          0.794              1.397              0.848
 Vibration    26          0.858              1.244              0.652
 Vibration    27          0.897              1.158              0.562
 Vibration    28          0.909              1.133              0.538
 Vibration    29          0.938              1.073              0.484

                           ! Non-Optimized Parameters !
 Normal termination of Gaussian 16 at Fri Dec 11 13:45:51 2020.

 ----------------------------------------------------------------------
 # B3LYP/6-311++G(d,p) empiricaldispersion=gd3bj scf=xqc pop=npa geom=c
 heck
 ----------------------------------------------------------------------

 --------------------------------------
 CID_80590532_JID_7788_Energie_neutraal
 --------------------------------------
 Structure from the checkpoint file:  "JID_7788.chk"
 Charge =  0 Multiplicity = 1

 SCF Done:  E(RB3LYP) =  -802.090157208     A.U. after   16 cycles
 Normal termination of Gaussian 16 at Fri Dec 11 13:55:36 2020.

 ----------------------------------------------------------------------
 # B3LYP/6-311++G(d,p) empiricaldispersion=gd3bj scf=xqc pop=npa geom=c
 heck
 ----------------------------------------------------------------------

 ------------------------------------
 CID_80590532_JID_7788_Energie_kation
 ------------------------------------
 Structure from the checkpoint file:  "JID_7788.chk"
 Charge =  1 Multiplicity = 2

 SCF Done:  E(UB3LYP) =  -801.815471244     A.U. after   25 cycles
 Normal termination of Gaussian 16 at Fri Dec 11 14:17:23 2020.
 Gaussian 16:  ES64L-G16RevA.03 25-Dec-2016

 ----------------------------------------------------------------------
 # B3LYP/6-311++G(d,p) empiricaldispersion=gd3bj scf=xqc pop=npa geom=c
 heck
 ----------------------------------------------------------------------

 -----------------------------------
 CID_80590532_JID_7788_Energie_anion
 -----------------------------------
 Structure from the checkpoint file:  "JID_7788.chk"
 Charge = -1 Multiplicity = 2

                         Standard orientation:
 ---------------------------------------------------------------------
 Center     Atomic      Atomic             Coordinates (Angstroms)
 Number     Number       Type             X           Y           Z
 ---------------------------------------------------------------------
      1          6           0       -2.955890    0.284263    1.512529
      2          7           0       -3.746721   -0.016561    0.329309
      3          6           0       -4.115114    1.155098   -0.439334
      4          6           0       -3.332521   -1.164131   -0.466244
      5          6           0       -2.218706   -0.968169   -1.520956
      6          6           0       -0.912655   -0.359483   -1.010224
      7          7           0       -0.321841   -1.194027    0.028909
      8          6           0        0.892410   -1.094199    0.642624
      9          8           0        1.173948   -1.821381    1.588570
     10          6           0        1.957631   -0.176032    0.014529
     11          6           0        3.275532   -0.089475    0.850936
     12          6           0        4.090695   -0.400719   -0.428766
     13          6           0        2.787976   -0.915712   -1.089558
     14          6           0        1.481951    1.211610   -0.358184
     15          7           0        0.881039    2.021208    0.442494
     16          8           0        0.625882    1.391184    1.691183
     17          7           0        1.675365    1.665503   -1.665404
     18          1           0       -3.524770    0.973730    2.148977
     19          1           0       -1.968813    0.737731    1.322509
     20          1           0       -2.792285   -0.634932    2.085391
     21          1           0       -3.261409    1.694109   -0.892347
     22          1           0       -4.796648    0.865273   -1.247826
     23          1           0       -4.643728    1.863964    0.208963
     24          1           0       -3.055257   -1.960930    0.235940
     25          1           0       -4.216171   -1.538030   -1.003708
     26          1           0       -2.016985   -1.941827   -1.988401
     27          1           0       -2.592582   -0.313105   -2.316866
     28          1           0       -0.208247   -0.260451   -1.841447
     29          1           0       -1.103433    0.651805   -0.636698
     30          1           0       -0.941320   -1.818413    0.528893
     31          1           0        3.457214    0.858770    1.360652
     32          1           0        3.286963   -0.905081    1.575203
     33          1           0        4.915865   -1.112822   -0.339738
     34          1           0        4.473655    0.507082   -0.909783
     35          1           0        2.679336   -1.996055   -0.965477
     36          1           0        2.582627   -0.667390   -2.134468
     37          1           0        0.161198    2.089382    2.175649
     38          1           0        2.593531    1.465185   -2.045169
     39          1           0        1.449868    2.652420   -1.749526
 ---------------------------------------------------------------------

 SCF Done:  E(UB3LYP) =  -802.080436792     A.U. after   33 cycles
 SCF Done:  E(UB3LYP) =  -802.080436792     a.u. after    1 cycles

 The electronic state is 2-A.
 Alpha  occ. eigenvalues --  -19.06647 -18.99073 -14.24827 -14.23950 -14.22547
 Alpha  occ. eigenvalues --  -14.21410 -10.17905 -10.14947 -10.10969 -10.10939
 Alpha  occ. eigenvalues --  -10.10860 -10.09723 -10.09578 -10.08549 -10.08119
 Alpha  occ. eigenvalues --  -10.07825 -10.07558  -0.98327  -0.94328  -0.84665
 Alpha  occ. eigenvalues --   -0.83617  -0.82404  -0.76119  -0.72871  -0.68614
 Alpha  occ. eigenvalues --   -0.61988  -0.61708  -0.60857  -0.57459  -0.54119
 Alpha  occ. eigenvalues --   -0.51045  -0.50086  -0.48177  -0.46927  -0.43513
 Alpha  occ. eigenvalues --   -0.41145  -0.40503  -0.39152  -0.38905  -0.38559
 Alpha  occ. eigenvalues --   -0.37930  -0.36922  -0.36317  -0.34993  -0.34061
 Alpha  occ. eigenvalues --   -0.33046  -0.32430  -0.31899  -0.30394  -0.30190
 Alpha  occ. eigenvalues --   -0.29268  -0.28956  -0.28032  -0.27185  -0.26400
 Alpha  occ. eigenvalues --   -0.25981  -0.25711  -0.24516  -0.24123  -0.22634
 Alpha  occ. eigenvalues --   -0.21912  -0.18603  -0.16443  -0.16032  -0.13088
 Alpha  occ. eigenvalues --   -0.11828   0.04031
 Alpha virt. eigenvalues --    0.05657   0.06748   0.07282   0.07951   0.08210
 Alpha virt. eigenvalues --    0.08420   0.09081   0.09590   0.10065   0.10349
 Alpha virt. eigenvalues --    0.10578   0.10978   0.11176   0.11673   0.12355

  Beta  occ. eigenvalues --  -19.06641 -18.99071 -14.24816 -14.23946 -14.22480
  Beta  occ. eigenvalues --  -14.21410 -10.17905 -10.14941 -10.10966 -10.10930
  Beta  occ. eigenvalues --  -10.10846 -10.09713 -10.09546 -10.08527 -10.08101
  Beta  occ. eigenvalues --  -10.07796 -10.07555  -0.98317  -0.94325  -0.84609
  Beta  occ. eigenvalues --   -0.83606  -0.82394  -0.76090  -0.72815  -0.68588
  Beta  occ. eigenvalues --   -0.61963  -0.61672  -0.60826  -0.57424  -0.54083
  Beta  occ. eigenvalues --   -0.51005  -0.50019  -0.48131  -0.46871  -0.43482
  Beta  occ. eigenvalues --   -0.41122  -0.40475  -0.39119  -0.38877  -0.38505
  Beta  occ. eigenvalues --   -0.37909  -0.36892  -0.36273  -0.34970  -0.34045
  Beta  occ. eigenvalues --   -0.33025  -0.32405  -0.31877  -0.30379  -0.30168
  Beta  occ. eigenvalues --   -0.29244  -0.28939  -0.28006  -0.27162  -0.26381
  Beta  occ. eigenvalues --   -0.25958  -0.25683  -0.24493  -0.24087  -0.22605
  Beta  occ. eigenvalues --   -0.21879  -0.18569  -0.16436  -0.16023  -0.13061
  Beta  occ. eigenvalues --   -0.11815
  Beta virt. eigenvalues --    0.06012   0.06910   0.07116   0.07675   0.08314
  Beta virt. eigenvalues --    0.08517   0.08744   0.09409   0.09673   0.10326
  Beta virt. eigenvalues --    0.10659   0.10778   0.11131   0.11485   0.12080

 Mulliken charges and spin densities:
               1          2
     1  C   -0.390532  -0.105251
     2  N   -0.069348   0.119310
     3  C    0.581825  -0.955801
     4  C   -0.195006  -0.315301
     5  C   -2.227507   1.719154
     6  C    0.967455  -1.188708
     7  N    0.010135  -0.071904
     8  C   -0.757011   0.381062
     9  O   -0.298461   0.002556
    10  C   -1.488070   2.445284
    11  C    0.013616  -0.280891
    12  C    0.668127  -1.094304
    13  C    0.362307  -0.725878
    14  C    3.666799  -4.309364
    15  N   -0.499914   0.258096
    16  O   -0.024798  -0.012899
    17  N   -0.825806   0.664650
    18  H    0.036857   0.102346
    19  H    0.197629  -0.063861
    20  H    0.075041   0.073933
    21  H   -0.177922   0.324642
    22  H   -0.247072   0.397593
    23  H   -0.048957   0.171847
    24  H    0.065659   0.046510
    25  H   -0.294845   0.490431
    26  H   -0.139959   0.302277
    27  H   -0.031803   0.207993
    28  H    0.009276   0.265822
    29  H    0.242974  -0.142526
    30  H    0.327025  -0.028693
    31  H    0.146471   0.032803
    32  H    0.205002  -0.021012
    33  H    0.032000   0.116274
    34  H   -0.336691   0.472997
    35  H    0.103042   0.077443
    36  H   -0.294848   0.472543
    37  H    0.212006   0.053942
    38  H   -0.249355   0.526661
    39  H   -0.325339   0.590222
 Sum of Mulliken charges =  -1.00000   1.00000

 Dipole moment (field-independent basis, Debye):
    X=             -1.1767    Y=             -2.3933    Z=              5.2622  Tot=              5.8994
 Quadrupole moment (field-independent basis, Debye-Ang):
   XX=           -186.8624   YY=           -146.4668   ZZ=           -152.1618
   XY=             -5.7268   XZ=              3.9027   YZ=             13.8005

 Summary of Natural Population Analysis:

                                       Natural Population
                Natural  -----------------------------------------------
    Atom  No    Charge         Core      Valence    Rydberg      Total
 -----------------------------------------------------------------------
      C    1   -0.17605      0.99964     2.16946    0.00695     3.17605
      N    2   -0.28474      0.99974     2.77122    0.01378     3.78474
      C    3   -0.17755      0.99964     2.16930    0.00862     3.17755
      C    4   -0.08143      0.99960     2.06934    0.01249     3.08143
      C    5   -0.20261      0.99962     2.19425    0.00874     3.20261
      C    6   -0.09905      0.99960     2.08897    0.01048     3.09905
      N    7   -0.31773      0.99965     2.80898    0.00910     3.81773
      C    8    0.36344      0.99960     1.61392    0.02305     2.63656
      O    9   -0.32892      0.99988     3.32389    0.00516     4.32892
      C   10   -0.10139      0.99947     2.08676    0.01516     3.10139
      C   11   -0.17510      0.99961     2.16625    0.00924     3.17510
      C   12   -0.19295      0.99964     2.18481    0.00849     3.19295
      C   13   -0.18061      0.99962     2.17147    0.00952     3.18061
      C   14    0.20615      0.99955     1.77189    0.02241     2.79385
      N   15   -0.13066      0.99958     2.61821    0.01288     3.63066
      O   16   -0.29133      0.99990     3.28448    0.00695     4.29133
      N   17   -0.39681      0.99971     2.88619    0.01091     3.89681
      H   18    0.09116      0.00000     0.40793    0.00091     0.40884
      H   19    0.08747      0.00000     0.41105    0.00148     0.41253
      H   20    0.09306      0.00000     0.40597    0.00097     0.40694
      H   21    0.08304      0.00000     0.41532    0.00164     0.41696
      H   22    0.09630      0.00000     0.40255    0.00115     0.40370
      H   23    0.09368      0.00000     0.40530    0.00102     0.40632
      H   24    0.08809      0.00000     0.41069    0.00122     0.41191
      H   25    0.09678      0.00000     0.40206    0.00116     0.40322
      H   26    0.09933      0.00000     0.39942    0.00125     0.40067
      H   27    0.10464      0.00000     0.39422    0.00114     0.39536
      H   28    0.10629      0.00000     0.39109    0.00263     0.39371
      H   29    0.09610      0.00000     0.40075    0.00315     0.40390
      H   30    0.19071      0.00000     0.30650    0.00279     0.30929
      H   31    0.10195      0.00000     0.39718    0.00087     0.39805
      H   32    0.11449      0.00000     0.38441    0.00110     0.38551
      H   33    0.09597      0.00000     0.40322    0.00081     0.40403
      H   34    0.09868      0.00000     0.39932    0.00200     0.40132
      H   35    0.10421      0.00000     0.39463    0.00116     0.39579
      H   36    0.10586      0.00000     0.39260    0.00154     0.39414
      H   37    0.23373      0.00000     0.26362    0.00266     0.26627
      H   38    0.19319      0.00000     0.29776    0.00905     0.30681
      H   39    0.19262      0.00000     0.30274    0.00464     0.30738
 =======================================================================
   * Total *   -0.00000     16.99404    48.76771    0.23825    66.00000

 Normal termination of Gaussian 16 at Fri Dec 11 14:46:04 2020.
