 Gaussian 16, Revision A.03,

 -----------------------------------------------------------
 # opt freq B3LYP/6-31G(d) empiricaldispersion=gd3bj scf=xqc
 -----------------------------------------------------------

 ------------------------------
 CID_84122995_JID_5843_neutraal
 ------------------------------
 Symbolic Z-matrix:
 Charge =  0 Multiplicity = 1

 SCF Done:  E(RB3LYP) =  -691.169482695     A.U. after   14 cycles
 SCF Done:  E(RB3LYP) =  -691.174307805     A.U. after   12 cycles
 SCF Done:  E(RB3LYP) =  -691.175218582     A.U. after   12 cycles
 SCF Done:  E(RB3LYP) =  -691.175877392     A.U. after   12 cycles
 SCF Done:  E(RB3LYP) =  -691.176510344     A.U. after   12 cycles
 SCF Done:  E(RB3LYP) =  -691.177449521     A.U. after   12 cycles
 SCF Done:  E(RB3LYP) =  -691.178062298     A.U. after   12 cycles
 SCF Done:  E(RB3LYP) =  -691.178180873     A.U. after   12 cycles
 SCF Done:  E(RB3LYP) =  -691.178815463     A.U. after   11 cycles
 SCF Done:  E(RB3LYP) =  -691.179125838     A.U. after   11 cycles
 SCF Done:  E(RB3LYP) =  -691.181928042     A.U. after    9 cycles
 SCF Done:  E(RB3LYP) =  -691.181942006     A.U. after    9 cycles
 SCF Done:  E(RB3LYP) =  -691.181948933     A.U. after    9 cycles
 SCF Done:  E(RB3LYP) =  -691.181950216     A.U. after    7 cycles
 SCF Done:  E(RB3LYP) =  -691.181950551     A.U. after    7 cycles
 SCF Done:  E(RB3LYP) =  -691.181950619     A.U. after    7 cycles
 Optimization completed.
    -- Stationary point found.
 Normal termination of Gaussian 16 at Thu Dec 10 18:01:00 2020.

 --------------------------------------------------------------------
 #N Geom=AllCheck Guess=TCheck SCRF=Check GenChk RB3LYP/6-31G(d) Freq
 --------------------------------------------------------------------

 Structure from the checkpoint file:  "JID_5843.chk"
 ------------------------------
 CID_84122995_JID_5843_neutraal
 ------------------------------
 Charge =  0 Multiplicity = 1

 SCF Done:  E(RB3LYP) =  -691.181950619     A.U. after    1 cycles

  Exact polarizability: 143.374   2.605 133.395   2.407   2.953 111.464
 Approx polarizability: 182.951   5.298 198.599   5.302  12.833 167.379

                      1                      2                      3
                      A                      A                      A
 Frequencies --     38.8375                60.3030                90.0600
 Red. masses --      4.9717                 3.7982                 4.2833
 Frc consts  --      0.0044                 0.0081                 0.0205
 IR Inten    --      0.6511                 1.5364                 1.8202

                      4                      5                      6
                      A                      A                      A
 Frequencies --    113.6366               117.1051               129.3480
 Red. masses --      2.3060                 2.0716                 1.6536
 Frc consts  --      0.0175                 0.0167                 0.0163
 IR Inten    --      0.0282                 0.0984                 0.0735

                      7                      8                      9
                      A                      A                      A
 Frequencies --    150.6312               168.4565               176.6368
 Red. masses --      3.0881                 2.9669                 2.7524
 Frc consts  --      0.0413                 0.0496                 0.0506
 IR Inten    --      0.3826                 3.9508                 1.3584

                     10                     11                     12
                      A                      A                      A
 Frequencies --    209.7106               239.7522               248.6032
 Red. masses --      3.2933                 2.2929                 2.7886
 Frc consts  --      0.0853                 0.0777                 0.1015
 IR Inten    --      1.0867                 0.5538                 5.5252

                     13                     14                     15
                      A                      A                      A
 Frequencies --    277.7925               310.9088               343.5522
 Red. masses --      1.3303                 2.7042                 2.6797
 Frc consts  --      0.0605                 0.1540                 0.1863
 IR Inten    --      4.5590                 0.6768                 4.3033

                     16                     17                     18
                      A                      A                      A
 Frequencies --    360.2938               371.1859               392.0266
 Red. masses --      2.9513                 2.0194                 1.4024
 Frc consts  --      0.2257                 0.1639                 0.1270
 IR Inten    --      0.7758                18.0535                49.9476

                     19                     20                     21
                      A                      A                      A
 Frequencies --    399.3748               434.1703               504.0161
 Red. masses --      3.3123                 2.7506                 2.9716
 Frc consts  --      0.3113                 0.3055                 0.4448
 IR Inten    --     36.9821                 8.5204                 6.2483

                     22                     23                     24
                      A                      A                      A
 Frequencies --    512.7989               566.5845               614.7422
 Red. masses --      3.3432                 3.7351                 3.1778
 Frc consts  --      0.5180                 0.7065                 0.7076
 IR Inten    --      3.5278                 7.4522                 7.6437

                     25                     26                     27
                      A                      A                      A
 Frequencies --    670.2310               697.9147               759.5712
 Red. masses --      4.2585                 3.5757                 2.3535
 Frc consts  --      1.1271                 1.0262                 0.8000
 IR Inten    --      0.4701                 3.0571                 6.3533

                     28                     29                     30
                      A                      A                      A
 Frequencies --    803.6848               820.2063               837.4684
 Red. masses --      1.2138                 2.4913                 1.6089
 Frc consts  --      0.4619                 0.9875                 0.6649
 IR Inten    --      0.3066                 2.7131                 2.1026

                     31                     32                     33
                      A                      A                      A
 Frequencies --    856.6564               874.7521               917.0223
 Red. masses --      1.9658                 2.4673                 2.9329
 Frc consts  --      0.8499                 1.1124                 1.4531
 IR Inten    --     14.1052                 5.0691                13.2502

                     34                     35                     36
                      A                      A                      A
 Frequencies --    927.6728               958.4527               969.5854
 Red. masses --      2.5063                 1.8087                 2.3912
 Frc consts  --      1.2708                 0.9790                 1.3245
 IR Inten    --      8.4635                 3.3679                 1.9932

                     37                     38                     39
                      A                      A                      A
 Frequencies --    997.1793              1025.9897              1061.7025
 Red. masses --      1.7947                 1.9836                 1.2702
 Frc consts  --      1.0514                 1.2303                 0.8436
 IR Inten    --      1.8539                20.9037                17.6366

                     40                     41                     42
                      A                      A                      A
 Frequencies --   1071.5122              1079.3338              1092.8577
 Red. masses --      1.8863                 2.2404                 1.3938
 Frc consts  --      1.2760                 1.5378                 0.9808
 IR Inten    --     35.1392                29.4939                 2.1563

                     43                     44                     45
                      A                      A                      A
 Frequencies --   1104.0577              1107.5920              1128.1329
 Red. masses --      2.1434                 2.7558                 1.8283
 Frc consts  --      1.5393                 1.9918                 1.3709
 IR Inten    --     21.1546                40.2558                19.5043

                     46                     47                     48
                      A                      A                      A
 Frequencies --   1138.3966              1156.6811              1164.8254
 Red. masses --      1.8028                 1.1775                 1.9897
 Frc consts  --      1.3765                 0.9282                 1.5906
 IR Inten    --      3.4565                 1.4235                11.6501

                     49                     50                     51
                      A                      A                      A
 Frequencies --   1172.1349              1213.4602              1216.0038
 Red. masses --      1.6025                 1.3675                 1.5157
 Frc consts  --      1.2972                 1.1864                 1.3205
 IR Inten    --      1.5577                 1.0563                23.6765

                     52                     53                     54
                      A                      A                      A
 Frequencies --   1221.8994              1246.2169              1261.9317
 Red. masses --      1.8527                 1.3917                 1.8376
 Frc consts  --      1.6298                 1.2735                 1.7242
 IR Inten    --      1.8748                19.4561                45.0935

                     55                     56                     57
                      A                      A                      A
 Frequencies --   1274.0609              1276.7215              1321.1271
 Red. masses --      2.4726                 2.1346                 1.5183
 Frc consts  --      2.3648                 2.0500                 1.5613
 IR Inten    --     38.9907                28.5768                52.9865

                     58                     59                     60
                      A                      A                      A
 Frequencies --   1328.8514              1356.4390              1382.1473
 Red. masses --      1.4845                 2.1635                 1.4920
 Frc consts  --      1.5445                 2.3453                 1.6793
 IR Inten    --      4.6951                62.9555                28.5182

                     61                     62                     63
                      A                      A                      A
 Frequencies --   1390.0717              1399.2776              1414.2510
 Red. masses --      1.3747                 1.2532                 1.2598
 Frc consts  --      1.5651                 1.4456                 1.4846
 IR Inten    --      4.9289                 4.0655                14.6061

                     64                     65                     66
                      A                      A                      A
 Frequencies --   1420.8382              1432.5311              1438.2069
 Red. masses --      1.5017                 1.2866                 1.2462
 Frc consts  --      1.7861                 1.5557                 1.5187
 IR Inten    --     35.3566                36.7206                27.9512

                     67                     68                     69
                      A                      A                      A
 Frequencies --   1448.7647              1451.2937              1481.0752
 Red. masses --      1.3169                 1.4064                 1.1285
 Frc consts  --      1.6286                 1.7453                 1.4585
 IR Inten    --     26.7807                36.1808                11.3565

                     70                     71                     72
                      A                      A                      A
 Frequencies --   1483.4192              1506.3963              1519.9206
 Red. masses --      1.6152                 1.0852                 1.0606
 Frc consts  --      2.0941                 1.4509                 1.4436
 IR Inten    --     49.2576                 3.0166                14.2997

                     73                     74                     75
                      A                      A                      A
 Frequencies --   1523.6229              1526.1090              1531.6187
 Red. masses --      1.3091                 1.0971                 1.0582
 Frc consts  --      1.7906                 1.5055                 1.4626
 IR Inten    --      7.7945                 2.6641                11.5197

                     76                     77                     78
                      A                      A                      A
 Frequencies --   1540.1212              1542.9200              1559.1010
 Red. masses --      1.0749                 1.0869                 1.2343
 Frc consts  --      1.5022                 1.5245                 1.7677
 IR Inten    --      4.9693                 1.2218                23.1440

                     79                     80                     81
                      A                      A                      A
 Frequencies --   1760.0361              3003.6606              3009.1779
 Red. masses --     10.2997                 1.0714                 1.0664
 Frc consts  --     18.7983                 5.6952                 5.6896
 IR Inten    --    269.5176                49.2339                41.3262

                     82                     83                     84
                      A                      A                      A
 Frequencies --   3030.7146              3053.8402              3065.5041
 Red. masses --      1.0462                 1.0400                 1.0868
 Frc consts  --      5.6617                 5.7147                 6.0172
 IR Inten    --     70.8950                 8.3469                28.0411

                     85                     86                     87
                      A                      A                      A
 Frequencies --   3066.5796              3067.8767              3074.6775
 Red. masses --      1.0856                 1.0849                 1.0728
 Frc consts  --      6.0147                 6.0161                 5.9753
 IR Inten    --     22.3269                27.1515                21.8106

                     88                     89                     90
                      A                      A                      A
 Frequencies --   3075.6962              3089.8576              3094.0915
 Red. masses --      1.0789                 1.0973                 1.0910
 Frc consts  --      6.0136                 6.1724                 6.1537
 IR Inten    --     45.7808                32.9096                50.0689

                     91                     92                     93
                      A                      A                      A
 Frequencies --   3118.5158              3124.3911              3143.3625
 Red. masses --      1.1011                 1.1023                 1.1011
 Frc consts  --      6.3091                 6.3400                 6.4103
 IR Inten    --     52.6625                14.7880                21.8284

                     94                     95                     96
                      A                      A                      A
 Frequencies --   3150.0035              3157.3145              3193.7088
 Red. masses --      1.0525                 1.0573                 1.0966
 Frc consts  --      6.1532                 6.2098                 6.5900
 IR Inten    --     11.6365                 8.9245                 1.3156

                     97                     98                     99
                      A                      A                      A
 Frequencies --   3233.0190              3246.3053              3753.1416
 Red. masses --      1.1193                 1.1169                 1.0652
 Frc consts  --      6.8930                 6.9350                 8.8406
 IR Inten    --      0.4287                17.0434                71.4074

 - Thermochemistry -
 -------------------
 Temperature   298.150 Kelvin.  Pressure   1.00000 Atm.
 Atom     1 has atomic number  6 and mass  12.00000

 Molecular mass:   212.15248 amu.
 Principal axes and moments of inertia in atomic units:
                           1         2         3
     Eigenvalues --  2289.545603629.383684496.19601
           X            0.99996   0.00616   0.00645
           Y           -0.00602   0.99977  -0.02079
           Z           -0.00657   0.02075   0.99976
 This molecule is an asymmetric top.
 Rotational symmetry number  1.
 Warning -- assumption of classical behavior for rotation
           may cause significant error
 Rotational temperatures (Kelvin)      0.03783     0.02386     0.01926
 Rotational constants (GHZ):           0.78825     0.49726     0.40139
 Zero-point vibrational energy     816116.4 (Joules/Mol)
                                  195.05651 (Kcal/Mol)
 Warning -- explicit consideration of  24 degrees of freedom as
           vibrations may cause significant error
 Vibrational temperatures:     55.88    86.76   129.58   163.50   168.49
          (Kelvin)            186.10   216.72   242.37   254.14   301.73
                              344.95   357.68   399.68   447.33   494.30
                              518.38   534.05   564.04   574.61   624.67
                              725.17   737.80   815.19   884.48   964.31
                             1004.14  1092.85  1156.32  1180.09  1204.93
                             1232.54  1258.57  1319.39  1334.71  1379.00
                             1395.02  1434.72  1476.17  1527.55  1541.67
                             1552.92  1572.38  1588.49  1593.58  1623.13
                             1637.90  1664.21  1675.92  1686.44  1745.90
                             1749.56  1758.04  1793.03  1815.64  1833.09
                             1836.92  1900.81  1911.92  1951.61  1988.60
                             2000.00  2013.25  2034.79  2044.27  2061.09
                             2069.26  2084.45  2088.09  2130.94  2134.31
                             2167.37  2186.83  2192.15  2195.73  2203.66
                             2215.89  2219.92  2243.20  2532.30  4321.60
                             4329.54  4360.52  4393.79  4410.58  4412.12
                             4413.99  4423.78  4425.24  4445.62  4451.71
                             4486.85  4495.30  4522.60  4532.15  4542.67
                             4595.03  4651.59  4670.71  5399.93

 Zero-point correction=                           0.310842 (Hartree/Particle)
 Thermal correction to Energy=                    0.326586
 Thermal correction to Enthalpy=                  0.327530
 Thermal correction to Gibbs Free Energy=         0.268267
 Sum of electronic and zero-point Energies=           -690.871108
 Sum of electronic and thermal Energies=              -690.855365
 Sum of electronic and thermal Enthalpies=            -690.854421
 Sum of electronic and thermal Free Energies=         -690.913684

                     E (Thermal)             CV                S
                      KCal/Mol        Cal/Mol-Kelvin    Cal/Mol-Kelvin
 Total                  204.936             59.768            124.729
 Electronic               0.000              0.000              0.000
 Translational            0.889              2.981             41.960
 Rotational               0.889              2.981             31.991
 Vibrational            203.158             53.806             50.778
 Vibration     1          0.594              1.981              5.318
 Vibration     2          0.597              1.973              4.447
 Vibration     3          0.602              1.956              3.659
 Vibration     4          0.607              1.938              3.206
 Vibration     5          0.608              1.935              3.148
 Vibration     6          0.612              1.924              2.956
 Vibration     7          0.618              1.902              2.664
 Vibration     8          0.625              1.881              2.453
 Vibration     9          0.628              1.871              2.364
 Vibration    10          0.642              1.826              2.046
 Vibration    11          0.657              1.780              1.805
 Vibration    12          0.662              1.765              1.740
 Vibration    13          0.679              1.715              1.547
 Vibration    14          0.700              1.653              1.357
 Vibration    15          0.722              1.588              1.196
 Vibration    16          0.735              1.554              1.121
 Vibration    17          0.743              1.531              1.075
 Vibration    18          0.759              1.487              0.992
 Vibration    19          0.765              1.471              0.965
 Vibration    20          0.795              1.396              0.845
 Vibration    21          0.859              1.241              0.648
 Vibration    22          0.868              1.222              0.627
 Vibration    23          0.922              1.104              0.511
 Vibration    24          0.974              1.001              0.425

 Optimization completed.
    -- Stationary point found.
 Normal termination of Gaussian 16 at Thu Dec 10 18:15:06 2020.

 ----------------------------------------------------------------------
 # B3LYP/6-311++G(d,p) empiricaldispersion=gd3bj scf=xqc pop=npa geom=c
 heck
 ----------------------------------------------------------------------

 --------------------------------------
 CID_84122995_JID_5843_Energie_neutraal
 --------------------------------------
 Structure from the checkpoint file:  "JID_5843.chk"
 Charge =  0 Multiplicity = 1

 SCF Done:  E(RB3LYP) =  -691.385698054     A.U. after   14 cycles
 Normal termination of Gaussian 16 at Thu Dec 10 18:21:40 2020.

 ----------------------------------------------------------------------
 # B3LYP/6-311++G(d,p) empiricaldispersion=gd3bj scf=xqc pop=npa geom=c
 heck
 ----------------------------------------------------------------------

 ------------------------------------
 CID_84122995_JID_5843_Energie_kation
 ------------------------------------
 Structure from the checkpoint file:  "JID_5843.chk"
 Charge =  1 Multiplicity = 2

 SCF Done:  E(UB3LYP) =  -691.098297012     A.U. after   23 cycles
 Normal termination of Gaussian 16 at Thu Dec 10 18:36:49 2020.
 Gaussian 16:  ES64L-G16RevA.03 25-Dec-2016

 ----------------------------------------------------------------------
 # B3LYP/6-311++G(d,p) empiricaldispersion=gd3bj scf=xqc pop=npa geom=c
 heck
 ----------------------------------------------------------------------

 -----------------------------------
 CID_84122995_JID_5843_Energie_anion
 -----------------------------------
 Structure from the checkpoint file:  "JID_5843.chk"
 Charge = -1 Multiplicity = 2

                         Standard orientation:
 ---------------------------------------------------------------------
 Center     Atomic      Atomic             Coordinates (Angstroms)
 Number     Number       Type             X           Y           Z
 ---------------------------------------------------------------------
      1          6           0        0.520143    0.952980    2.280472
      2          6           0        0.494191    1.428618    0.815980
      3          6           0        1.883165    1.424747    0.179932
      4          7           0        2.303161    0.085127   -0.217641
      5          6           0        1.434808   -0.890045   -0.638650
      6          8           0        1.817638   -1.935163   -1.156203
      7          6           0       -0.060074   -0.695194   -0.358683
      8          7           0       -0.389392    0.701732   -0.085249
      9          6           0       -1.758609    1.107865   -0.109001
     10          6           0       -2.077322    2.409679   -0.799498
     11          6           0       -2.465708    1.107828   -1.451275
     12          6           0       -0.464740   -1.797166    0.663401
     13          6           0       -1.950583   -1.860258    1.021270
     14          8           0       -2.804151   -1.937522   -0.111134
     15          6           0        3.718741   -0.072712   -0.514971
     16          1           0       -0.496106    0.802918    2.659135
     17          1           0        1.009371    1.702406    2.913479
     18          1           0        1.070664    0.014667    2.389154
     19          1           0        0.143838    2.466651    0.807672
     20          1           0        1.884931    2.089271   -0.697237
     21          1           0        2.624787    1.812354    0.889346
     22          1           0       -0.555435   -0.957533   -1.300028
     23          1           0       -2.385968    0.880983    0.757834
     24          1           0       -2.861366    3.034363   -0.382118
     25          1           0       -1.241961    2.947418   -1.236822
     26          1           0       -1.884279    0.792235   -2.311834
     27          1           0       -3.519249    0.842951   -1.487022
     28          1           0       -0.166941   -2.744632    0.204126
     29          1           0        0.112754   -1.693686    1.588559
     30          1           0       -2.136616   -2.773808    1.595728
     31          1           0       -2.226837   -1.016396    1.672120
     32          1           0       -2.753890   -1.082911   -0.566154
     33          1           0        4.022432    0.578827   -1.346460
     34          1           0        4.313687    0.189755    0.367158
     35          1           0        3.897842   -1.110421   -0.791571
 ---------------------------------------------------------------------

 SCF Done:  E(UB3LYP) =  -691.375830164     A.U. after   31 cycles

 The electronic state is 2-A.
 Alpha  occ. eigenvalues --  -19.03222 -18.98968 -14.24927 -14.21682 -10.17477
 Alpha  occ. eigenvalues --  -10.12664 -10.12008 -10.12004 -10.10999 -10.10720
 Alpha  occ. eigenvalues --  -10.10074 -10.09238 -10.08399 -10.07564 -10.06062
 Alpha  occ. eigenvalues --   -0.94472  -0.93481  -0.86127  -0.83310  -0.76012
 Alpha  occ. eigenvalues --   -0.69766  -0.66188  -0.63104  -0.60211  -0.58396
 Alpha  occ. eigenvalues --   -0.53501  -0.52302  -0.51258  -0.47925  -0.44198
 Alpha  occ. eigenvalues --   -0.42853  -0.42176  -0.40713  -0.39636  -0.39106
 Alpha  occ. eigenvalues --   -0.37068  -0.36432  -0.34717  -0.33894  -0.33249
 Alpha  occ. eigenvalues --   -0.32118  -0.31390  -0.30482  -0.29885  -0.29447
 Alpha  occ. eigenvalues --   -0.29130  -0.28319  -0.27884  -0.27292  -0.25125
 Alpha  occ. eigenvalues --   -0.24238  -0.23639  -0.22366  -0.20906  -0.18903
 Alpha  occ. eigenvalues --   -0.16694  -0.15003  -0.12057   0.04151
 Alpha virt. eigenvalues --    0.06399   0.07038   0.07598   0.08250   0.08716
 Alpha virt. eigenvalues --    0.09416   0.09688   0.10394   0.10745   0.11199
 Alpha virt. eigenvalues --    0.11451   0.11624   0.12612   0.12898   0.13196

  Beta  occ. eigenvalues --  -19.03221 -18.98962 -14.24930 -14.21680 -10.17471
  Beta  occ. eigenvalues --  -10.12655 -10.12008 -10.11993 -10.10985 -10.10683
  Beta  occ. eigenvalues --  -10.10048 -10.09231 -10.08366 -10.07560 -10.06019
  Beta  occ. eigenvalues --   -0.94463  -0.93478  -0.86112  -0.83298  -0.75990
  Beta  occ. eigenvalues --   -0.69743  -0.66160  -0.63076  -0.60147  -0.58358
  Beta  occ. eigenvalues --   -0.53444  -0.52274  -0.51217  -0.47885  -0.44168
  Beta  occ. eigenvalues --   -0.42830  -0.42137  -0.40692  -0.39580  -0.39074
  Beta  occ. eigenvalues --   -0.37025  -0.36419  -0.34697  -0.33861  -0.33206
  Beta  occ. eigenvalues --   -0.32085  -0.31355  -0.30457  -0.29859  -0.29419
  Beta  occ. eigenvalues --   -0.29109  -0.28291  -0.27853  -0.27255  -0.25093
  Beta  occ. eigenvalues --   -0.24219  -0.23606  -0.22342  -0.20882  -0.18894
  Beta  occ. eigenvalues --   -0.16684  -0.14984  -0.12038
  Beta virt. eigenvalues --    0.06589   0.07220   0.07488   0.08154   0.08699
  Beta virt. eigenvalues --    0.09233   0.09763   0.10208   0.10647   0.10901
  Beta virt. eigenvalues --    0.11622   0.11718   0.12033   0.12892   0.13283

 Mulliken charges and spin densities:
               1          2
     1  C    1.808280  -2.419702
     2  C   -1.787790   1.831225
     3  C    1.064733  -1.655836
     4  N   -0.127099   0.157029
     5  C   -1.730796   1.017088
     6  O   -0.335894  -0.002935
     7  C    1.261834  -1.040035
     8  N    0.423818  -0.067392
     9  C   -1.507395   1.508842
    10  C    1.783043  -2.317897
    11  C   -0.148421  -0.210698
    12  C   -0.132831   0.038948
    13  C   -0.153925  -0.307568
    14  O   -0.232559   0.007601
    15  C    0.500953  -0.812450
    16  H   -0.183216   0.337100
    17  H   -0.573837   0.742893
    18  H   -0.042868   0.213371
    19  H   -0.739657   0.949763
    20  H   -0.321810   0.516726
    21  H   -0.188583   0.378784
    22  H    0.274738  -0.066742
    23  H   -0.091200   0.342611
    24  H   -0.475624   0.639271
    25  H    0.083227   0.070907
    26  H    0.058097   0.112485
    27  H    0.146820   0.008521
    28  H    0.218355   0.007535
    29  H    0.141268  -0.044276
    30  H    0.049797   0.125224
    31  H    0.013646   0.123461
    32  H    0.255695   0.019183
    33  H   -0.127897   0.283508
    34  H   -0.256507   0.413725
    35  H    0.073606   0.099730
 Sum of Mulliken charges =  -1.00000   1.00000

 Dipole moment (field-independent basis, Debye):
    X=             -2.1437    Y=             -4.9213    Z=             -2.4993  Tot=              5.9213
 Quadrupole moment (field-independent basis, Debye-Ang):
   XX=           -154.3507   YY=           -154.6948   ZZ=           -133.7884
   XY=             -2.2989   XZ=             -0.0584   YZ=            -12.8162

 Summary of Natural Population Analysis:

                                       Natural Population
                Natural  -----------------------------------------------
    Atom  No    Charge         Core      Valence    Rydberg      Total
 -----------------------------------------------------------------------
      C    1   -0.29420      0.99964     2.28840    0.00617     3.29420
      C    2   -0.01022      0.99958     1.99489    0.01576     3.01022
      C    3   -0.07568      0.99958     2.06440    0.01171     3.07568
      N    4   -0.25214      0.99964     2.74265    0.00985     3.75214
      C    5    0.35047      0.99961     1.62622    0.02370     2.64953
      O    6   -0.33279      0.99988     3.32804    0.00487     4.33279
      C    7   -0.03796      0.99953     2.02498    0.01345     3.03796
      N    8   -0.29043      0.99967     2.77446    0.01630     3.79043
      C    9   -0.02216      0.99954     2.00758    0.01504     3.02216
      C   10   -0.19099      0.99960     2.18074    0.01064     3.19099
      C   11   -0.21446      0.99961     2.20695    0.00790     3.21446
      C   12   -0.20984      0.99960     2.20219    0.00805     3.20984
      C   13   -0.01176      0.99959     1.99909    0.01308     3.01176
      O   14   -0.37318      0.99990     3.36701    0.00627     4.37318
      C   15   -0.17888      0.99964     2.17125    0.00799     3.17888
      H   16    0.10119      0.00000     0.39740    0.00141     0.39881
      H   17    0.10644      0.00000     0.39179    0.00177     0.39356
      H   18    0.09603      0.00000     0.40234    0.00163     0.40397
      H   19    0.10661      0.00000     0.39020    0.00319     0.39339
      H   20    0.09635      0.00000     0.40150    0.00215     0.40365
      H   21    0.10135      0.00000     0.39618    0.00247     0.39865
      H   22    0.10727      0.00000     0.39073    0.00200     0.39273
      H   23    0.09325      0.00000     0.40483    0.00193     0.40675
      H   24    0.10596      0.00000     0.39232    0.00172     0.39404
      H   25    0.10900      0.00000     0.38955    0.00145     0.39100
      H   26    0.10765      0.00000     0.39139    0.00095     0.39235
      H   27    0.10304      0.00000     0.39609    0.00086     0.39696
      H   28    0.10928      0.00000     0.38966    0.00106     0.39072
      H   29    0.10096      0.00000     0.39779    0.00125     0.39904
      H   30    0.08594      0.00000     0.41315    0.00091     0.41406
      H   31    0.07683      0.00000     0.42173    0.00144     0.42317
      H   32    0.23420      0.00000     0.26288    0.00291     0.26580
      H   33    0.09283      0.00000     0.40604    0.00113     0.40717
      H   34    0.09648      0.00000     0.40240    0.00111     0.40352
      H   35    0.11353      0.00000     0.38547    0.00100     0.38647
 =======================================================================
   * Total *   -0.00000     14.99460    42.80230    0.20310    58.00000

 Normal termination of Gaussian 16 at Thu Dec 10 18:56:44 2020.
