 Gaussian 16, Revision A.03,

 -----------------------------------------------------------
 # opt freq B3LYP/6-31G(d) empiricaldispersion=gd3bj scf=xqc
 -----------------------------------------------------------

 -------------------------------
 CID_151219669_JID_5798_neutraal
 -------------------------------
 Symbolic Z-matrix:
 Charge =  0 Multiplicity = 1

 SCF Done:  E(RB3LYP) =  -707.230922505     A.U. after   16 cycles
 SCF Done:  E(RB3LYP) =  -707.234832131     A.U. after   15 cycles
 SCF Done:  E(RB3LYP) =  -707.236326268     A.U. after   14 cycles
 SCF Done:  E(RB3LYP) =  -707.233628212     A.U. after   14 cycles
 SCF Done:  E(RB3LYP) =  -707.236863207     A.U. after   14 cycles
 SCF Done:  E(RB3LYP) =  -707.237963013     A.U. after   14 cycles
 SCF Done:  E(RB3LYP) =  -707.238385335     A.U. after   12 cycles
 SCF Done:  E(RB3LYP) =  -707.238541317     A.U. after   12 cycles
 SCF Done:  E(RB3LYP) =  -707.238515804     A.U. after   12 cycles
 SCF Done:  E(RB3LYP) =  -707.238599390     A.U. after   12 cycles
 SCF Done:  E(RB3LYP) =  -707.238620995     A.U. after   12 cycles
 SCF Done:  E(RB3LYP) =  -707.238627501     A.U. after   10 cycles
 SCF Done:  E(RB3LYP) =  -707.238628626     A.U. after   10 cycles
 SCF Done:  E(RB3LYP) =  -707.238628800     A.U. after    8 cycles
 SCF Done:  E(RB3LYP) =  -707.238628872     A.U. after    7 cycles
 Optimization completed.
    -- Stationary point found.
 Normal termination of Gaussian 16 at Thu Dec 10 17:19:31 2020.

 --------------------------------------------------------------------
 #N Geom=AllCheck Guess=TCheck SCRF=Check GenChk RB3LYP/6-31G(d) Freq
 --------------------------------------------------------------------

 Structure from the checkpoint file:  "JID_5798.chk"
 -------------------------------
 CID_151219669_JID_5798_neutraal
 -------------------------------
 Charge =  0 Multiplicity = 1

 SCF Done:  E(RB3LYP) =  -707.238628872     A.U. after    1 cycles

  Exact polarizability: 138.785 -14.247 138.063   2.199   2.466 106.593
 Approx polarizability: 173.680 -31.194 240.006   3.441  20.120 168.487

                      1                      2                      3
                      A                      A                      A
 Frequencies --     25.2555                31.5883                54.8996
 Red. masses --      5.3221                 3.3316                 5.7374
 Frc consts  --      0.0020                 0.0020                 0.0102
 IR Inten    --      0.7621                 0.0666                 1.1552

                      4                      5                      6
                      A                      A                      A
 Frequencies --     90.0920               103.5220               137.7849
 Red. masses --      4.1312                 5.5929                 3.9150
 Frc consts  --      0.0198                 0.0353                 0.0438
 IR Inten    --      1.1484                 0.2243                 0.1455

                      7                      8                      9
                      A                      A                      A
 Frequencies --    160.2808               176.0006               200.5509
 Red. masses --      4.1256                 3.9760                 4.1616
 Frc consts  --      0.0624                 0.0726                 0.0986
 IR Inten    --      2.7543                 2.2736                 3.2091

                     10                     11                     12
                      A                      A                      A
 Frequencies --    214.9127               235.9214               258.4165
 Red. masses --      1.0960                 2.4117                 1.0842
 Frc consts  --      0.0298                 0.0791                 0.0427
 IR Inten    --      0.0737                 3.2098                 0.6470

                     13                     14                     15
                      A                      A                      A
 Frequencies --    260.2689               279.5377               297.5594
 Red. masses --      1.0592                 1.0686                 1.2292
 Frc consts  --      0.0423                 0.0492                 0.0641
 IR Inten    --      0.1241                 0.0435                 0.6083

                     16                     17                     18
                      A                      A                      A
 Frequencies --    325.8072               339.2376               349.2971
 Red. masses --      2.7339                 2.3632                 2.7941
 Frc consts  --      0.1710                 0.1602                 0.2009
 IR Inten    --      3.9935                 2.0762                 1.7612

                     19                     20                     21
                      A                      A                      A
 Frequencies --    353.2947               381.2351               403.2941
 Red. masses --      2.4734                 2.5114                 2.3055
 Frc consts  --      0.1819                 0.2151                 0.2209
 IR Inten    --      1.2197                 3.7858                 1.7194

                     22                     23                     24
                      A                      A                      A
 Frequencies --    427.5046               433.7543               468.2372
 Red. masses --      2.8412                 3.0540                 3.0457
 Frc consts  --      0.3059                 0.3385                 0.3934
 IR Inten    --      2.8492                 1.0487                 4.5346

                     25                     26                     27
                      A                      A                      A
 Frequencies --    471.3055               526.0744               573.2258
 Red. masses --      2.2057                 3.2835                13.0285
 Frc consts  --      0.2887                 0.5354                 2.5223
 IR Inten    --      2.6893                 0.7346                 9.6937

                     28                     29                     30
                      A                      A                      A
 Frequencies --    602.4260               626.4420               741.1250
 Red. masses --      4.1088                 4.2200                 2.9438
 Frc consts  --      0.8786                 0.9757                 0.9527
 IR Inten    --      9.3138                 3.0074                 4.5728

                     31                     32                     33
                      A                      A                      A
 Frequencies --    759.2174               763.8361               845.9375
 Red. masses --      4.2842                 5.0922                 3.2540
 Frc consts  --      1.4550                 1.7505                 1.3720
 IR Inten    --      8.2341                 8.1552                17.5457

                     34                     35                     36
                      A                      A                      A
 Frequencies --    858.1357               885.2235               937.8900
 Red. masses --      3.5416                 2.6817                 1.6508
 Frc consts  --      1.5366                 1.2382                 0.8556
 IR Inten    --      9.3829                 2.2913                 0.3378

                     37                     38                     39
                      A                      A                      A
 Frequencies --    940.6391               946.7682               952.3204
 Red. masses --      1.6380                 1.9324                 1.8780
 Frc consts  --      0.8539                 1.0205                 1.0035
 IR Inten    --      0.3228                 4.5488                 1.9540

                     40                     41                     42
                      A                      A                      A
 Frequencies --    980.1349               984.8362              1024.3037
 Red. masses --      2.0942                 1.2074                 1.5008
 Frc consts  --      1.1854                 0.6899                 0.9277
 IR Inten    --     15.5753                 0.3812                 1.3011

                     43                     44                     45
                      A                      A                      A
 Frequencies --   1042.6582              1069.0873              1070.6636
 Red. masses --      1.7561                 1.4939                 1.7630
 Frc consts  --      1.1248                 1.0060                 1.1907
 IR Inten    --      1.4061                 3.5466                 6.3685

                     46                     47                     48
                      A                      A                      A
 Frequencies --   1076.9883              1149.8488              1181.9256
 Red. masses --      1.5652                 1.5636                 1.9544
 Frc consts  --      1.0696                 1.2180                 1.6086
 IR Inten    --      3.8835                63.5731               159.1963

                     49                     50                     51
                      A                      A                      A
 Frequencies --   1214.3852              1239.2010              1272.2762
 Red. masses --      2.4672                 2.0389                 2.5197
 Frc consts  --      2.1438                 1.8447                 2.4031
 IR Inten    --    149.4960                20.5894                 9.9416

                     52                     53                     54
                      A                      A                      A
 Frequencies --   1288.0846              1299.2374              1300.9522
 Red. masses --      2.6727                 1.4647                 2.7849
 Frc consts  --      2.6127                 1.4568                 2.7770
 IR Inten    --     19.1688                 9.3831                20.4792

                     55                     56                     57
                      A                      A                      A
 Frequencies --   1318.8056              1348.7966              1398.8402
 Red. masses --      2.1781                12.8184                 1.5016
 Frc consts  --      2.2320                13.7397                 1.7312
 IR Inten    --     94.6748               105.9434                40.8064

                     58                     59                     60
                      A                      A                      A
 Frequencies --   1404.7536              1424.9326              1428.8250
 Red. masses --      1.5262                 1.2803                 1.2426
 Frc consts  --      1.7744                 1.5316                 1.4947
 IR Inten    --     19.1027                15.3578                 4.0839

                     61                     62                     63
                      A                      A                      A
 Frequencies --   1429.3314              1449.2656              1454.3753
 Red. masses --      1.2868                 1.2296                 1.2364
 Frc consts  --      1.5489                 1.5216                 1.5408
 IR Inten    --     24.3894                15.4537                21.0045

                     64                     65                     66
                      A                      A                      A
 Frequencies --   1502.8508              1502.9401              1509.2311
 Red. masses --      1.0723                 1.0543                 1.0849
 Frc consts  --      1.4269                 1.4031                 1.4560
 IR Inten    --      1.8979                 1.3800                 6.5605

                     67                     68                     69
                      A                      A                      A
 Frequencies --   1518.1493              1520.4613              1522.0281
 Red. masses --      1.0627                 1.0462                 1.0517
 Frc consts  --      1.4431                 1.4250                 1.4354
 IR Inten    --      5.4889                 0.1836                 0.4868

                     70                     71                     72
                      A                      A                      A
 Frequencies --   1522.1643              1529.5418              1531.2875
 Red. masses --      1.0527                 1.0643                 1.0534
 Frc consts  --      1.4371                 1.4670                 1.4553
 IR Inten    --      5.2278                 8.2995                 4.6482

                     73                     74                     75
                      A                      A                      A
 Frequencies --   1534.4595              1550.2241              1556.6448
 Red. masses --      1.0535                 1.0554                 1.0545
 Frc consts  --      1.4615                 1.4944                 1.5055
 IR Inten    --      1.5777                 0.6573                 6.6905

                     76                     77                     78
                      A                      A                      A
 Frequencies --   1814.5001              2251.2030              3052.6736
 Red. masses --     11.0343                13.8684                 1.0383
 Frc consts  --     21.4047                41.4099                 5.7008
 IR Inten    --    192.6251               458.2149                 5.8754

                     79                     80                     81
                      A                      A                      A
 Frequencies --   3057.8644              3058.4029              3062.4225
 Red. masses --      1.0353                 1.0519                 1.0376
 Frc consts  --      5.7036                 5.7970                 5.7333
 IR Inten    --     10.8565                24.0984                22.0214

                     82                     83                     84
                      A                      A                      A
 Frequencies --   3063.5987              3073.8185              3084.5525
 Red. masses --      1.0423                 1.0432                 1.0617
 Frc consts  --      5.7637                 5.8073                 5.9517
 IR Inten    --     25.6685                22.7609                10.6866

                     85                     86                     87
                      A                      A                      A
 Frequencies --   3105.0821              3121.6804              3123.6724
 Red. masses --      1.1026                 1.1030                 1.1026
 Frc consts  --      6.2635                 6.3329                 6.3386
 IR Inten    --      7.9521                 4.0802                 8.6672

                     88                     89                     90
                      A                      A                      A
 Frequencies --   3128.2015              3134.3118              3135.3725
 Red. masses --      1.1021                 1.1019                 1.1027
 Frc consts  --      6.3544                 6.3782                 6.3868
 IR Inten    --     39.2653                33.9440                 9.4019

                     91                     92                     93
                      A                      A                      A
 Frequencies --   3135.9398              3137.7358              3144.8395
 Red. masses --      1.1034                 1.1027                 1.0952
 Frc consts  --      6.3932                 6.3964                 6.3817
 IR Inten    --      1.1388                37.2697                33.8882

                     94                     95                     96
                      A                      A                      A
 Frequencies --   3151.0803              3166.0655              3189.8802
 Red. masses --      1.1018                 1.1003                 1.1015
 Frc consts  --      6.4458                 6.4984                 6.6038
 IR Inten    --      9.1582                 7.8454                 4.1244

 - Thermochemistry -
 -------------------
 Temperature   298.150 Kelvin.  Pressure   1.00000 Atm.
 Atom     1 has atomic number  6 and mass  12.00000

 Molecular mass:   213.14773 amu.
 Principal axes and moments of inertia in atomic units:
                           1         2         3
     Eigenvalues --  1990.170773935.388744853.07687
           X            0.99951  -0.03100   0.00395
           Y            0.03099   0.99952   0.00170
           Z           -0.00400  -0.00158   0.99999
 This molecule is an asymmetric top.
 Rotational symmetry number  1.
 Warning -- assumption of classical behavior for rotation
           may cause significant error
 Rotational temperatures (Kelvin)      0.04352     0.02201     0.01785
 Rotational constants (GHZ):           0.90683     0.45859     0.37188
 Zero-point vibrational energy     770300.6 (Joules/Mol)
                                  184.10627 (Kcal/Mol)
 Warning -- explicit consideration of  28 degrees of freedom as
           vibrations may cause significant error
 Vibrational temperatures:     36.34    45.45    78.99   129.62   148.95
          (Kelvin)            198.24   230.61   253.23   288.55   309.21
                              339.44   371.80   374.47   402.19   428.12
                              468.76   488.09   502.56   508.31   548.51
                              580.25   615.08   624.08   673.69   678.10
                              756.90   824.74   866.76   901.31  1066.31
                             1092.34  1098.99  1217.12  1234.67  1273.64
                             1349.41  1353.37  1362.19  1370.18  1410.20
                             1416.96  1473.74  1500.15  1538.18  1540.45
                             1549.55  1654.38  1700.53  1747.23  1782.93
                             1830.52  1853.27  1869.31  1871.78  1897.47
                             1940.62  2012.62  2021.13  2050.16  2055.76
                             2056.49  2085.17  2092.52  2162.27  2162.40
                             2171.45  2184.28  2187.60  2189.86  2190.05
                             2200.67  2203.18  2207.74  2230.43  2239.66
                             2610.66  3238.98  4392.12  4399.58  4400.36
                             4406.14  4407.84  4422.54  4437.98  4467.52
                             4491.40  4494.27  4500.78  4509.58  4511.10
                             4511.92  4514.50  4524.72  4533.70  4555.26
                             4589.53

 Zero-point correction=                           0.293392 (Hartree/Particle)
 Thermal correction to Energy=                    0.310571
 Thermal correction to Enthalpy=                  0.311515
 Thermal correction to Gibbs Free Energy=         0.248629
 Sum of electronic and zero-point Energies=           -706.945237
 Sum of electronic and thermal Energies=              -706.928058
 Sum of electronic and thermal Enthalpies=            -706.927114
 Sum of electronic and thermal Free Energies=         -706.989999

                     E (Thermal)             CV                S
                      KCal/Mol        Cal/Mol-Kelvin    Cal/Mol-Kelvin
 Total                  194.886             64.124            132.354
 Electronic               0.000              0.000              0.000
 Translational            0.889              2.981             41.974
 Rotational               0.889              2.981             32.008
 Vibrational            193.109             58.162             58.372
 Vibration     1          0.593              1.985              6.171
 Vibration     2          0.594              1.983              5.727
 Vibration     3          0.596              1.976              4.633
 Vibration     4          0.602              1.956              3.658
 Vibration     5          0.605              1.946              3.387
 Vibration     6          0.614              1.916              2.834
 Vibration     7          0.622              1.891              2.546
 Vibration     8          0.628              1.872              2.370
 Vibration     9          0.638              1.839              2.128
 Vibration    10          0.645              1.818              2.002
 Vibration    11          0.655              1.786              1.833
 Vibration    12          0.667              1.749              1.672
 Vibration    13          0.668              1.745              1.660
 Vibration    14          0.680              1.711              1.536
 Vibration    15          0.691              1.678              1.431
 Vibration    16          0.710              1.624              1.281
 Vibration    17          0.719              1.597              1.216
 Vibration    18          0.727              1.577              1.169
 Vibration    19          0.729              1.568              1.151
 Vibration    20          0.751              1.510              1.034
 Vibration    21          0.769              1.463              0.951
 Vibration    22          0.789              1.410              0.867
 Vibration    23          0.794              1.397              0.846
 Vibration    24          0.825              1.321              0.743
 Vibration    25          0.828              1.314              0.734
 Vibration    26          0.881              1.192              0.596
 Vibration    27          0.929              1.089              0.498
 Vibration    28          0.961              1.027              0.446

                           ! Non-Optimized Parameters !
 Normal termination of Gaussian 16 at Thu Dec 10 17:33:04 2020.

 ----------------------------------------------------------------------
 # B3LYP/6-311++G(d,p) empiricaldispersion=gd3bj scf=xqc pop=npa geom=c
 heck
 ----------------------------------------------------------------------

 ---------------------------------------
 CID_151219669_JID_5798_Energie_neutraal
 ---------------------------------------
 Structure from the checkpoint file:  "JID_5798.chk"
 Charge =  0 Multiplicity = 1

 SCF Done:  E(RB3LYP) =  -707.439514326     A.U. after   16 cycles
 Normal termination of Gaussian 16 at Thu Dec 10 17:39:46 2020.

 ----------------------------------------------------------------------
 # B3LYP/6-311++G(d,p) empiricaldispersion=gd3bj scf=xqc pop=npa geom=c
 heck
 ----------------------------------------------------------------------

 -------------------------------------
 CID_151219669_JID_5798_Energie_kation
 -------------------------------------
 Structure from the checkpoint file:  "JID_5798.chk"
 Charge =  1 Multiplicity = 2

 SCF Done:  E(UB3LYP) =  -707.110420701     A.U. after   30 cycles
 Normal termination of Gaussian 16 at Thu Dec 10 17:57:18 2020.
 Gaussian 16:  ES64L-G16RevA.03 25-Dec-2016

 ----------------------------------------------------------------------
 # B3LYP/6-311++G(d,p) empiricaldispersion=gd3bj scf=xqc pop=npa geom=c
 heck
 ----------------------------------------------------------------------

 ------------------------------------
 CID_151219669_JID_5798_Energie_anion
 ------------------------------------
 Structure from the checkpoint file:  "JID_5798.chk"
 Charge = -1 Multiplicity = 2

                         Standard orientation:
 ---------------------------------------------------------------------
 Center     Atomic      Atomic             Coordinates (Angstroms)
 Number     Number       Type             X           Y           Z
 ---------------------------------------------------------------------
      1          6           0       -2.552085    1.357175    1.224559
      2          6           0       -2.386859    0.287337    0.146651
      3          6           0       -3.544701   -0.712385    0.176264
      4          6           0       -2.221554    0.931302   -1.231241
      5          8           0       -1.152067   -0.403371    0.568039
      6          6           0       -0.631019   -1.414502   -0.154399
      7          8           0       -1.055207   -1.822322   -1.215172
      8          6           0        0.569023   -2.025746    0.550329
      9          6           0        1.919085   -1.607803   -0.056729
     10          6           0        2.308841   -0.126713    0.098983
     11          6           0        2.153320    0.368456    1.541470
     12          6           0        3.748954    0.078055   -0.392909
     13          7           0        1.403622    0.623122   -0.841682
     14          7           0        1.118342    1.777862   -0.535339
     15          7           0        0.768690    2.852197   -0.350449
     16          1           0       -3.457169    1.943111    1.034682
     17          1           0       -1.693694    2.036252    1.222413
     18          1           0       -2.635374    0.898850    2.215238
     19          1           0       -4.487982   -0.186866   -0.007322
     20          1           0       -3.417678   -1.480377   -0.588646
     21          1           0       -3.606500   -1.193096    1.158456
     22          1           0       -1.410940    1.663886   -1.221456
     23          1           0       -2.021733    0.181694   -1.996246
     24          1           0       -3.146471    1.460953   -1.485534
     25          1           0        0.532510   -1.795535    1.617526
     26          1           0        0.469870   -3.109563    0.434214
     27          1           0        2.704740   -2.209613    0.415564
     28          1           0        1.920705   -1.852869   -1.124415
     29          1           0        2.721335   -0.277303    2.219243
     30          1           0        2.540208    1.387261    1.649776
     31          1           0        1.105012    0.364920    1.850870
     32          1           0        3.856427   -0.270446   -1.424507
     33          1           0        4.021190    1.138203   -0.357453
     34          1           0        4.451121   -0.477242    0.239082
 ---------------------------------------------------------------------

 SCF Done:  E(UB3LYP) =  -707.427784358     A.U. after   33 cycles
 SCF Done:  E(UB3LYP) =  -707.427784358     a.u. after    1 cycles

 The electronic state is 2-A.
 Alpha  occ. eigenvalues --  -19.05560 -18.99841 -14.35810 -14.25710 -14.24068
 Alpha  occ. eigenvalues --  -10.19171 -10.14395 -10.12810 -10.07459 -10.07316
 Alpha  occ. eigenvalues --  -10.06486 -10.06467 -10.06433 -10.06350 -10.05643
 Alpha  occ. eigenvalues --   -1.02236  -0.99303  -0.91133  -0.86597  -0.72987
 Alpha  occ. eigenvalues --   -0.71500  -0.65773  -0.59972  -0.59922  -0.59524
 Alpha  occ. eigenvalues --   -0.56931  -0.53183  -0.49928  -0.41859  -0.40796
 Alpha  occ. eigenvalues --   -0.40519  -0.39762  -0.38734  -0.37570  -0.36736
 Alpha  occ. eigenvalues --   -0.35364  -0.34422  -0.34355  -0.33590  -0.32021
 Alpha  occ. eigenvalues --   -0.31936  -0.30542  -0.30091  -0.29518  -0.28900
 Alpha  occ. eigenvalues --   -0.28316  -0.27843  -0.27239  -0.26744  -0.25452
 Alpha  occ. eigenvalues --   -0.25363  -0.23827  -0.23630  -0.22960  -0.19867
 Alpha  occ. eigenvalues --   -0.18798  -0.16435  -0.14213   0.04531
 Alpha virt. eigenvalues --    0.06195   0.06519   0.07747   0.08484   0.08902
 Alpha virt. eigenvalues --    0.09435   0.09779   0.10118   0.10865   0.11054
 Alpha virt. eigenvalues --    0.11248   0.11985   0.12264   0.12531   0.12717

  Beta  occ. eigenvalues --  -19.05549 -18.99813 -14.35662 -14.25511 -14.24095
  Beta  occ. eigenvalues --  -10.19145 -10.14394 -10.12784 -10.07441 -10.07286
  Beta  occ. eigenvalues --  -10.06455 -10.06449 -10.06403 -10.06325 -10.05630
  Beta  occ. eigenvalues --   -1.01946  -0.99268  -0.91092  -0.86447  -0.72928
  Beta  occ. eigenvalues --   -0.71473  -0.65716  -0.59933  -0.59860  -0.59493
  Beta  occ. eigenvalues --   -0.56857  -0.53079  -0.49837  -0.41812  -0.40578
  Beta  occ. eigenvalues --   -0.40289  -0.39515  -0.38621  -0.37508  -0.36674
  Beta  occ. eigenvalues --   -0.35242  -0.34284  -0.34235  -0.33305  -0.31964
  Beta  occ. eigenvalues --   -0.31862  -0.30462  -0.30041  -0.29450  -0.28867
  Beta  occ. eigenvalues --   -0.28278  -0.27792  -0.27216  -0.26705  -0.25422
  Beta  occ. eigenvalues --   -0.25329  -0.23775  -0.23566  -0.22917  -0.19790
  Beta  occ. eigenvalues --   -0.18450  -0.16405  -0.14148
  Beta virt. eigenvalues --    0.06698   0.07243   0.07745   0.08331   0.08907
  Beta virt. eigenvalues --    0.09290   0.09735   0.10133   0.10499   0.11047
  Beta virt. eigenvalues --    0.11293   0.11643   0.12178   0.12384   0.12715

 Mulliken charges and spin densities:
               1          2
     1  C   -0.180578  -0.242808
     2  C   -0.612256   0.664173
     3  C    0.212024  -0.686460
     4  C    0.230761  -0.752817
     5  O    0.157359  -0.010272
     6  C   -0.463108   0.178613
     7  O   -0.220791   0.021469
     8  C    0.135659  -0.526914
     9  C    0.680443  -1.043064
    10  C   -1.507274   1.778461
    11  C    0.949090  -1.617380
    12  C    0.513209  -0.907275
    13  N   -0.181248   0.507003
    14  N    0.353035  -0.315920
    15  N   -0.105100  -0.125008
    16  H   -0.041003   0.177330
    17  H    0.070809   0.078288
    18  H   -0.064707   0.219939
    19  H   -0.056742   0.204780
    20  H    0.079628   0.106304
    21  H   -0.092669   0.236940
    22  H    0.014208   0.120592
    23  H    0.133393   0.073502
    24  H   -0.035820   0.179380
    25  H   -0.025248   0.194164
    26  H   -0.350365   0.561434
    27  H   -0.538484   0.742519
    28  H    0.312130  -0.117610
    29  H   -0.385503   0.556913
    30  H    0.139257   0.002615
    31  H    0.265186  -0.088728
    32  H   -0.212486   0.370282
    33  H   -0.015821   0.163624
    34  H   -0.156989   0.295931
 Sum of Mulliken charges =  -1.00000   1.00000

 Dipole moment (field-independent basis, Debye):
    X=             -1.7797    Y=              2.3597    Z=             -0.5901  Tot=              3.0139
 Quadrupole moment (field-independent basis, Debye-Ang):
   XX=           -154.8624   YY=           -139.2557   ZZ=           -126.3180
   XY=              7.3455   XZ=             -3.8014   YZ=              4.5200

 Summary of Natural Population Analysis:

                                       Natural Population
                Natural  -----------------------------------------------
    Atom  No    Charge         Core      Valence    Rydberg      Total
 -----------------------------------------------------------------------
      C    1   -0.29100      0.99960     2.28373    0.00767     3.29100
      C    2    0.13262      0.99953     1.85305    0.01479     2.86738
      C    3   -0.30118      0.99960     2.29523    0.00634     3.30118
      C    4   -0.30162      0.99959     2.29623    0.00580     3.30162
      O    5   -0.29836      0.99985     3.28643    0.01208     4.29836
      C    6    0.42020      0.99967     1.55307    0.02706     2.57980
      O    7   -0.31221      0.99987     3.30716    0.00518     4.31221
      C    8   -0.23334      0.99957     2.22426    0.00950     3.23334
      C    9   -0.18516      0.99956     2.17480    0.01081     3.18516
      C   10    0.05619      0.99955     1.92991    0.01436     2.94381
      C   11   -0.30149      0.99961     2.29487    0.00701     3.30149
      C   12   -0.28594      0.99961     2.27885    0.00748     3.28594
      N   13   -0.19220      0.99967     2.67726    0.01528     3.69220
      N   14    0.13034      0.99969     2.35375    0.01622     3.36966
      N   15   -0.04500      0.99982     2.53269    0.01250     3.54500
      H   16    0.10010      0.00000     0.39905    0.00085     0.39990
      H   17    0.10807      0.00000     0.39079    0.00114     0.39193
      H   18    0.10238      0.00000     0.39668    0.00094     0.39762
      H   19    0.10133      0.00000     0.39772    0.00095     0.39867
      H   20    0.11281      0.00000     0.38627    0.00092     0.38719
      H   21    0.10195      0.00000     0.39708    0.00097     0.39805
      H   22    0.10654      0.00000     0.39225    0.00121     0.39346
      H   23    0.11588      0.00000     0.38312    0.00099     0.38412
      H   24    0.09899      0.00000     0.40017    0.00084     0.40101
      H   25    0.10759      0.00000     0.39066    0.00174     0.39241
      H   26    0.11322      0.00000     0.38556    0.00123     0.38678
      H   27    0.10492      0.00000     0.39299    0.00210     0.39508
      H   28    0.10732      0.00000     0.39122    0.00146     0.39268
      H   29    0.10789      0.00000     0.39085    0.00126     0.39211
      H   30    0.10165      0.00000     0.39747    0.00087     0.39835
      H   31    0.11059      0.00000     0.38802    0.00139     0.38941
      H   32    0.10444      0.00000     0.39448    0.00109     0.39556
      H   33    0.09992      0.00000     0.39921    0.00087     0.40008
      H   34    0.10255      0.00000     0.39627    0.00118     0.39745
 =======================================================================
   * Total *   -0.00000     14.99479    42.81115    0.19406    58.00000

 Normal termination of Gaussian 16 at Thu Dec 10 18:16:14 2020.
