 Gaussian 16, Revision A.03,

 -----------------------------------------------------------
 # opt freq B3LYP/6-31G(d) empiricaldispersion=gd3bj scf=xqc
 -----------------------------------------------------------

 -------------------------------
 CID_142214452_JID_3193_neutraal
 -------------------------------
 Symbolic Z-matrix:
 Charge =  0 Multiplicity = 1

 SCF Done:  E(RB3LYP) =  -511.015011626     A.U. after   14 cycles
 SCF Done:  E(RB3LYP) =  -511.017017961     A.U. after   11 cycles
 SCF Done:  E(RB3LYP) =  -511.017363157     A.U. after   10 cycles
 SCF Done:  E(RB3LYP) =  -511.017660218     A.U. after   10 cycles
 SCF Done:  E(RB3LYP) =  -511.017494820     A.U. after   10 cycles
 SCF Done:  E(RB3LYP) =  -511.018070886     A.U. after   10 cycles
 SCF Done:  E(RB3LYP) =  -511.018198409     A.U. after   10 cycles
 SCF Done:  E(RB3LYP) =  -511.018288555     A.U. after   10 cycles
 SCF Done:  E(RB3LYP) =  -511.018325151     A.U. after    9 cycles
 SCF Done:  E(RB3LYP) =  -511.018373339     A.U. after    9 cycles
 SCF Done:  E(RB3LYP) =  -511.019611209     A.U. after   10 cycles
 SCF Done:  E(RB3LYP) =  -511.019612026     A.U. after    9 cycles
 SCF Done:  E(RB3LYP) =  -511.019613148     A.U. after    9 cycles
 SCF Done:  E(RB3LYP) =  -511.019613513     A.U. after    8 cycles
 Optimization completed.
    -- Stationary point found.
 Normal termination of Gaussian 16 at Sun Dec 13 13:09:56 2020.

 --------------------------------------------------------------------
 #N Geom=AllCheck Guess=TCheck SCRF=Check GenChk RB3LYP/6-31G(d) Freq
 --------------------------------------------------------------------

 Structure from the checkpoint file:  "JID_3193.chk"
 -------------------------------
 CID_142214452_JID_3193_neutraal
 -------------------------------
 Charge =  0 Multiplicity = 1

 SCF Done:  E(RB3LYP) =  -511.019613513     A.U. after    1 cycles

  Exact polarizability: 135.695   0.135 137.281  -1.892   1.071 118.362
 Approx polarizability: 176.108  -0.956 209.241   0.248   2.447 169.598

                      1                      2                      3
                      A                      A                      A
 Frequencies --     19.6845                24.0081                31.9370
 Red. masses --      2.4922                 3.6901                 2.6314
 Frc consts  --      0.0006                 0.0013                 0.0016
 IR Inten    --      0.0138                 0.0248                 0.1165

                      4                      5                      6
                      A                      A                      A
 Frequencies --     53.2135                70.7519                97.9766
 Red. masses --      3.5042                 4.9163                 2.3784
 Frc consts  --      0.0058                 0.0145                 0.0135
 IR Inten    --      0.1230                 0.0833                 0.0324

                      7                      8                      9
                      A                      A                      A
 Frequencies --    126.9570               137.7047               160.9406
 Red. masses --      1.9965                 2.0397                 2.3647
 Frc consts  --      0.0190                 0.0228                 0.0361
 IR Inten    --      0.0724                 0.0919                 0.0347

                     10                     11                     12
                      A                      A                      A
 Frequencies --    201.3845               242.2752               252.3233
 Red. masses --      2.3483                 1.3817                 1.3856
 Frc consts  --      0.0561                 0.0478                 0.0520
 IR Inten    --      0.1232                 0.1232                 0.0547

                     13                     14                     15
                      A                      A                      A
 Frequencies --    254.9948               259.1271               280.1509
 Red. masses --      1.2596                 1.1820                 1.4394
 Frc consts  --      0.0483                 0.0468                 0.0666
 IR Inten    --      0.0835                 0.0902                 0.2307

                     16                     17                     18
                      A                      A                      A
 Frequencies --    293.9748               300.1003               325.7491
 Red. masses --      1.1757                 1.3609                 2.0951
 Frc consts  --      0.0599                 0.0722                 0.1310
 IR Inten    --      0.0696                 0.0665                 0.0529

                     19                     20                     21
                      A                      A                      A
 Frequencies --    332.7040               344.5955               369.5570
 Red. masses --      1.7553                 2.4599                 2.1690
 Frc consts  --      0.1145                 0.1721                 0.1745
 IR Inten    --      0.0100                 0.1326                 0.0212

                     22                     23                     24
                      A                      A                      A
 Frequencies --    373.6047               385.3925               412.3287
 Red. masses --      2.2217                 2.2780                 2.2106
 Frc consts  --      0.1827                 0.1993                 0.2214
 IR Inten    --      0.1157                 0.0430                 0.4372

                     25                     26                     27
                      A                      A                      A
 Frequencies --    424.3018               475.0933               514.5313
 Red. masses --      2.2442                 2.6081                 2.3696
 Frc consts  --      0.2380                 0.3468                 0.3696
 IR Inten    --      0.4572                 0.0865                 0.3043

                     28                     29                     30
                      A                      A                      A
 Frequencies --    537.9410               544.3832               559.9148
 Red. masses --      1.5701                 1.5741                 2.5387
 Frc consts  --      0.2677                 0.2749                 0.4689
 IR Inten    --      0.3102                 0.3258                 0.2452

                     31                     32                     33
                      A                      A                      A
 Frequencies --    629.4552               758.5394               770.9193
 Red. masses --      2.6692                 1.5264                 1.0880
 Frc consts  --      0.6231                 0.5175                 0.3810
 IR Inten    --      0.2820                 3.6682               115.1066

                     34                     35                     36
                      A                      A                      A
 Frequencies --    774.9846               778.3626               806.3280
 Red. masses --      1.0889                 1.3048                 1.2076
 Frc consts  --      0.3853                 0.4658                 0.4626
 IR Inten    --     71.9195                 5.8210                 0.9524

                     37                     38                     39
                      A                      A                      A
 Frequencies --    835.9759               917.0428               919.7375
 Red. masses --      1.8794                 1.9411                 1.9058
 Frc consts  --      0.7739                 0.9618                 0.9499
 IR Inten    --      0.6243                 3.4143                 6.0430

                     40                     41                     42
                      A                      A                      A
 Frequencies --    931.6110               945.4507               947.5543
 Red. masses --      1.8256                 1.6650                 1.7275
 Frc consts  --      0.9335                 0.8769                 0.9139
 IR Inten    --      4.5781                 2.5390                 0.7963

                     43                     44                     45
                      A                      A                      A
 Frequencies --    973.7496              1037.5470              1049.9618
 Red. masses --      1.1994                 2.1461                 1.5645
 Frc consts  --      0.6701                 1.3612                 1.0162
 IR Inten    --      0.0267                 1.8660                 0.1920

                     46                     47                     48
                      A                      A                      A
 Frequencies --   1056.3940              1061.9356              1066.3594
 Red. masses --      1.3501                 1.3290                 1.8173
 Frc consts  --      0.8877                 0.8830                 1.2176
 IR Inten    --      0.4075                 1.8590                 2.7464

                     49                     50                     51
                      A                      A                      A
 Frequencies --   1067.2669              1106.8702              1111.2214
 Red. masses --      2.6558                 1.7360                 1.6799
 Frc consts  --      1.7823                 1.2531                 1.2222
 IR Inten    --      0.7520                 2.2728                 0.3229

                     52                     53                     54
                      A                      A                      A
 Frequencies --   1185.4972              1190.4762              1209.4955
 Red. masses --      2.1688                 2.2063                 2.2613
 Frc consts  --      1.7958                 1.8423                 1.9491
 IR Inten    --      3.3861                 3.7050                 4.0004

                     55                     56                     57
                      A                      A                      A
 Frequencies --   1256.1147              1262.0407              1268.1290
 Red. masses --      2.7485                 2.4058                 2.7780
 Frc consts  --      2.5551                 2.2576                 2.6322
 IR Inten    --      2.5942                 6.4367                 1.8119

                     58                     59                     60
                      A                      A                      A
 Frequencies --   1334.5790              1341.0494              1366.9793
 Red. masses --      1.1988                 1.1476                 1.2117
 Frc consts  --      1.2580                 1.2160                 1.3340
 IR Inten    --      0.9448                 0.9605                 2.6965

                     61                     62                     63
                      A                      A                      A
 Frequencies --   1396.1219              1405.6590              1407.8668
 Red. masses --      1.3823                 1.4275                 1.3350
 Frc consts  --      1.5875                 1.6619                 1.5590
 IR Inten    --      1.4360                 0.6571                 0.9423

                     64                     65                     66
                      A                      A                      A
 Frequencies --   1429.2544              1432.1961              1439.4133
 Red. masses --      1.2209                 1.2229                 1.2384
 Frc consts  --      1.4694                 1.4780                 1.5117
 IR Inten    --      0.4358                 4.2366                 4.7264

                     67                     68                     69
                      A                      A                      A
 Frequencies --   1445.7088              1448.4400              1465.5561
 Red. masses --      1.2367                 1.2339                 1.2075
 Frc consts  --      1.5229                 1.5252                 1.5281
 IR Inten    --      9.6004                 2.2055                12.0783

                     70                     71                     72
                      A                      A                      A
 Frequencies --   1510.6942              1513.5176              1518.2031
 Red. masses --      1.0576                 1.0535                 1.0563
 Frc consts  --      1.4221                 1.4219                 1.4345
 IR Inten    --      1.8297                 0.0621                 1.3581

                     73                     74                     75
                      A                      A                      A
 Frequencies --   1523.8798              1529.3218              1531.4912
 Red. masses --      1.0534                 1.0477                 1.0434
 Frc consts  --      1.4413                 1.4437                 1.4419
 IR Inten    --      9.0343                 2.7730                 0.5526

                     76                     77                     78
                      A                      A                      A
 Frequencies --   1536.8890              1538.3270              1541.8489
 Red. masses --      1.0488                 1.0517                 1.0485
 Frc consts  --      1.4596                 1.4664                 1.4686
 IR Inten    --      3.3849                 3.6755                 1.2693

                     79                     80                     81
                      A                      A                      A
 Frequencies --   1542.6168              1547.8722              1548.6690
 Red. masses --      1.0530                 1.0544                 1.0564
 Frc consts  --      1.4763                 1.4884                 1.4928
 IR Inten    --      2.6325                 1.4577                 7.3097

                     82                     83                     84
                      A                      A                      A
 Frequencies --   1550.3440              1553.4752              1561.9662
 Red. masses --      1.0546                 1.0616                 1.0581
 Frc consts  --      1.4935                 1.5095                 1.5210
 IR Inten    --      3.5046                 2.6388                 0.5897

                     85                     86                     87
                      A                      A                      A
 Frequencies --   2085.5546              3043.0404              3050.1328
 Red. masses --      3.8318                 1.0655                 1.0463
 Frc consts  --      9.8196                 5.8133                 5.7350
 IR Inten    --      2.4420                14.9384                11.4187

                     88                     89                     90
                      A                      A                      A
 Frequencies --   3052.0013              3053.7070              3054.6236
 Red. masses --      1.0457                 1.0418                 1.0377
 Frc consts  --      5.7390                 5.7236                 5.7048
 IR Inten    --      9.5970                16.5089                15.6719

                     91                     92                     93
                      A                      A                      A
 Frequencies --   3054.8473              3056.0714              3062.0252
 Red. masses --      1.0406                 1.0485                 1.0467
 Frc consts  --      5.7217                 5.7694                 5.7824
 IR Inten    --     48.4983                41.2214                55.4864

                     94                     95                     96
                      A                      A                      A
 Frequencies --   3067.7634              3084.1191              3095.5228
 Red. masses --      1.0607                 1.0989                 1.0995
 Frc consts  --      5.8818                 6.1584                 6.2073
 IR Inten    --      9.9151                15.7221                25.2650

                     97                     98                     99
                      A                      A                      A
 Frequencies --   3100.2165              3108.7560              3110.6171
 Red. masses --      1.0952                 1.0994                 1.0985
 Frc consts  --      6.2018                 6.2602                 6.2622
 IR Inten    --      8.1341                11.8714                26.8798

                    100                    101                    102
                      A                      A                      A
 Frequencies --   3112.6511              3115.3227              3116.4198
 Red. masses --      1.0991                 1.0968                 1.0973
 Frc consts  --      6.2742                 6.2719                 6.2789
 IR Inten    --      6.7549                52.0969                78.0908

                    103                    104                    105
                      A                      A                      A
 Frequencies --   3120.9974              3129.7429              3133.0869
 Red. masses --      1.0942                 1.1016                 1.1014
 Frc consts  --      6.2796                 6.3574                 6.3702
 IR Inten    --     63.5186                51.5515                58.8062

                    106                    107                    108
                      A                      A                      A
 Frequencies --   3137.2029              3139.4480              3155.4314
 Red. masses --      1.1012                 1.1001                 1.0983
 Frc consts  --      6.3858                 6.3882                 6.4428
 IR Inten    --     44.7709                13.8110                23.9248

                    109                    110                    111
                      A                      A                      A
 Frequencies --   3161.5283              3442.8856              3542.4919
 Red. masses --      1.0963                 1.0848                 1.2276
 Frc consts  --      6.4563                 7.5763                 9.0764
 IR Inten    --     22.9486                72.3222                 0.1505

 - Thermochemistry -
 -------------------
 Temperature   298.150 Kelvin.  Pressure   1.00000 Atm.
 Atom     1 has atomic number  6 and mass  12.00000

 Molecular mass:   182.20345 amu.
 Principal axes and moments of inertia in atomic units:
                           1         2         3
     Eigenvalues --  1800.766214040.770354262.06137
           X            0.99996  -0.00193  -0.00829
           Y            0.00201   0.99995   0.00984
           Z            0.00827  -0.00985   0.99992
 This molecule is an asymmetric top.
 Rotational symmetry number  1.
 Warning -- assumption of classical behavior for rotation
           may cause significant error
 Rotational temperatures (Kelvin)      0.04810     0.02144     0.02032
 Rotational constants (GHZ):           1.00221     0.44663     0.42344
 Zero-point vibrational energy     949085.9 (Joules/Mol)
                                  226.83697 (Kcal/Mol)
 Warning -- explicit consideration of  30 degrees of freedom as
           vibrations may cause significant error
 Vibrational temperatures:     28.32    34.54    45.95    76.56   101.80
          (Kelvin)            140.97   182.66   198.13   231.56   289.75
                              348.58   363.04   366.88   372.83   403.07
                              422.96   431.78   468.68   478.69   495.80
                              531.71   537.53   554.49   593.25   610.48
                              683.55   740.30   773.98   783.25   805.59
                              905.65  1091.37  1109.18  1115.03  1119.89
                             1160.13  1202.78  1319.42  1323.30  1340.38
                             1360.29  1363.32  1401.01  1492.80  1510.66
                             1519.92  1527.89  1534.25  1535.56  1592.54
                             1598.80  1705.67  1712.83  1740.19  1807.27
                             1815.80  1824.55  1920.16  1929.47  1966.78
                             2008.71  2022.43  2025.61  2056.38  2060.61
                             2070.99  2080.05  2083.98  2108.61  2173.55
                             2177.61  2184.36  2192.52  2200.35  2203.47
                             2211.24  2213.31  2218.38  2219.48  2227.04
                             2228.19  2230.60  2235.10  2247.32  3000.65
                             4378.26  4388.46  4391.15  4393.60  4394.92
                             4395.24  4397.01  4405.57  4413.83  4437.36
                             4453.77  4460.52  4472.81  4475.48  4478.41
                             4482.25  4483.83  4490.42  4503.00  4507.81
                             4513.74  4516.97  4539.96  4548.73  4953.54
                             5096.86

 Zero-point correction=                           0.361488 (Hartree/Particle)
 Thermal correction to Energy=                    0.380241
 Thermal correction to Enthalpy=                  0.381185
 Thermal correction to Gibbs Free Energy=         0.314055
 Sum of electronic and zero-point Energies=           -510.658126
 Sum of electronic and thermal Energies=              -510.639373
 Sum of electronic and thermal Enthalpies=            -510.638429
 Sum of electronic and thermal Free Energies=         -510.705558

                     E (Thermal)             CV                S
                      KCal/Mol        Cal/Mol-Kelvin    Cal/Mol-Kelvin
 Total                  238.605             69.219            141.286
 Electronic               0.000              0.000              0.000
 Translational            0.889              2.981             41.506
 Rotational               0.889              2.981             31.806
 Vibrational            236.827             63.258             67.974
 Vibration     1          0.593              1.986              6.666
 Vibration     2          0.593              1.985              6.272
 Vibration     3          0.594              1.983              5.705
 Vibration     4          0.596              1.976              4.694
 Vibration     5          0.598              1.968              4.132
 Vibration     6          0.603              1.951              3.494
 Vibration     7          0.611              1.926              2.992
 Vibration     8          0.614              1.916              2.836
 Vibration     9          0.622              1.890              2.539
 Vibration    10          0.638              1.838              2.120
 Vibration    11          0.658              1.776              1.786
 Vibration    12          0.664              1.759              1.714
 Vibration    13          0.665              1.754              1.696
 Vibration    14          0.668              1.747              1.668
 Vibration    15          0.680              1.710              1.533
 Vibration    16          0.689              1.685              1.451
 Vibration    17          0.693              1.673              1.416
 Vibration    18          0.710              1.624              1.281
 Vibration    19          0.715              1.610              1.247
 Vibration    20          0.723              1.586              1.191
 Vibration    21          0.742              1.535              1.082
 Vibration    22          0.745              1.526              1.065
 Vibration    23          0.754              1.501              1.018
 Vibration    24          0.776              1.443              0.918
 Vibration    25          0.786              1.417              0.877
 Vibration    26          0.832              1.305              0.723
 Vibration    27          0.870              1.218              0.623
 Vibration    28          0.893              1.166              0.570
 Vibration    29          0.900              1.152              0.556
 Vibration    30          0.916              1.118              0.524

                           ! Non-Optimized Parameters !
 Normal termination of Gaussian 16 at Sun Dec 13 13:21:55 2020.

 ----------------------------------------------------------------------
 # B3LYP/6-311++G(d,p) empiricaldispersion=gd3bj scf=xqc pop=npa geom=c
 heck
 ----------------------------------------------------------------------

 ---------------------------------------
 CID_142214452_JID_3193_Energie_neutraal
 ---------------------------------------
 Structure from the checkpoint file:  "JID_3193.chk"
 Charge =  0 Multiplicity = 1

 SCF Done:  E(RB3LYP) =  -511.169986056     A.U. after   14 cycles
 Normal termination of Gaussian 16 at Sun Dec 13 13:27:09 2020.

 ----------------------------------------------------------------------
 # B3LYP/6-311++G(d,p) empiricaldispersion=gd3bj scf=xqc pop=npa geom=c
 heck
 ----------------------------------------------------------------------

 -------------------------------------
 CID_142214452_JID_3193_Energie_kation
 -------------------------------------
 Structure from the checkpoint file:  "JID_3193.chk"
 Charge =  1 Multiplicity = 2

 SCF Done:  E(UB3LYP) =  -510.824305228     A.U. after   33 cycles
 SCF Done:  E(UB3LYP) =  -510.824305397     a.u. after    3 cycles
 Normal termination of Gaussian 16 at Sun Dec 13 14:09:48 2020.
 Gaussian 16:  ES64L-G16RevA.03 25-Dec-2016

 ----------------------------------------------------------------------
 # B3LYP/6-311++G(d,p) empiricaldispersion=gd3bj scf=xqc pop=npa geom=c
 heck
 ----------------------------------------------------------------------

 ------------------------------------
 CID_142214452_JID_3193_Energie_anion
 ------------------------------------
 Structure from the checkpoint file:  "JID_3193.chk"
 Charge = -1 Multiplicity = 2

                         Standard orientation:
 ---------------------------------------------------------------------
 Center     Atomic      Atomic             Coordinates (Angstroms)
 Number     Number       Type             X           Y           Z
 ---------------------------------------------------------------------
      1          6           0       -1.111967    1.629193   -0.989641
      2          6           0       -0.642529    0.176995   -0.853433
      3          6           0        0.427765   -0.176918    0.219157
      4          6           0       -0.052488    0.303136    1.621745
      5          6           0       -1.379304   -0.261513    2.147243
      6          6           0        0.490264   -1.735471    0.283262
      7          6           0        0.920188   -2.532631   -0.955440
      8          6           0        1.855917    0.472021   -0.084982
      9          6           0        2.181050    0.491183   -1.594916
     10          6           0        1.966081    1.937154    0.404481
     11          6           0        2.984815   -0.298299    0.635804
     12          6           0       -4.405387   -0.625590   -0.487303
     13          6           0       -4.467213    0.575187   -0.403179
     14          1           0       -1.444791    2.047152   -0.033594
     15          1           0       -1.963532    1.671736   -1.678035
     16          1           0       -0.336091    2.288241   -1.389813
     17          1           0       -1.529457   -0.429670   -0.638645
     18          1           0       -0.293858   -0.161701   -1.833742
     19          1           0        0.732154    0.076462    2.355316
     20          1           0       -0.141973    1.392437    1.612248
     21          1           0       -1.331212   -1.337652    2.340800
     22          1           0       -1.633083    0.224033    3.096829
     23          1           0       -2.209667   -0.082653    1.457032
     24          1           0        1.121816   -2.032454    1.129003
     25          1           0       -0.517871   -2.077956    0.539717
     26          1           0        1.977255   -2.402139   -1.201633
     27          1           0        0.762211   -3.602304   -0.773413
     28          1           0        0.335668   -2.265417   -1.841759
     29          1           0        1.533279    1.184180   -2.140646
     30          1           0        3.213691    0.829924   -1.741616
     31          1           0        2.088642   -0.490329   -2.063178
     32          1           0        1.972488    2.007833    1.495956
     33          1           0        2.911505    2.363089    0.048003
     34          1           0        1.159917    2.571967    0.030732
     35          1           0        2.795170   -0.387435    1.710916
     36          1           0        3.131483   -1.304717    0.235146
     37          1           0        3.931742    0.241220    0.516242
     38          1           0       -4.354744   -1.688448   -0.560356
     39          1           0       -4.513893    1.637931   -0.328307
 ---------------------------------------------------------------------

 SCF Done:  E(UB3LYP) =  -511.153125170     A.U. after   33 cycles
 SCF Done:  E(UB3LYP) =  -511.153125169     a.u. after    1 cycles

 The electronic state is 2-A.
 Alpha  occ. eigenvalues --  -10.09188 -10.08953 -10.08663 -10.08127 -10.06027
 Alpha  occ. eigenvalues --  -10.05964 -10.05829 -10.05750 -10.05743 -10.05711
 Alpha  occ. eigenvalues --  -10.05699 -10.05629 -10.05342  -0.74271  -0.68469
 Alpha  occ. eigenvalues --   -0.66877  -0.65034  -0.64581  -0.58794  -0.58397
 Alpha  occ. eigenvalues --   -0.57831  -0.51766  -0.50849  -0.48169  -0.47138
 Alpha  occ. eigenvalues --   -0.41268  -0.40485  -0.38425  -0.36222  -0.35441
 Alpha  occ. eigenvalues --   -0.34879  -0.34008  -0.31711  -0.31236  -0.30541
 Alpha  occ. eigenvalues --   -0.29465  -0.28877  -0.28658  -0.27290  -0.26983
 Alpha  occ. eigenvalues --   -0.26402  -0.26117  -0.25321  -0.24938  -0.23950
 Alpha  occ. eigenvalues --   -0.23174  -0.22606  -0.20817  -0.20747  -0.19577
 Alpha  occ. eigenvalues --   -0.19404  -0.19180   0.04414
 Alpha virt. eigenvalues --    0.06184   0.06457   0.07355   0.07799   0.08551
 Alpha virt. eigenvalues --    0.09019   0.09151   0.09389   0.09563   0.10182
 Alpha virt. eigenvalues --    0.11046   0.11174   0.11574   0.12022   0.12440

  Beta  occ. eigenvalues --  -10.09172 -10.08938 -10.08660 -10.08127 -10.06014
  Beta  occ. eigenvalues --  -10.05953 -10.05820 -10.05727 -10.05723 -10.05691
  Beta  occ. eigenvalues --  -10.05683 -10.05615 -10.05324  -0.74258  -0.68449
  Beta  occ. eigenvalues --   -0.66861  -0.65005  -0.64556  -0.58761  -0.58362
  Beta  occ. eigenvalues --   -0.57795  -0.51721  -0.50794  -0.48101  -0.47100
  Beta  occ. eigenvalues --   -0.41206  -0.40452  -0.38403  -0.36201  -0.35420
  Beta  occ. eigenvalues --   -0.34855  -0.33987  -0.31693  -0.31218  -0.30521
  Beta  occ. eigenvalues --   -0.29441  -0.28853  -0.28633  -0.27259  -0.26957
  Beta  occ. eigenvalues --   -0.26373  -0.26089  -0.25291  -0.24913  -0.23928
  Beta  occ. eigenvalues --   -0.23154  -0.22588  -0.20802  -0.20733  -0.19559
  Beta  occ. eigenvalues --   -0.19386  -0.19159
  Beta virt. eigenvalues --    0.06385   0.07198   0.07302   0.07826   0.08453
  Beta virt. eigenvalues --    0.08934   0.09303   0.09383   0.09610   0.09788
  Beta virt. eigenvalues --    0.10305   0.11357   0.11383   0.11904   0.12358

 Mulliken charges and spin densities:
               1          2
     1  C   -0.131683  -0.734208
     2  C   -0.797254   0.754463
     3  C    2.587720  -1.713766
     4  C   -0.668390   0.413036
     5  C    0.141879  -0.829386
     6  C   -1.647940   1.304530
     7  C    0.942058  -1.549548
     8  C   -1.317352   1.651068
     9  C    0.114333  -0.717494
    10  C   -0.059214  -0.526083
    11  C    0.340354  -0.989027
    12  C    0.192567  -0.382384
    13  C    0.759305  -0.928921
    14  H   -0.052899   0.228482
    15  H    0.021455   0.134669
    16  H   -0.048588   0.159350
    17  H    0.483779  -0.419357
    18  H   -0.008561   0.155684
    19  H    0.223369  -0.087200
    20  H   -0.070117   0.208380
    21  H   -0.295246   0.441748
    22  H   -0.269006   0.416019
    23  H    0.619628  -0.505357
    24  H   -0.112138   0.272114
    25  H    0.289237  -0.159847
    26  H   -0.002320   0.128776
    27  H   -0.427000   0.577197
    28  H   -0.085984   0.239666
    29  H   -0.013992   0.157763
    30  H   -0.076927   0.222985
    31  H    0.157165  -0.017148
    32  H   -0.123432   0.284168
    33  H   -0.118175   0.268644
    34  H    0.023656   0.107909
    35  H   -0.161316   0.316441
    36  H   -0.013107   0.152066
    37  H    0.027194   0.116819
    38  H   -0.880479   1.095160
    39  H   -0.542580   0.752588
 Sum of Mulliken charges =  -1.00000   1.00000

 Dipole moment (field-independent basis, Debye):
    X=              2.8539    Y=              1.7511    Z=             -0.3505  Tot=              3.3666
 Quadrupole moment (field-independent basis, Debye-Ang):
   XX=           -161.2040   YY=           -142.3004   ZZ=           -128.9190
   XY=             -2.8911   XZ=             -1.1241   YZ=             -2.2485

 Summary of Natural Population Analysis:

                                       Natural Population
                Natural  -----------------------------------------------
    Atom  No    Charge         Core      Valence    Rydberg      Total
 -----------------------------------------------------------------------
      C    1   -0.28506      0.99965     2.27989    0.00552     3.28506
      C    2   -0.20026      0.99959     2.19038    0.01030     3.20026
      C    3   -0.02193      0.99952     2.00599    0.01642     3.02193
      C    4   -0.19406      0.99959     2.18430    0.01017     3.19406
      C    5   -0.28816      0.99965     2.28321    0.00530     3.28816
      C    6   -0.19468      0.99959     2.18417    0.01092     3.19468
      C    7   -0.28483      0.99965     2.28014    0.00503     3.28483
      C    8   -0.04237      0.99956     2.02888    0.01393     3.04237
      C    9   -0.28739      0.99962     2.28088    0.00689     3.28739
      C   10   -0.28744      0.99962     2.28060    0.00722     3.28744
      C   11   -0.28660      0.99962     2.27977    0.00721     3.28660
      C   12   -0.10986      0.99939     2.10556    0.00492     3.10986
      C   13   -0.11284      0.99939     2.10861    0.00484     3.11284
      H   14    0.09588      0.00000     0.40261    0.00151     0.40412
      H   15    0.10031      0.00000     0.39880    0.00089     0.39969
      H   16    0.09422      0.00000     0.40473    0.00104     0.40578
      H   17    0.10200      0.00000     0.39572    0.00228     0.39800
      H   18    0.09901      0.00000     0.39947    0.00153     0.40099
      H   19    0.09656      0.00000     0.40219    0.00124     0.40344
      H   20    0.09918      0.00000     0.39945    0.00137     0.40082
      H   21    0.09587      0.00000     0.40292    0.00121     0.40413
      H   22    0.09823      0.00000     0.40091    0.00086     0.40177
      H   23    0.10161      0.00000     0.39692    0.00147     0.39839
      H   24    0.09766      0.00000     0.40114    0.00120     0.40234
      H   25    0.09946      0.00000     0.39859    0.00194     0.40054
      H   26    0.09343      0.00000     0.40554    0.00103     0.40657
      H   27    0.10021      0.00000     0.39886    0.00093     0.39979
      H   28    0.09729      0.00000     0.40155    0.00115     0.40271
      H   29    0.10000      0.00000     0.39912    0.00088     0.40000
      H   30    0.09783      0.00000     0.40138    0.00079     0.40217
      H   31    0.10222      0.00000     0.39671    0.00107     0.39778
      H   32    0.10067      0.00000     0.39833    0.00100     0.39933
      H   33    0.09770      0.00000     0.40144    0.00085     0.40230
      H   34    0.10165      0.00000     0.39726    0.00109     0.39835
      H   35    0.10004      0.00000     0.39890    0.00105     0.39996
      H   36    0.10029      0.00000     0.39882    0.00089     0.39971
      H   37    0.09828      0.00000     0.40087    0.00085     0.40172
      H   38    0.11350      0.00000     0.38432    0.00218     0.38650
      H   39    0.11236      0.00000     0.38593    0.00170     0.38764
 =======================================================================
   * Total *   -0.00000     12.99445    38.86485    0.14070    52.00000

 Normal termination of Gaussian 16 at Sun Dec 13 14:26:06 2020.
