 Gaussian 16, Revision A.03,

 -----------------------------------------------------------
 # opt freq B3LYP/6-31G(d) empiricaldispersion=gd3bj scf=xqc
 -----------------------------------------------------------

 ------------------------------
 CID_96850269_JID_1311_neutraal
 ------------------------------
 Symbolic Z-matrix:
 Charge =  0 Multiplicity = 1

 SCF Done:  E(RB3LYP) =  -823.635838515     A.U. after   15 cycles
 SCF Done:  E(RB3LYP) =  -823.639702942     A.U. after   13 cycles
 SCF Done:  E(RB3LYP) =  -823.639429230     A.U. after   13 cycles
 SCF Done:  E(RB3LYP) =  -823.640187417     A.U. after   12 cycles
 SCF Done:  E(RB3LYP) =  -823.640332397     A.U. after   11 cycles
 SCF Done:  E(RB3LYP) =  -823.640416020     A.U. after   12 cycles
 SCF Done:  E(RB3LYP) =  -823.640518775     A.U. after   13 cycles
 SCF Done:  E(RB3LYP) =  -823.640547465     A.U. after   11 cycles
 SCF Done:  E(RB3LYP) =  -823.640620320     A.U. after   11 cycles
 SCF Done:  E(RB3LYP) =  -823.640643643     A.U. after   10 cycles
 SCF Done:  E(RB3LYP) =  -823.640905804     A.U. after   11 cycles
 SCF Done:  E(RB3LYP) =  -823.640906151     A.U. after    9 cycles
 SCF Done:  E(RB3LYP) =  -823.640905173     A.U. after   10 cycles
 SCF Done:  E(RB3LYP) =  -823.640906362     A.U. after   10 cycles
 SCF Done:  E(RB3LYP) =  -823.640906484     A.U. after    8 cycles
 Optimization completed.
    -- Stationary point found.
 Normal termination of Gaussian 16 at Tue Dec  8 19:46:14 2020.

 --------------------------------------------------------------------
 #N Geom=AllCheck Guess=TCheck SCRF=Check GenChk RB3LYP/6-31G(d) Freq
 --------------------------------------------------------------------

 Structure from the checkpoint file:  "JID_1311.chk"
 ------------------------------
 CID_96850269_JID_1311_neutraal
 ------------------------------
 Charge =  0 Multiplicity = 1

 SCF Done:  E(RB3LYP) =  -823.640906484     A.U. after    1 cycles

  Exact polarizability: 134.244  -6.002 118.884   7.706   6.536  76.507
 Approx polarizability: 196.045 -10.776 192.742  18.285  21.120 119.224

                      1                      2                      3
                      A                      A                      A
 Frequencies --     35.8095                62.4431                84.3363
 Red. masses --      3.1064                 2.6891                 2.2870
 Frc consts  --      0.0023                 0.0062                 0.0096
 IR Inten    --      2.3932                 3.6961                 0.3821

                      4                      5                      6
                      A                      A                      A
 Frequencies --     93.1451               111.3449               125.6174
 Red. masses --      1.6568                 1.1325                 1.1669
 Frc consts  --      0.0085                 0.0083                 0.0108
 IR Inten    --      0.4620                 0.3186                 0.1927

                      7                      8                      9
                      A                      A                      A
 Frequencies --    161.2806               223.8145               232.3697
 Red. masses --      2.6769                 3.6310                 3.3116
 Frc consts  --      0.0410                 0.1072                 0.1054
 IR Inten    --      2.7756                 2.3820                 1.5229

                     10                     11                     12
                      A                      A                      A
 Frequencies --    266.1545               317.6294               380.5421
 Red. masses --      2.8331                 4.1120                 2.9759
 Frc consts  --      0.1182                 0.2444                 0.2539
 IR Inten    --      1.2652                 1.3902                 0.2784

                     13                     14                     15
                      A                      A                      A
 Frequencies --    404.5373               475.1899               501.0602
 Red. masses --      2.2774                 4.8390                 4.3165
 Frc consts  --      0.2196                 0.6438                 0.6385
 IR Inten    --      1.0084                 4.1345                 5.4131

                     16                     17                     18
                      A                      A                      A
 Frequencies --    506.7929               545.5812               609.5005
 Red. masses --      4.9420                 3.0717                 3.6217
 Frc consts  --      0.7479                 0.5387                 0.7927
 IR Inten    --      3.4937                12.4040                 3.5852

                     19                     20                     21
                      A                      A                      A
 Frequencies --    678.5403               682.9286               712.7668
 Red. masses --      3.8634                 4.3615                 4.4582
 Frc consts  --      1.0480                 1.1985                 1.3344
 IR Inten    --      1.9375                 2.9592                 0.6788

                     22                     23                     24
                      A                      A                      A
 Frequencies --    799.2943               843.0393               892.8495
 Red. masses --      3.0929                 1.4286                 1.7669
 Frc consts  --      1.1642                 0.5982                 0.8299
 IR Inten    --      2.3409                 9.3046                 4.3754

                     25                     26                     27
                      A                      A                      A
 Frequencies --    899.3312              1017.5564              1026.9097
 Red. masses --      2.4686                 1.6008                 1.6938
 Frc consts  --      1.1764                 0.9766                 1.0524
 IR Inten    --      5.2180                 1.4491                 2.7096

                     28                     29                     30
                      A                      A                      A
 Frequencies --   1051.1528              1068.9210              1073.8926
 Red. masses --      1.7610                 1.4005                 1.4056
 Frc consts  --      1.1464                 0.9428                 0.9551
 IR Inten    --      0.4601                 1.7792                 2.6821

                     31                     32                     33
                      A                      A                      A
 Frequencies --   1107.9592              1155.6291              1178.6252
 Red. masses --      2.1836                 1.5819                 2.6058
 Frc consts  --      1.5793                 1.2447                 2.1327
 IR Inten    --      3.8010                 5.9771                27.2169

                     34                     35                     36
                      A                      A                      A
 Frequencies --   1206.9700              1241.9162              1272.4280
 Red. masses --      3.4292                 2.0156                 1.6389
 Frc consts  --      2.9434                 1.8316                 1.5634
 IR Inten    --     20.9969                14.3467                52.5063

                     37                     38                     39
                      A                      A                      A
 Frequencies --   1314.1957              1404.7071              1411.4514
 Red. masses --      1.4966                 3.5862                 1.3637
 Frc consts  --      1.5229                 4.1692                 1.6006
 IR Inten    --     14.2777                 5.6201                38.5228

                     40                     41                     42
                      A                      A                      A
 Frequencies --   1444.7115              1450.6578              1493.3670
 Red. masses --      1.2653                 1.2270                 1.0592
 Frc consts  --      1.5560                 1.5213                 1.3917
 IR Inten    --      1.9330                 0.8456                 9.6318

                     43                     44                     45
                      A                      A                      A
 Frequencies --   1502.4808              1507.5437              1507.8171
 Red. masses --      1.0787                 1.0625                 1.0425
 Frc consts  --      1.4347                 1.4227                 1.3964
 IR Inten    --      2.6477                15.3657                 5.4883

                     46                     47                     48
                      A                      A                      A
 Frequencies --   1515.8466              1521.2805              1528.8953
 Red. masses --      1.1868                 1.1129                 1.0563
 Frc consts  --      1.6067                 1.5175                 1.4548
 IR Inten    --      9.2254                 6.3125                 3.7221

                     49                     50                     51
                      A                      A                      A
 Frequencies --   1566.9723              1632.9551              1811.3402
 Red. masses --      3.7108                 5.8654                10.0665
 Frc consts  --      5.3683                 9.2150                19.4594
 IR Inten    --      4.3989                 4.4061               160.8399

                     52                     53                     54
                      A                      A                      A
 Frequencies --   3042.6019              3044.0163              3050.4319
 Red. masses --      1.0425                 1.0365                 1.0405
 Frc consts  --      5.6864                 5.6587                 5.7043
 IR Inten    --     40.1767                34.2315                 2.0771

                     55                     56                     57
                      A                      A                      A
 Frequencies --   3062.8599              3095.4371              3098.7620
 Red. masses --      1.0611                 1.1017                 1.0967
 Frc consts  --      5.8651                 6.2198                 6.2045
 IR Inten    --     18.6249                17.6689                12.7249

                     58                     59                     60
                      A                      A                      A
 Frequencies --   3113.2118              3124.6874              3127.0846
 Red. masses --      1.0969                 1.1017                 1.1009
 Frc consts  --      6.2637                 6.3376                 6.3428
 IR Inten    --      9.7485                 9.2245                13.3350

                     61                     62                     63
                      A                      A                      A
 Frequencies --   3150.4769              3169.7102              3197.9818
 Red. masses --      1.0991                 1.1026                 1.0925
 Frc consts  --      6.4276                 6.5270                 6.5832
 IR Inten    --      1.2662                10.5808                11.0837

 - Thermochemistry -
 -------------------
 Temperature   298.150 Kelvin.  Pressure   1.00000 Atm.
 Atom     1 has atomic number  6 and mass  12.00000

 Molecular mass:   168.06089 amu.
 Principal axes and moments of inertia in atomic units:
                           1         2         3
     Eigenvalues --  1113.990972827.655793545.59030
           X            0.99987  -0.01627  -0.00067
           Y            0.01626   0.99975  -0.01561
           Z            0.00092   0.01559   0.99988
 This molecule is an asymmetric top.
 Rotational symmetry number  1.
 Warning -- assumption of classical behavior for rotation
           may cause significant error
 Rotational temperatures (Kelvin)      0.07775     0.03063     0.02443
 Rotational constants (GHZ):           1.62007     0.63825     0.50901
 Zero-point vibrational energy     496087.4 (Joules/Mol)
                                  118.56774 (Kcal/Mol)
 Warning -- explicit consideration of  18 degrees of freedom as
           vibrations may cause significant error
 Vibrational temperatures:     51.52    89.84   121.34   134.02   160.20
          (Kelvin)            180.74   232.05   322.02   334.33   382.94
                              457.00   547.52   582.04   683.69   720.91
                              729.16   784.97   876.94   976.27   982.58
                             1025.51  1150.01  1212.95  1284.61  1293.94
                             1464.04  1477.49  1512.37  1537.94  1545.09
                             1594.11  1662.69  1695.78  1736.56  1786.84
                             1830.74  1890.83  2021.06  2030.76  2078.62
                             2087.17  2148.62  2161.73  2169.02  2169.41
                             2180.97  2188.78  2199.74  2254.52  2349.46
                             2606.11  4377.63  4379.66  4388.89  4406.77
                             4453.64  4458.43  4479.22  4495.73  4499.18
                             4532.83  4560.51  4601.18

 Zero-point correction=                           0.188950 (Hartree/Particle)
 Thermal correction to Energy=                    0.201499
 Thermal correction to Enthalpy=                  0.202444
 Thermal correction to Gibbs Free Energy=         0.149105
 Sum of electronic and zero-point Energies=           -823.451957
 Sum of electronic and thermal Energies=              -823.439407
 Sum of electronic and thermal Enthalpies=            -823.438463
 Sum of electronic and thermal Free Energies=         -823.491802

                     E (Thermal)             CV                S
                      KCal/Mol        Cal/Mol-Kelvin    Cal/Mol-Kelvin
 Total                  126.443             44.338            112.261
 Electronic               0.000              0.000              0.000
 Translational            0.889              2.981             41.266
 Rotational               0.889              2.981             30.791
 Vibrational            124.665             38.377             40.204
 Vibration     1          0.594              1.982              5.478
 Vibration     2          0.597              1.972              4.378
 Vibration     3          0.601              1.960              3.787
 Vibration     4          0.602              1.954              3.593
 Vibration     5          0.607              1.940              3.245
 Vibration     6          0.611              1.927              3.012
 Vibration     7          0.622              1.890              2.535
 Vibration     8          0.649              1.805              1.928
 Vibration     9          0.653              1.791              1.861
 Vibration    10          0.672              1.735              1.621
 Vibration    11          0.704              1.640              1.322
 Vibration    12          0.750              1.512              1.037
 Vibration    13          0.770              1.460              0.946
 Vibration    14          0.832              1.305              0.723
 Vibration    15          0.856              1.248              0.655
 Vibration    16          0.862              1.235              0.641
 Vibration    17          0.901              1.149              0.553
 Vibration    18          0.968              1.012              0.434

 Optimization completed.
    -- Stationary point found.
 Normal termination of Gaussian 16 at Tue Dec  8 19:50:57 2020.

 ----------------------------------------------------------------------
 # B3LYP/6-311++G(d,p) empiricaldispersion=gd3bj scf=xqc pop=npa geom=c
 heck
 ----------------------------------------------------------------------

 --------------------------------------
 CID_96850269_JID_1311_Energie_neutraal
 --------------------------------------
 Structure from the checkpoint file:  "JID_1311.chk"
 Charge =  0 Multiplicity = 1

 SCF Done:  E(RB3LYP) =  -823.785804657     A.U. after   15 cycles
 Normal termination of Gaussian 16 at Tue Dec  8 19:52:43 2020.

 ----------------------------------------------------------------------
 # B3LYP/6-311++G(d,p) empiricaldispersion=gd3bj scf=xqc pop=npa geom=c
 heck
 ----------------------------------------------------------------------

 ------------------------------------
 CID_96850269_JID_1311_Energie_kation
 ------------------------------------
 Structure from the checkpoint file:  "JID_1311.chk"
 Charge =  1 Multiplicity = 2

 SCF Done:  E(UB3LYP) =  -823.496626118     A.U. after   23 cycles
 Normal termination of Gaussian 16 at Tue Dec  8 19:56:11 2020.
 Gaussian 16:  ES64L-G16RevA.03 25-Dec-2016

 ----------------------------------------------------------------------
 # B3LYP/6-311++G(d,p) empiricaldispersion=gd3bj scf=xqc pop=npa geom=c
 heck
 ----------------------------------------------------------------------

 -----------------------------------
 CID_96850269_JID_1311_Energie_anion
 -----------------------------------
 Structure from the checkpoint file:  "JID_1311.chk"
 Charge = -1 Multiplicity = 2

                         Standard orientation:
 ---------------------------------------------------------------------
 Center     Atomic      Atomic             Coordinates (Angstroms)
 Number     Number       Type             X           Y           Z
 ---------------------------------------------------------------------
      1          6           0        3.334651   -1.431232    0.138015
      2          6           0        2.062494   -0.664133   -0.051407
      3          6           0        0.877104   -1.095490   -0.575884
      4          6           0       -0.147488   -0.091457   -0.623730
      5          6           0        0.267192    1.115150   -0.114995
      6         16           0        1.935278    1.019304    0.408452
      7          6           0       -0.495845    2.401146   -0.001946
      8          6           0       -1.549711   -0.356520   -1.127881
      9          6           0       -2.518983   -0.468421    0.051173
     10          8           0       -3.295387    0.429899    0.317670
     11          6           0       -2.426453   -1.731837    0.882815
     12          1           0        4.164918   -0.994007   -0.429729
     13          1           0        3.639600   -1.464616    1.191000
     14          1           0        3.199140   -2.461523   -0.205449
     15          1           0        0.729678   -2.110094   -0.934617
     16          1           0       -0.335386    2.877993    0.971288
     17          1           0       -0.190611    3.120408   -0.773192
     18          1           0       -1.568026    2.218090   -0.105607
     19          1           0       -1.904515    0.447986   -1.777349
     20          1           0       -1.556985   -1.290281   -1.702653
     21          1           0       -2.742331   -2.595727    0.283789
     22          1           0       -1.388827   -1.911703    1.185619
     23          1           0       -3.065769   -1.647825    1.763355
 ---------------------------------------------------------------------

 SCF Done:  E(UB3LYP) =  -823.772910132     A.U. after   33 cycles
 SCF Done:  E(UB3LYP) =  -823.772910132     a.u. after    1 cycles

 The electronic state is 2-A.
 Alpha  occ. eigenvalues --  -88.76529 -18.99916 -10.14554 -10.10019 -10.09770
 Alpha  occ. eigenvalues --  -10.07844 -10.07687 -10.07345 -10.07269 -10.06405
 Alpha  occ. eigenvalues --  -10.06116  -7.85196  -5.81479  -5.81124  -5.80780
 Alpha  occ. eigenvalues --   -0.93314  -0.78024  -0.68980  -0.66824  -0.63023
 Alpha  occ. eigenvalues --   -0.61855  -0.58981  -0.54084  -0.44386  -0.43505
 Alpha  occ. eigenvalues --   -0.41265  -0.37552  -0.35764  -0.34847  -0.33388
 Alpha  occ. eigenvalues --   -0.32844  -0.32092  -0.32061  -0.31282  -0.29013
 Alpha  occ. eigenvalues --   -0.28932  -0.27767  -0.25992  -0.25788  -0.24710
 Alpha  occ. eigenvalues --   -0.24223  -0.22860  -0.15718  -0.13657  -0.11512
 Alpha  occ. eigenvalues --    0.04700
 Alpha virt. eigenvalues --    0.06765   0.07560   0.07717   0.08207   0.09281
 Alpha virt. eigenvalues --    0.09765   0.10691   0.10853   0.11306   0.11434
 Alpha virt. eigenvalues --    0.11718   0.12926   0.13198   0.13982   0.14227

  Beta  occ. eigenvalues --  -88.76523 -18.99816 -10.14431 -10.10022 -10.09748
  Beta  occ. eigenvalues --  -10.07841 -10.07682 -10.07334 -10.07223 -10.06379
  Beta  occ. eigenvalues --  -10.06093  -7.85188  -5.81473  -5.81119  -5.80773
  Beta  occ. eigenvalues --   -0.93109  -0.78000  -0.68917  -0.66756  -0.62934
  Beta  occ. eigenvalues --   -0.61805  -0.58930  -0.54023  -0.44309  -0.43374
  Beta  occ. eigenvalues --   -0.41134  -0.37439  -0.35654  -0.34765  -0.33273
  Beta  occ. eigenvalues --   -0.32744  -0.32050  -0.32009  -0.31204  -0.28965
  Beta  occ. eigenvalues --   -0.28870  -0.27719  -0.25859  -0.25676  -0.24646
  Beta  occ. eigenvalues --   -0.24038  -0.22726  -0.15665  -0.13603  -0.11439
  Beta virt. eigenvalues --    0.07120   0.07676   0.07746   0.08337   0.08824
  Beta virt. eigenvalues --    0.10004   0.10220   0.11193   0.11365   0.11621
  Beta virt. eigenvalues --    0.11855   0.12012   0.13111   0.13441   0.14230

 Mulliken charges and spin densities:
               1          2
     1  C    2.977540  -3.149930
     2  C   -1.851413   2.147696
     3  C    0.928441  -1.187700
     4  C   -0.209707   0.510973
     5  C   -0.820403   1.219271
     6  S   -0.234875  -0.470194
     7  C   -0.190378  -0.356965
     8  C    0.916791  -1.529204
     9  C   -0.631167   0.827707
    10  O   -0.286272   0.027679
    11  C    0.735164  -1.393726
    12  H   -0.237906   0.395230
    13  H   -0.284715   0.443073
    14  H   -0.583438   0.757239
    15  H   -0.705234   0.887717
    16  H    0.059279   0.078106
    17  H    0.064245   0.084550
    18  H    0.200328  -0.026929
    19  H   -0.015997   0.205768
    20  H   -0.537269   0.725166
    21  H   -0.420704   0.600302
    22  H    0.100697   0.079858
    23  H    0.026993   0.124312
 Sum of Mulliken charges =  -1.00000   1.00000

 Dipole moment (field-independent basis, Debye):
    X=             -0.0852    Y=              7.0438    Z=              1.5937  Tot=              7.2224
 Quadrupole moment (field-independent basis, Debye-Ang):
   XX=           -140.0190   YY=           -121.6440   ZZ=           -101.1661
   XY=              6.3386   XZ=             -1.1372   YZ=             -6.4139

 Summary of Natural Population Analysis:

                                       Natural Population
                Natural  -----------------------------------------------
    Atom  No    Charge         Core      Valence    Rydberg      Total
 -----------------------------------------------------------------------
      C    1   -0.29861      0.99961     2.29170    0.00730     3.29861
      C    2   -0.09264      0.99951     2.08078    0.01235     3.09264
      C    3   -0.12383      0.99940     2.11183    0.01259     3.12383
      C    4   -0.04562      0.99940     2.03391    0.01231     3.04562
      C    5   -0.08891      0.99942     2.07855    0.01094     3.08891
      S    6    0.19131      4.99937     2.79045    0.01887     7.80869
      C    7   -0.30401      0.99961     2.29846    0.00594     3.30401
      C    8   -0.24286      0.99955     2.23243    0.01088     3.24286
      C    9    0.31280      0.99969     1.66645    0.02106     2.68720
      O   10   -0.28920      0.99987     3.28267    0.00666     4.28920
      C   11   -0.33655      0.99961     2.33152    0.00542     3.33655
      H   12    0.10444      0.00000     0.39426    0.00130     0.39556
      H   13    0.10540      0.00000     0.39320    0.00141     0.39460
      H   14    0.11268      0.00000     0.38501    0.00231     0.38732
      H   15    0.11175      0.00000     0.38511    0.00314     0.38825
      H   16    0.10303      0.00000     0.39585    0.00112     0.39697
      H   17    0.10077      0.00000     0.39789    0.00134     0.39923
      H   18    0.12000      0.00000     0.37878    0.00122     0.38000
      H   19    0.11116      0.00000     0.38767    0.00117     0.38884
      H   20    0.11585      0.00000     0.38075    0.00340     0.38415
      H   21    0.11521      0.00000     0.38140    0.00340     0.38479
      H   22    0.11242      0.00000     0.38627    0.00130     0.38758
      H   23    0.10540      0.00000     0.39372    0.00088     0.39460
 =======================================================================
   * Total *    0.00000     14.99505    29.85866    0.14629    45.00000

 Normal termination of Gaussian 16 at Tue Dec  8 20:01:32 2020.
