 Gaussian 16, Revision A.03,

 -----------------------------------------------------------
 # opt freq B3LYP/6-31G(d) empiricaldispersion=gd3bj scf=xqc
 -----------------------------------------------------------

 ------------------------------
 CID_71354211_JID_1495_neutraal
 ------------------------------
 Symbolic Z-matrix:
 Charge =  0 Multiplicity = 1

 SCF Done:  E(RB3LYP) =  -897.806426255     A.U. after   15 cycles
 SCF Done:  E(RB3LYP) =  -897.809263818     A.U. after   13 cycles
 SCF Done:  E(RB3LYP) =  -897.808550569     A.U. after   13 cycles
 SCF Done:  E(RB3LYP) =  -897.810529955     A.U. after   12 cycles
 SCF Done:  E(RB3LYP) =  -897.810777200     A.U. after   13 cycles
 SCF Done:  E(RB3LYP) =  -897.810499216     A.U. after   15 cycles
 SCF Done:  E(RB3LYP) =  -897.811140071     A.U. after   12 cycles
 SCF Done:  E(RB3LYP) =  -897.811187593     A.U. after   11 cycles
 SCF Done:  E(RB3LYP) =  -897.811200261     A.U. after   11 cycles
 SCF Done:  E(RB3LYP) =  -897.811204396     A.U. after    9 cycles
 SCF Done:  E(RB3LYP) =  -897.811868605     A.U. after   11 cycles
 SCF Done:  E(RB3LYP) =  -897.811894140     A.U. after   12 cycles
 SCF Done:  E(RB3LYP) =  -897.811903693     A.U. after   11 cycles
 SCF Done:  E(RB3LYP) =  -897.811908552     A.U. after   10 cycles
 SCF Done:  E(RB3LYP) =  -897.811911328     A.U. after   10 cycles
 SCF Done:  E(RB3LYP) =  -897.811911517     A.U. after    7 cycles
 Optimization completed.
    -- Stationary point found.
 Normal termination of Gaussian 16 at Tue Dec  8 20:15:41 2020.

 --------------------------------------------------------------------
 #N Geom=AllCheck Guess=TCheck SCRF=Check GenChk RB3LYP/6-31G(d) Freq
 --------------------------------------------------------------------

 Structure from the checkpoint file:  "JID_1495.chk"
 ------------------------------
 CID_71354211_JID_1495_neutraal
 ------------------------------
 Charge =  0 Multiplicity = 1

 SCF Done:  E(RB3LYP) =  -897.811911517     A.U. after    1 cycles

  Exact polarizability: 118.565  -1.230 107.065   4.940   6.367  73.387
 Approx polarizability: 157.520   6.854 170.341   9.237  19.999 114.574

                      1                      2                      3
                      A                      A                      A
 Frequencies --     22.5201                37.2013                58.7661
 Red. masses --      4.5800                 4.3078                 4.2564
 Frc consts  --      0.0014                 0.0035                 0.0087
 IR Inten    --      3.4658                 1.8172                 2.2828

                      4                      5                      6
                      A                      A                      A
 Frequencies --     71.4058               132.4290               160.3445
 Red. masses --      4.6197                 3.8522                 1.8050
 Frc consts  --      0.0139                 0.0398                 0.0273
 IR Inten    --      2.4139                 2.9378                 2.0803

                      7                      8                      9
                      A                      A                      A
 Frequencies --    170.3677               207.8898               230.3918
 Red. masses --      1.4555                 1.7086                 3.0396
 Frc consts  --      0.0249                 0.0435                 0.0951
 IR Inten    --      2.9063                 4.5962                 2.0444

                     10                     11                     12
                      A                      A                      A
 Frequencies --    236.1956               291.2330               309.6678
 Red. masses --      1.8679                 3.9077                 3.6185
 Frc consts  --      0.0614                 0.1953                 0.2044
 IR Inten    --      2.4136                 9.1361                 5.3421

                     13                     14                     15
                      A                      A                      A
 Frequencies --    352.3308               377.4432               386.4964
 Red. masses --      2.8777                 2.6486                 3.5267
 Frc consts  --      0.2105                 0.2223                 0.3104
 IR Inten    --      3.4323                 1.2091                 0.2225

                     16                     17                     18
                      A                      A                      A
 Frequencies --    456.2515               506.4772               614.2309
 Red. masses --      3.6538                 3.3568                 4.0486
 Frc consts  --      0.4481                 0.5073                 0.9000
 IR Inten    --      6.9604                 4.6476                 4.6194

                     19                     20                     21
                      A                      A                      A
 Frequencies --    632.7438               653.4817               676.2405
 Red. masses --      3.9898                 1.4024                 4.2116
 Frc consts  --      0.9412                 0.3528                 1.1347
 IR Inten    --     13.2109                11.3266                14.8416

                     22                     23                     24
                      A                      A                      A
 Frequencies --    828.4201               830.2791               886.4996
 Red. masses --      2.4691                 1.9954                 4.5885
 Frc consts  --      0.9984                 0.8105                 2.1246
 IR Inten    --      7.4840                 1.8313                 1.4475

                     25                     26                     27
                      A                      A                      A
 Frequencies --    953.8275               967.5553               974.6498
 Red. masses --      1.6338                 1.4169                 1.7835
 Frc consts  --      0.8758                 0.7815                 0.9982
 IR Inten    --     10.7779                16.8581                 2.4585

                     28                     29                     30
                      A                      A                      A
 Frequencies --    976.4646               984.4017              1029.7185
 Red. masses --      1.3905                 1.7236                 1.5165
 Frc consts  --      0.7811                 0.9841                 0.9474
 IR Inten    --     27.5347                 5.3140                15.4861

                     31                     32                     33
                      A                      A                      A
 Frequencies --   1052.9148              1087.1701              1089.1212
 Red. masses --      1.8714                 1.4759                 6.9973
 Frc consts  --      1.2223                 1.0278                 4.8903
 IR Inten    --     61.3324                 1.9270               110.9264

                     34                     35                     36
                      A                      A                      A
 Frequencies --   1097.8694              1198.5999              1209.6166
 Red. masses --      2.5695                 3.8417                 1.3377
 Frc consts  --      1.8247                 3.2518                 1.1532
 IR Inten    --     38.2517               375.4980                25.1850

                     37                     38                     39
                      A                      A                      A
 Frequencies --   1268.4831              1323.7655              1353.4930
 Red. masses --      1.2082                 1.2644                 2.6318
 Frc consts  --      1.1454                 1.3054                 2.8407
 IR Inten    --      3.2408                 4.2446               120.4940

                     40                     41                     42
                      A                      A                      A
 Frequencies --   1363.0981              1422.5048              1442.9263
 Red. masses --      1.2841                 1.4483                 1.2979
 Frc consts  --      1.4057                 1.7267                 1.5921
 IR Inten    --     29.8290                 4.2545                 7.5383

                     43                     44                     45
                      A                      A                      A
 Frequencies --   1463.7182              1477.1299              1482.3925
 Red. masses --      1.2371                 1.0886                 1.0716
 Frc consts  --      1.5616                 1.3995                 1.3874
 IR Inten    --     11.4282                 6.4928                 8.6302

                     46                     47                     48
                      A                      A                      A
 Frequencies --   1496.9420              1502.7493              1518.8532
 Red. masses --      1.0564                 1.0439                 1.0553
 Frc consts  --      1.3947                 1.3890                 1.4343
 IR Inten    --     15.4928                 7.2174                15.4753

                     49                     50                     51
                      A                      A                      A
 Frequencies --   1532.4770              1719.0201              1804.0802
 Red. masses --      1.0836                 5.0799                11.8913
 Frc consts  --      1.4993                 8.8444                22.8030
 IR Inten    --     10.3506                16.6295               225.8953

                     52                     53                     54
                      A                      A                      A
 Frequencies --   3060.5443              3070.6332              3072.9739
 Red. masses --      1.0359                 1.0309                 1.0578
 Frc consts  --      5.7169                 5.7272                 5.8853
 IR Inten    --     13.6429                 7.3868                12.4118

                     55                     56                     57
                      A                      A                      A
 Frequencies --   3081.6832              3117.1188              3118.9741
 Red. masses --      1.0599                 1.1002                 1.1068
 Frc consts  --      5.9306                 6.2983                 6.3440
 IR Inten    --      6.1068                 9.9762                11.8401

                     58                     59                     60
                      A                      A                      A
 Frequencies --   3140.2276              3145.7923              3164.8877
 Red. masses --      1.1069                 1.1038                 1.1053
 Frc consts  --      6.4311                 6.4358                 6.5229
 IR Inten    --      5.5846                14.3765                 5.1192

                     61                     62                     63
                      A                      A                      A
 Frequencies --   3180.2785              3191.8882              3270.5363
 Red. masses --      1.0616                 1.1059                 1.1149
 Frc consts  --      6.3263                 6.6386                 7.0259
 IR Inten    --      6.9177                 0.6872                 6.6288

 - Thermochemistry -
 -------------------
 Temperature   298.150 Kelvin.  Pressure   1.00000 Atm.
 Atom     1 has atomic number  6 and mass  12.00000

 Molecular mass:   176.05072 amu.
 Principal axes and moments of inertia in atomic units:
                           1         2         3
     Eigenvalues --   873.546784089.133624620.53791
           X            0.99989  -0.01145   0.00900
           Y            0.01151   0.99991  -0.00713
           Z           -0.00892   0.00724   0.99993
 This molecule is an asymmetric top.
 Rotational symmetry number  1.
 Warning -- assumption of classical behavior for rotation
           may cause significant error
 Rotational temperatures (Kelvin)      0.09915     0.02118     0.01875
 Rotational constants (GHZ):           2.06599     0.44135     0.39059
 Zero-point vibrational energy     487707.9 (Joules/Mol)
                                  116.56498 (Kcal/Mol)
 Warning -- explicit consideration of  18 degrees of freedom as
           vibrations may cause significant error
 Vibrational temperatures:     32.40    53.52    84.55   102.74   190.54
          (Kelvin)            230.70   245.12   299.11   331.48   339.83
                              419.02   445.54   506.93   543.06   556.08
                              656.44   728.71   883.74   910.38   940.21
                              972.96  1191.91  1194.59  1275.48  1372.34
                             1392.10  1402.30  1404.91  1416.33  1481.54
                             1514.91  1564.20  1567.00  1579.59  1724.52
                             1740.37  1825.06  1904.60  1947.37  1961.19
                             2046.67  2076.05  2105.96  2125.26  2132.83
                             2153.77  2162.12  2185.29  2204.89  2473.29
                             2595.67  4403.44  4417.96  4421.32  4433.85
                             4484.84  4487.51  4518.09  4526.09  4553.57
                             4575.71  4592.42  4705.57

 Zero-point correction=                           0.185758 (Hartree/Particle)
 Thermal correction to Energy=                    0.198982
 Thermal correction to Enthalpy=                  0.199926
 Thermal correction to Gibbs Free Energy=         0.144171
 Sum of electronic and zero-point Energies=           -897.626153
 Sum of electronic and thermal Energies=              -897.612930
 Sum of electronic and thermal Enthalpies=            -897.611986
 Sum of electronic and thermal Free Energies=         -897.667740

                     E (Thermal)             CV                S
                      KCal/Mol        Cal/Mol-Kelvin    Cal/Mol-Kelvin
 Total                  124.863             46.284            117.345
 Electronic               0.000              0.000              0.000
 Translational            0.889              2.981             41.404
 Rotational               0.889              2.981             31.179
 Vibrational            123.085             40.323             44.761
 Vibration     1          0.593              1.985              6.399
 Vibration     2          0.594              1.982              5.403
 Vibration     3          0.596              1.974              4.498
 Vibration     4          0.598              1.968              4.114
 Vibration     5          0.613              1.921              2.910
 Vibration     6          0.622              1.891              2.546
 Vibration     7          0.625              1.879              2.431
 Vibration     8          0.641              1.829              2.062
 Vibration     9          0.652              1.795              1.876
 Vibration    10          0.655              1.785              1.831
 Vibration    11          0.687              1.690              1.467
 Vibration    12          0.699              1.655              1.364
 Vibration    13          0.729              1.570              1.156
 Vibration    14          0.748              1.518              1.049
 Vibration    15          0.755              1.499              1.014
 Vibration    16          0.814              1.347              0.777
 Vibration    17          0.862              1.236              0.642
 Vibration    18          0.974              1.002              0.426

 Optimization completed.
    -- Stationary point found.
 Normal termination of Gaussian 16 at Tue Dec  8 20:19:47 2020.

 ----------------------------------------------------------------------
 # B3LYP/6-311++G(d,p) empiricaldispersion=gd3bj scf=xqc pop=npa geom=c
 heck
 ----------------------------------------------------------------------

 --------------------------------------
 CID_71354211_JID_1495_Energie_neutraal
 --------------------------------------
 Structure from the checkpoint file:  "JID_1495.chk"
 Charge =  0 Multiplicity = 1

 SCF Done:  E(RB3LYP) =  -897.992627427     A.U. after   15 cycles
 Normal termination of Gaussian 16 at Tue Dec  8 20:21:54 2020.

 ----------------------------------------------------------------------
 # B3LYP/6-311++G(d,p) empiricaldispersion=gd3bj scf=xqc pop=npa geom=c
 heck
 ----------------------------------------------------------------------

 ------------------------------------
 CID_71354211_JID_1495_Energie_kation
 ------------------------------------
 Structure from the checkpoint file:  "JID_1495.chk"
 Charge =  1 Multiplicity = 2

 SCF Done:  E(UB3LYP) =  -897.671986648     A.U. after   31 cycles
 Normal termination of Gaussian 16 at Tue Dec  8 20:27:51 2020.
 Gaussian 16:  ES64L-G16RevA.03 25-Dec-2016

 ----------------------------------------------------------------------
 # B3LYP/6-311++G(d,p) empiricaldispersion=gd3bj scf=xqc pop=npa geom=c
 heck
 ----------------------------------------------------------------------

 -----------------------------------
 CID_71354211_JID_1495_Energie_anion
 -----------------------------------
 Structure from the checkpoint file:  "JID_1495.chk"
 Charge = -1 Multiplicity = 2

                         Standard orientation:
 ---------------------------------------------------------------------
 Center     Atomic      Atomic             Coordinates (Angstroms)
 Number     Number       Type             X           Y           Z
 ---------------------------------------------------------------------
      1          6           0        4.070113   -0.368947    0.565112
      2          6           0        2.725864   -0.569990   -0.079151
      3          6           0        2.358893   -1.688081   -0.717475
      4          6           0        1.807720    0.601272    0.019532
      5          8           0        2.129081    1.674846    0.487191
      6          8           0        0.563057    0.349960   -0.460771
      7          6           0       -0.363689    1.448857   -0.393668
      8          6           0       -1.738283    0.936655   -0.772713
      9         16           0       -2.557964   -0.088637    0.538630
     10          8           0       -3.998091   -0.252123    0.106806
     11          6           0       -1.706086   -1.669801    0.180046
     12          1           0        4.694538   -1.258675    0.449641
     13          1           0        3.962417   -0.147551    1.632782
     14          1           0        4.587005    0.489071    0.122136
     15          1           0        1.385970   -1.785490   -1.185064
     16          1           0        3.035650   -2.534282   -0.795833
     17          1           0       -0.348985    1.874155    0.614489
     18          1           0       -0.037814    2.231007   -1.087495
     19          1           0       -2.425047    1.781779   -0.883608
     20          1           0       -1.729582    0.375718   -1.712663
     21          1           0       -1.900881   -1.951334   -0.858990
     22          1           0       -0.635556   -1.560976    0.361358
     23          1           0       -2.139856   -2.416482    0.849259
 ---------------------------------------------------------------------

 SCF Done:  E(UB3LYP) =  -897.995770632     A.U. after   31 cycles

 The electronic state is 2-A.
 Alpha  occ. eigenvalues --  -88.84333 -19.01850 -18.97771 -18.93335 -10.12214
 Alpha  occ. eigenvalues --  -10.11217 -10.10266 -10.08378 -10.02482 -10.01086
 Alpha  occ. eigenvalues --   -9.99211  -7.92042  -5.88315  -5.88182  -5.87631
 Alpha  occ. eigenvalues --   -0.95498  -0.90922  -0.85811  -0.70095  -0.65186
 Alpha  occ. eigenvalues --   -0.63619  -0.56282  -0.53579  -0.49623  -0.46356
 Alpha  occ. eigenvalues --   -0.41659  -0.38264  -0.35611  -0.34725  -0.33537
 Alpha  occ. eigenvalues --   -0.32530  -0.31834  -0.30431  -0.29796  -0.28894
 Alpha  occ. eigenvalues --   -0.27750  -0.26571  -0.25983  -0.24675  -0.24283
 Alpha  occ. eigenvalues --   -0.21393  -0.21037  -0.17122  -0.16470  -0.13157
 Alpha  occ. eigenvalues --   -0.11822  -0.11439   0.05700
 Alpha virt. eigenvalues --    0.08315   0.08570   0.09726   0.10318   0.11249
 Alpha virt. eigenvalues --    0.11810   0.12357   0.12563   0.12805   0.13359
 Alpha virt. eigenvalues --    0.14002   0.14287   0.15673   0.16194   0.16448

  Beta  occ. eigenvalues --  -88.84328 -19.01800 -18.97761 -18.92953 -10.12219
  Beta  occ. eigenvalues --  -10.10890 -10.10268 -10.08340 -10.02496 -10.00927
  Beta  occ. eigenvalues --   -9.98802  -7.92038  -5.88312  -5.88171  -5.87626
  Beta  occ. eigenvalues --   -0.95218  -0.90901  -0.85227  -0.70043  -0.64870
  Beta  occ. eigenvalues --   -0.63355  -0.56176  -0.53192  -0.49451  -0.45807
  Beta  occ. eigenvalues --   -0.41211  -0.38143  -0.35546  -0.34594  -0.33361
  Beta  occ. eigenvalues --   -0.32433  -0.31363  -0.30110  -0.29689  -0.28715
  Beta  occ. eigenvalues --   -0.27413  -0.26343  -0.25944  -0.24327  -0.23681
  Beta  occ. eigenvalues --   -0.21156  -0.20748  -0.16841  -0.15469  -0.13134
  Beta  occ. eigenvalues --   -0.11424  -0.09210
  Beta virt. eigenvalues --    0.08359   0.08783   0.09639   0.10227   0.11194
  Beta virt. eigenvalues --    0.11678   0.11977   0.12377   0.12712   0.12956
  Beta virt. eigenvalues --    0.13598   0.13961   0.14527   0.15572   0.16336

 Mulliken charges and spin densities:
               1          2
     1  C   -0.735722   0.026912
     2  C    0.788135  -0.023934
     3  C   -0.763167   0.496919
     4  C   -0.317745   0.219877
     5  O   -0.388152   0.131939
     6  O   -0.053633   0.001921
     7  C   -0.156958  -0.017138
     8  C   -0.584006  -0.018598
     9  S    0.576280   0.144949
    10  O   -0.502215   0.005587
    11  C   -0.159239  -0.520952
    12  H    0.107634  -0.001685
    13  H    0.115133   0.029344
    14  H    0.136460   0.008500
    15  H    0.138431  -0.060285
    16  H    0.035069   0.021477
    17  H    0.165794   0.001259
    18  H    0.172051   0.002183
    19  H    0.202338   0.002128
    20  H    0.232272  -0.005045
    21  H    0.110431   0.083051
    22  H    0.072905   0.114377
    23  H   -0.192095   0.357213
 Sum of Mulliken charges =  -1.00000   1.00000

 Dipole moment (field-independent basis, Debye):
    X=             -2.6829    Y=              2.4606    Z=             -1.1791  Tot=              3.8266
 Quadrupole moment (field-independent basis, Debye-Ang):
   XX=           -137.8290   YY=            -97.5106   ZZ=            -84.3601
   XY=             -6.1159   XZ=              1.5224   YZ=             -2.5644

 Summary of Natural Population Analysis:

                                       Natural Population
                Natural  -----------------------------------------------
    Atom  No    Charge         Core      Valence    Rydberg      Total
 -----------------------------------------------------------------------
      C    1   -0.29136      0.99964     2.28608    0.00564     3.29136
      C    2   -0.05191      0.99949     2.04226    0.01017     3.05191
      C    3   -0.09657      0.99953     2.08682    0.01021     3.09657
      C    4    0.42897      0.99962     1.54520    0.02621     2.57103
      O    5   -0.29615      0.99987     3.29136    0.00492     4.29615
      O    6   -0.29478      0.99986     3.28558    0.00934     4.29478
      C    7   -0.02442      0.99956     2.01402    0.01085     3.02442
      C    8   -0.28077      0.99958     2.27086    0.01033     3.28077
      S    9    0.57863      4.99947     2.36240    0.05949     7.42137
      O   10   -0.49256      0.99993     3.48588    0.00675     4.49256
      C   11   -0.38087      0.99962     2.37157    0.00969     3.38087
      H   12    0.09057      0.00000     0.40868    0.00075     0.40943
      H   13    0.09903      0.00000     0.39959    0.00138     0.40097
      H   14    0.10065      0.00000     0.39842    0.00093     0.39935
      H   15    0.08894      0.00000     0.41005    0.00101     0.41106
      H   16    0.07773      0.00000     0.42127    0.00100     0.42227
      H   17    0.09555      0.00000     0.40253    0.00192     0.40445
      H   18    0.09229      0.00000     0.40643    0.00128     0.40771
      H   19    0.10865      0.00000     0.39032    0.00103     0.39135
      H   20    0.10775      0.00000     0.39082    0.00143     0.39225
      H   21    0.10596      0.00000     0.39292    0.00112     0.39404
      H   22    0.12805      0.00000     0.36896    0.00299     0.37195
      H   23    0.10663      0.00000     0.39131    0.00206     0.39337
 =======================================================================
   * Total *    0.00000     14.99617    31.82332    0.18050    47.00000

 Normal termination of Gaussian 16 at Tue Dec  8 20:36:37 2020.
