 Gaussian 16, Revision A.03,

 -----------------------------------------------------------
 # opt freq B3LYP/6-31G(d) empiricaldispersion=gd3bj scf=xqc
 -----------------------------------------------------------

 ------------------------------
 CID_67487026_JID_1674_neutraal
 ------------------------------
 Symbolic Z-matrix:
 Charge =  0 Multiplicity = 1

 SCF Done:  E(RB3LYP) =  -531.528560758     A.U. after   15 cycles
 SCF Done:  E(RB3LYP) =  -531.538491936     A.U. after   13 cycles
 SCF Done:  E(RB3LYP) =  -531.539636656     A.U. after   12 cycles
 SCF Done:  E(RB3LYP) =  -531.540025184     A.U. after   12 cycles
 SCF Done:  E(RB3LYP) =  -531.540383857     A.U. after   12 cycles
 SCF Done:  E(RB3LYP) =  -531.540654005     A.U. after   12 cycles
 SCF Done:  E(RB3LYP) =  -531.540924445     A.U. after   12 cycles
 SCF Done:  E(RB3LYP) =  -531.541109034     A.U. after   12 cycles
 SCF Done:  E(RB3LYP) =  -531.541253821     A.U. after   11 cycles
 SCF Done:  E(RB3LYP) =  -531.541283438     A.U. after   11 cycles
 SCF Done:  E(RB3LYP) =  -531.543541787     A.U. after    8 cycles
 SCF Done:  E(RB3LYP) =  -531.543542110     A.U. after    8 cycles
 SCF Done:  E(RB3LYP) =  -531.543542489     A.U. after    8 cycles
 SCF Done:  E(RB3LYP) =  -531.543543033     A.U. after    9 cycles
 SCF Done:  E(RB3LYP) =  -531.543543249     A.U. after    8 cycles
 Optimization completed.
    -- Stationary point found.
 Normal termination of Gaussian 16 at Tue Dec  8 20:54:19 2020.

 --------------------------------------------------------------------
 #N Geom=AllCheck Guess=TCheck SCRF=Check GenChk RB3LYP/6-31G(d) Freq
 --------------------------------------------------------------------

 Structure from the checkpoint file:  "JID_1674.chk"
 ------------------------------
 CID_67487026_JID_1674_neutraal
 ------------------------------
 Charge =  0 Multiplicity = 1

 SCF Done:  E(RB3LYP) =  -531.543543249     A.U. after    1 cycles

  Exact polarizability: 117.329   1.456  93.935   4.016  -2.162  53.135
 Approx polarizability: 176.319   7.269 159.793   9.812  -2.483  82.894

                      1                      2                      3
                      A                      A                      A
 Frequencies --     66.7324               105.0607               112.6397
 Red. masses --      1.0213                 3.4480                 4.1807
 Frc consts  --      0.0027                 0.0224                 0.0313
 IR Inten    --      0.0623                 3.1719                 7.1824

                      4                      5                      6
                      A                      A                      A
 Frequencies --    159.0350               221.3376               255.7659
 Red. masses --      7.4536                 3.7407                 4.6041
 Frc consts  --      0.1111                 0.1080                 0.1775
 IR Inten    --      2.6214                 1.1548                 1.6810

                      7                      8                      9
                      A                      A                      A
 Frequencies --    283.1533               357.7266               398.6493
 Red. masses --      3.3492                 6.5486                 3.4444
 Frc consts  --      0.1582                 0.4937                 0.3225
 IR Inten    --      4.2261                39.4260                12.8489

                     10                     11                     12
                      A                      A                      A
 Frequencies --    498.0009               514.6202               563.2384
 Red. masses --      1.9523                 3.6180                 2.8640
 Frc consts  --      0.2853                 0.5645                 0.5353
 IR Inten    --    231.8257                 5.4419                41.1156

                     13                     14                     15
                      A                      A                      A
 Frequencies --    589.7928               640.3266               726.8139
 Red. masses --      5.3535                 7.8162                 5.9616
 Frc consts  --      1.0972                 1.8882                 1.8555
 IR Inten    --     15.4317                18.8680                28.7231

                     16                     17                     18
                      A                      A                      A
 Frequencies --    758.1072               777.6640               866.1050
 Red. masses --      3.5323                 5.9793                 4.6317
 Frc consts  --      1.1961                 2.1305                 2.0471
 IR Inten    --     19.8523                 9.3587                 8.5294

                     19                     20                     21
                      A                      A                      A
 Frequencies --    924.4264               952.7611               968.9379
 Red. masses --      1.4550                 3.0292                 3.1574
 Frc consts  --      0.7326                 1.6201                 1.7465
 IR Inten    --      2.2173                 0.3817                30.4860

                     22                     23                     24
                      A                      A                      A
 Frequencies --    989.9967              1027.4791              1059.6269
 Red. masses --      2.3709                 2.6696                 2.2677
 Frc consts  --      1.3691                 1.6605                 1.5002
 IR Inten    --      4.2211               164.3024                18.7507

                     25                     26                     27
                      A                      A                      A
 Frequencies --   1122.0626              1145.0162              1165.9082
 Red. masses --      2.6697                 2.0184                 1.3023
 Frc consts  --      1.9803                 1.5591                 1.0430
 IR Inten    --     53.7163                40.7632                 0.6053

                     28                     29                     30
                      A                      A                      A
 Frequencies --   1205.4113              1243.8800              1261.6152
 Red. masses --      1.1883                 1.4570                 3.4894
 Frc consts  --      1.0173                 1.3282                 3.2723
 IR Inten    --      7.2532                27.6101                 5.4305

                     31                     32                     33
                      A                      A                      A
 Frequencies --   1278.0859              1295.8086              1360.6490
 Red. masses --      1.6154                 2.2001                 1.7333
 Frc consts  --      1.5547                 2.1766                 1.8906
 IR Inten    --     22.5097                93.1685                 0.4898

                     34                     35                     36
                      A                      A                      A
 Frequencies --   1377.0732              1404.6402              1469.4682
 Red. masses --      1.6844                 5.1802                 1.3050
 Frc consts  --      1.8819                 6.0218                 1.6602
 IR Inten    --      3.0469               198.7589                69.6544

                     37                     38                     39
                      A                      A                      A
 Frequencies --   1476.2553              1518.6867              1533.6263
 Red. masses --      1.7287                 1.0443                 1.0548
 Frc consts  --      2.2197                 1.4192                 1.4617
 IR Inten    --     21.0549                 8.9675                12.4807

                     40                     41                     42
                      A                      A                      A
 Frequencies --   1540.3546              1695.0173              1802.1665
 Red. masses --      1.0962                 6.5999                12.8746
 Frc consts  --      1.5324                11.1721                24.6361
 IR Inten    --      1.5648               238.4520               674.7836

                     43                     44                     45
                      A                      A                      A
 Frequencies --   1848.1835              3016.3260              3029.2241
 Red. masses --     12.1573                 1.0820                 1.0723
 Frc consts  --     24.4668                 5.7999                 5.7971
 IR Inten    --    125.9333                11.5277                45.4297

                     46                     47                     48
                      A                      A                      A
 Frequencies --   3070.8507              3133.4041              3142.9149
 Red. masses --      1.0336                 1.1052                 1.0951
 Frc consts  --      5.7427                 6.3930                 6.3732
 IR Inten    --     35.4582                17.6371                24.1550

                     49                     50                     51
                      A                      A                      A
 Frequencies --   3180.3612              3247.3687              3604.7712
 Red. masses --      1.1032                 1.0966                 1.0777
 Frc consts  --      6.5746                 6.8137                 8.2509
 IR Inten    --      0.7911                 2.2732                30.6072

 - Thermochemistry -
 -------------------
 Temperature   298.150 Kelvin.  Pressure   1.00000 Atm.
 Atom     1 has atomic number  6 and mass  12.00000

 Molecular mass:   152.05858 amu.
 Principal axes and moments of inertia in atomic units:
                           1         2         3
     Eigenvalues --   989.435781653.983432537.57060
           X            0.99997   0.00784   0.00172
           Y           -0.00783   0.99995  -0.00619
           Z           -0.00177   0.00617   0.99998
 This molecule is an asymmetric top.
 Rotational symmetry number  1.
 Warning -- assumption of classical behavior for rotation
           may cause significant error
 Rotational temperatures (Kelvin)      0.08754     0.05237     0.03413
 Rotational constants (GHZ):           1.82401     1.09115     0.71121
 Zero-point vibrational energy     394690.7 (Joules/Mol)
                                   94.33333 (Kcal/Mol)
 Warning -- explicit consideration of  13 degrees of freedom as
           vibrations may cause significant error
 Vibrational temperatures:     96.01   151.16   162.06   228.82   318.46
          (Kelvin)            367.99   407.39   514.69   573.57   716.51
                              740.42   810.37   848.58   921.29  1045.72
                             1090.75  1118.89  1246.13  1330.04  1370.81
                             1394.09  1424.38  1478.31  1524.57  1614.40
                             1647.42  1677.48  1734.32  1789.67  1815.18
                             1838.88  1864.38  1957.67  1981.30  2020.96
                             2114.24  2124.00  2185.05  2206.55  2216.23
                             2438.75  2592.92  2659.12  4339.82  4358.38
                             4418.27  4508.27  4521.95  4575.83  4672.24
                             5186.46

 Zero-point correction=                           0.150330 (Hartree/Particle)
 Thermal correction to Energy=                    0.159822
 Thermal correction to Enthalpy=                  0.160766
 Thermal correction to Gibbs Free Energy=         0.115139
 Sum of electronic and zero-point Energies=           -531.393214
 Sum of electronic and thermal Energies=              -531.383722
 Sum of electronic and thermal Enthalpies=            -531.382778
 Sum of electronic and thermal Free Energies=         -531.428404

                     E (Thermal)             CV                S
                      KCal/Mol        Cal/Mol-Kelvin    Cal/Mol-Kelvin
 Total                  100.290             35.074             96.029
 Electronic               0.000              0.000              0.000
 Translational            0.889              2.981             40.967
 Rotational               0.889              2.981             29.808
 Vibrational             98.512             29.112             25.253
 Vibration     1          0.598              1.970              4.247
 Vibration     2          0.605              1.945              3.358
 Vibration     3          0.607              1.939              3.223
 Vibration     4          0.621              1.892              2.561
 Vibration     5          0.648              1.809              1.948
 Vibration     6          0.666              1.753              1.690
 Vibration     7          0.682              1.705              1.515
 Vibration     8          0.733              1.559              1.132
 Vibration     9          0.765              1.473              0.968
 Vibration    10          0.853              1.254              0.663
 Vibration    11          0.870              1.218              0.623
 Vibration    12          0.919              1.111              0.517
 Vibration    13          0.947              1.054              0.468

 Optimization completed.
    -- Stationary point found.
 Normal termination of Gaussian 16 at Tue Dec  8 20:58:05 2020.

 ----------------------------------------------------------------------
 # B3LYP/6-311++G(d,p) empiricaldispersion=gd3bj scf=xqc pop=npa geom=c
 heck
 ----------------------------------------------------------------------

 --------------------------------------
 CID_67487026_JID_1674_Energie_neutraal
 --------------------------------------
 Structure from the checkpoint file:  "JID_1674.chk"
 Charge =  0 Multiplicity = 1

 SCF Done:  E(RB3LYP) =  -531.698640143     A.U. after   15 cycles
 Normal termination of Gaussian 16 at Tue Dec  8 20:59:23 2020.

 ----------------------------------------------------------------------
 # B3LYP/6-311++G(d,p) empiricaldispersion=gd3bj scf=xqc pop=npa geom=c
 heck
 ----------------------------------------------------------------------

 ------------------------------------
 CID_67487026_JID_1674_Energie_kation
 ------------------------------------
 Structure from the checkpoint file:  "JID_1674.chk"
 Charge =  1 Multiplicity = 2

 SCF Done:  E(UB3LYP) =  -531.395744380     A.U. after   22 cycles
 Normal termination of Gaussian 16 at Tue Dec  8 21:02:57 2020.
 Gaussian 16:  ES64L-G16RevA.03 25-Dec-2016

 ----------------------------------------------------------------------
 # B3LYP/6-311++G(d,p) empiricaldispersion=gd3bj scf=xqc pop=npa geom=c
 heck
 ----------------------------------------------------------------------

 -----------------------------------
 CID_67487026_JID_1674_Energie_anion
 -----------------------------------
 Structure from the checkpoint file:  "JID_1674.chk"
 Charge = -1 Multiplicity = 2

                         Standard orientation:
 ---------------------------------------------------------------------
 Center     Atomic      Atomic             Coordinates (Angstroms)
 Number     Number       Type             X           Y           Z
 ---------------------------------------------------------------------
      1          6           0        2.839259   -0.098145   -0.276704
      2          7           0        1.428771   -0.036684    0.054245
      3          6           0        0.623714   -1.171291    0.113329
      4          8           0        0.999076   -2.304957   -0.112345
      5          6           0       -0.752977   -0.693240    0.565380
      6          6           0       -2.044273   -1.092233   -0.176384
      7          7           0       -2.785345    0.198906   -0.187529
      8          6           0       -1.864161    1.229808   -0.126359
      9          6           0       -0.671202    0.796007    0.333862
     10          6           0        0.713433    1.198791    0.140606
     11          8           0        1.232619    2.289850   -0.003992
     12          1           0        3.372807   -0.705452    0.459705
     13          1           0        3.219554    0.924058   -0.271027
     14          1           0        2.982551   -0.544668   -1.265550
     15          1           0       -0.843515   -0.933696    1.635480
     16          1           0       -1.834855   -1.431810   -1.201284
     17          1           0       -2.615671   -1.864714    0.340403
     18          1           0       -3.561267    0.295554   -0.829691
     19          1           0       -2.139920    2.227860   -0.446728
 ---------------------------------------------------------------------

 SCF Done:  E(UB3LYP) =  -531.694545699     A.U. after   33 cycles
 SCF Done:  E(UB3LYP) =  -531.694545699     a.u. after    1 cycles

 The electronic state is 2-A.
 Alpha  occ. eigenvalues --  -18.98047 -18.96165 -14.23224 -14.20885 -10.15331
 Alpha  occ. eigenvalues --  -10.13854 -10.09335 -10.09275 -10.08558 -10.06881
 Alpha  occ. eigenvalues --  -10.03392  -0.93408  -0.90870  -0.83384  -0.81827
 Alpha  occ. eigenvalues --   -0.68719  -0.62176  -0.60001  -0.53370  -0.49876
 Alpha  occ. eigenvalues --   -0.45924  -0.43173  -0.39412  -0.36685  -0.35165
 Alpha  occ. eigenvalues --   -0.34328  -0.33719  -0.30291  -0.29597  -0.29308
 Alpha  occ. eigenvalues --   -0.28808  -0.28398  -0.27018  -0.24768  -0.24131
 Alpha  occ. eigenvalues --   -0.20928  -0.15749  -0.14928  -0.13355  -0.08563
 Alpha  occ. eigenvalues --    0.04865
 Alpha virt. eigenvalues --    0.07434   0.08464   0.09069   0.10120   0.11107
 Alpha virt. eigenvalues --    0.11792   0.11906   0.12839   0.13002   0.15427
 Alpha virt. eigenvalues --    0.15768   0.16200   0.16931   0.17838   0.18387

  Beta  occ. eigenvalues --  -18.97931 -18.95983 -14.23275 -14.20817 -10.15231
  Beta  occ. eigenvalues --  -10.13662 -10.09329 -10.09238 -10.08323 -10.06872
  Beta  occ. eigenvalues --  -10.03412  -0.93199  -0.90553  -0.83194  -0.81719
  Beta  occ. eigenvalues --   -0.68623  -0.61936  -0.59922  -0.53036  -0.49696
  Beta  occ. eigenvalues --   -0.45806  -0.42917  -0.39287  -0.36509  -0.35078
  Beta  occ. eigenvalues --   -0.34130  -0.33580  -0.30104  -0.29476  -0.29112
  Beta  occ. eigenvalues --   -0.28653  -0.28322  -0.26271  -0.24570  -0.23836
  Beta  occ. eigenvalues --   -0.20264  -0.15546  -0.14640  -0.13205  -0.08079
  Beta virt. eigenvalues --    0.07979   0.08619   0.09409   0.09909   0.10509
  Beta virt. eigenvalues --    0.11551   0.11995   0.12561   0.12866   0.13470
  Beta virt. eigenvalues --    0.15457   0.15767   0.16561   0.17026   0.17841

 Mulliken charges and spin densities:
               1          2
     1  C   -0.105209  -0.177460
     2  N    0.004138  -0.013810
     3  C   -0.056493  -0.439064
     4  O   -0.385848   0.051054
     5  C   -1.016802   1.660061
     6  C    1.875477  -2.511339
     7  N   -0.124745   0.031596
     8  C   -1.595116   1.710478
     9  C    1.669537  -1.551281
    10  C    0.369987  -0.511782
    11  O   -0.429482   0.072106
    12  H    0.114380   0.042024
    13  H    0.155870   0.006561
    14  H    0.104254   0.057942
    15  H   -0.187084   0.392281
    16  H   -0.442165   0.632477
    17  H   -0.112882   0.272479
    18  H   -0.488950   0.761541
    19  H   -0.348867   0.514136
 Sum of Mulliken charges =  -1.00000   1.00000

 Dipole moment (field-independent basis, Debye):
    X=              4.7178    Y=             -0.6295    Z=              1.9603  Tot=              5.1475
 Quadrupole moment (field-independent basis, Debye-Ang):
   XX=           -106.4189   YY=           -101.7146   ZZ=            -83.1575
   XY=             -1.8241   XZ=             -6.5155   YZ=             -0.0342

 Summary of Natural Population Analysis:

                                       Natural Population
                Natural  -----------------------------------------------
    Atom  No    Charge         Core      Valence    Rydberg      Total
 -----------------------------------------------------------------------
      C    1   -0.18090      0.99965     2.17388    0.00737     3.18090
      N    2   -0.27014      0.99962     2.76253    0.00799     3.77014
      C    3    0.37317      0.99963     1.60399    0.02321     2.62683
      O    4   -0.30568      0.99987     3.29987    0.00594     4.30568
      C    5   -0.15304      0.99954     2.14260    0.01090     3.15304
      C    6   -0.07693      0.99961     2.06595    0.01136     3.07693
      N    7   -0.30688      0.99972     2.79488    0.01228     3.80688
      C    8    0.09627      0.99946     1.89195    0.01232     2.90373
      C    9   -0.12524      0.99943     2.11382    0.01199     3.12524
      C   10    0.36315      0.99957     1.61483    0.02245     2.63685
      O   11   -0.30292      0.99987     3.29759    0.00546     4.30292
      H   12    0.09435      0.00000     0.40420    0.00144     0.40565
      H   13    0.10942      0.00000     0.38931    0.00127     0.39058
      H   14    0.09545      0.00000     0.40315    0.00140     0.40455
      H   15    0.10776      0.00000     0.39096    0.00127     0.39224
      H   16    0.09362      0.00000     0.40368    0.00270     0.40638
      H   17    0.09615      0.00000     0.40220    0.00165     0.40385
      H   18    0.19276      0.00000     0.29689    0.01035     0.30724
      H   19    0.09963      0.00000     0.39927    0.00110     0.40037
 =======================================================================
   * Total *    0.00000     10.99599    28.85155    0.15246    40.00000

 Normal termination of Gaussian 16 at Tue Dec  8 21:09:08 2020.
