 Gaussian 16, Revision A.03,

 -----------------------------------------------------------
 # opt freq B3LYP/6-31G(d) empiricaldispersion=gd3bj scf=xqc
 -----------------------------------------------------------

 -------------------------------
 CID_137285310_JID_2643_neutraal
 -------------------------------
 Symbolic Z-matrix:
 Charge =  0 Multiplicity = 1

 SCF Done:  E(RB3LYP) =  -532.535278338     A.U. after   14 cycles
 SCF Done:  E(RB3LYP) =  -532.542260370     A.U. after   13 cycles
 SCF Done:  E(RB3LYP) =  -532.542786959     A.U. after   11 cycles
 SCF Done:  E(RB3LYP) =  -532.542822868     A.U. after   10 cycles
 SCF Done:  E(RB3LYP) =  -532.542827048     A.U. after    9 cycles
 SCF Done:  E(RB3LYP) =  -532.542827771     A.U. after    8 cycles
 SCF Done:  E(RB3LYP) =  -532.542828447     A.U. after    8 cycles
 SCF Done:  E(RB3LYP) =  -532.542829270     A.U. after    7 cycles
 SCF Done:  E(RB3LYP) =  -532.542830238     A.U. after    9 cycles
 SCF Done:  E(RB3LYP) =  -532.542830757     A.U. after    7 cycles
 SCF Done:  E(RB3LYP) =  -532.542830998     A.U. after    7 cycles
 Optimization completed.
    -- Stationary point found.
 Normal termination of Gaussian 16 at Wed Dec  9 17:49:11 2020.

 --------------------------------------------------------------------
 #N Geom=AllCheck Guess=TCheck SCRF=Check GenChk RB3LYP/6-31G(d) Freq
 --------------------------------------------------------------------

 Structure from the checkpoint file:  "JID_2643.chk"
 -------------------------------
 CID_137285310_JID_2643_neutraal
 -------------------------------
 Charge =  0 Multiplicity = 1

 SCF Done:  E(RB3LYP) =  -532.542830998     A.U. after    1 cycles

  Exact polarizability: 164.684   6.438 115.644  -0.001   0.000  43.702
 Approx polarizability: 264.961  13.998 216.919  -0.001  -0.000  67.840

                      1                      2                      3
                      A                      A                      A
 Frequencies --     79.5650               107.0049               151.7482
 Red. masses --      1.0870                 3.2101                 5.3485
 Frc consts  --      0.0041                 0.0217                 0.0726
 IR Inten    --      0.4574                 0.1263                 2.1358

                      4                      5                      6
                      A                      A                      A
 Frequencies --    232.5286               256.9522               284.8855
 Red. masses --      4.0655                 3.9559                 3.5321
 Frc consts  --      0.1295                 0.1539                 0.1689
 IR Inten    --      3.8682                 1.7528                 0.0009

                      7                      8                      9
                      A                      A                      A
 Frequencies --    343.3716               376.5998               439.0879
 Red. masses --      3.5950                 1.1734                 3.9713
 Frc consts  --      0.2497                 0.0981                 0.4511
 IR Inten    --      4.9488               109.0055                16.0650

                     10                     11                     12
                      A                      A                      A
 Frequencies --    464.2590               489.7458               526.5196
 Red. masses --      4.7253                 6.5476                 5.0895
 Frc consts  --      0.6001                 0.9253                 0.8313
 IR Inten    --      3.2400                 1.8986                 7.0357

                     13                     14                     15
                      A                      A                      A
 Frequencies --    535.3378               604.9456               621.9102
 Red. masses --      4.0761                 8.3655                 4.8233
 Frc consts  --      0.6883                 1.8037                 1.0991
 IR Inten    --      8.2135                 5.1463                 1.8689

                     16                     17                     18
                      A                      A                      A
 Frequencies --    678.5651               710.7235               739.3474
 Red. masses --      3.4450                 5.9817                 6.6199
 Frc consts  --      0.9346                 1.7802                 2.1321
 IR Inten    --      1.9771                 6.7754                 3.4827

                     19                     20                     21
                      A                      A                      A
 Frequencies --    793.8991               852.3856               863.4756
 Red. masses --      2.6140                 1.6667                 5.6082
 Frc consts  --      0.9707                 0.7135                 2.4636
 IR Inten    --      0.9375                12.8515                14.0369

                     22                     23                     24
                      A                      A                      A
 Frequencies --    867.6887               938.7163               954.2127
 Red. masses --      1.5093                 1.4747                 2.6537
 Frc consts  --      0.6695                 0.7656                 1.4236
 IR Inten    --     23.8728                 3.9924                 2.1346

                     25                     26                     27
                      A                      A                      A
 Frequencies --    998.0774              1035.2644              1070.9087
 Red. masses --      1.3006                 1.8583                 1.5742
 Frc consts  --      0.7634                 1.1735                 1.0637
 IR Inten    --      0.6880                18.6352                 3.7914

                     28                     29                     30
                      A                      A                      A
 Frequencies --   1091.4604              1177.4811              1179.9062
 Red. masses --      4.1499                 1.5327                 2.3509
 Frc consts  --      2.9127                 1.2520                 1.9283
 IR Inten    --     53.5962                28.0830                 8.9845

                     31                     32                     33
                      A                      A                      A
 Frequencies --   1239.5180              1250.2825              1280.6213
 Red. masses --      2.0207                 1.8144                 1.9758
 Frc consts  --      1.8292                 1.6711                 1.9091
 IR Inten    --     13.7654                46.7090                11.2095

                     34                     35                     36
                      A                      A                      A
 Frequencies --   1332.4175              1353.0374              1403.8850
 Red. masses --      1.6907                 4.0269                 3.3859
 Frc consts  --      1.7685                 4.3435                 3.9317
 IR Inten    --    127.3177                21.1215                71.0205

                     37                     38                     39
                      A                      A                      A
 Frequencies --   1417.6398              1431.4077              1464.8372
 Red. masses --      5.5833                 1.3020                 3.0274
 Frc consts  --      6.6110                 1.5718                 3.8274
 IR Inten    --      1.1296                 7.0346                32.4074

                     40                     41                     42
                      A                      A                      A
 Frequencies --   1492.2143              1510.9243              1513.1113
 Red. masses --      2.2113                 1.2239                 1.0451
 Frc consts  --      2.9010                 1.6463                 1.4098
 IR Inten    --     14.7469                 4.5872                 7.0506

                     43                     44                     45
                      A                      A                      A
 Frequencies --   1563.2265              1609.2561              1654.2195
 Red. masses --      3.6165                 7.5597                 6.2360
 Frc consts  --      5.2070                11.5347                10.0541
 IR Inten    --      9.0608                32.7700               108.5786

                     46                     47                     48
                      A                      A                      A
 Frequencies --   1673.7349              3048.1279              3099.3941
 Red. masses --      6.8820                 1.0394                 1.1004
 Frc consts  --     11.3590                 5.6896                 6.2278
 IR Inten    --     16.1056                18.7116                16.2247

                     49                     50                     51
                      A                      A                      A
 Frequencies --   3147.1143              3163.9584              3191.0471
 Red. masses --      1.0896                 1.0996                 1.0914
 Frc consts  --      6.3586                 6.4856                 6.5476
 IR Inten    --     43.3191                 6.6613                10.6132

                     52                     53                     54
                      A                      A                      A
 Frequencies --   3197.4157              3227.8725              3744.6160
 Red. masses --      1.0893                 1.0944                 1.0659
 Frc consts  --      6.5617                 6.7184                 8.8060
 IR Inten    --      9.5227                 5.4268                57.2802

 - Thermochemistry -
 -------------------
 Temperature   298.150 Kelvin.  Pressure   1.00000 Atm.
 Atom     1 has atomic number  6 and mass  12.00000

 Molecular mass:   160.06366 amu.
 Principal axes and moments of inertia in atomic units:
                           1         2         3
     Eigenvalues --   926.156832399.606233314.55313
           X            0.99999  -0.00351  -0.00000
           Y            0.00351   0.99999   0.00000
           Z            0.00000  -0.00000   1.00000
 This molecule is an asymmetric top.
 Rotational symmetry number  1.
 Warning -- assumption of classical behavior for rotation
           may cause significant error
 Rotational temperatures (Kelvin)      0.09352     0.03610     0.02613
 Rotational constants (GHZ):           1.94863     0.75210     0.54449
 Zero-point vibrational energy     409580.1 (Joules/Mol)
                                   97.89200 (Kcal/Mol)
 Warning -- explicit consideration of  14 degrees of freedom as
           vibrations may cause significant error
 Vibrational temperatures:    114.48   153.96   218.33   334.56   369.70
          (Kelvin)            409.89   494.04   541.84   631.75   667.97
                              704.63   757.54   770.23   870.38   894.79
                              976.30  1022.57  1063.76  1142.24  1226.39
                             1242.35  1248.41  1350.60  1372.90  1436.01
                             1489.51  1540.80  1570.37  1694.13  1697.62
                             1783.39  1798.88  1842.53  1917.05  1946.72
                             2019.88  2039.67  2059.48  2107.57  2146.96
                             2173.88  2177.03  2249.13  2315.36  2380.05
                             2408.13  4385.58  4459.34  4528.00  4552.23
                             4591.21  4600.37  4644.19  5387.67

 Zero-point correction=                           0.156001 (Hartree/Particle)
 Thermal correction to Energy=                    0.165523
 Thermal correction to Enthalpy=                  0.166467
 Thermal correction to Gibbs Free Energy=         0.121114
 Sum of electronic and zero-point Energies=           -532.386830
 Sum of electronic and thermal Energies=              -532.377308
 Sum of electronic and thermal Enthalpies=            -532.376364
 Sum of electronic and thermal Free Energies=         -532.421717

                     E (Thermal)             CV                S
                      KCal/Mol        Cal/Mol-Kelvin    Cal/Mol-Kelvin
 Total                  103.867             37.440             95.453
 Electronic               0.000              0.000              0.000
 Translational            0.889              2.981             41.120
 Rotational               0.889              2.981             30.378
 Vibrational            102.090             31.479             23.955
 Vibration     1          0.600              1.963              3.902
 Vibration     2          0.606              1.944              3.323
 Vibration     3          0.619              1.901              2.650
 Vibration     4          0.653              1.791              1.859
 Vibration     5          0.667              1.751              1.682
 Vibration     6          0.683              1.702              1.504
 Vibration     7          0.722              1.589              1.196
 Vibration     8          0.747              1.520              1.053
 Vibration     9          0.799              1.385              0.829
 Vibration    10          0.822              1.329              0.754
 Vibration    11          0.846              1.273              0.684
 Vibration    12          0.881              1.191              0.595
 Vibration    13          0.890              1.172              0.575
 Vibration    14          0.963              1.021              0.441

 Optimization completed.
    -- Stationary point found.
 Normal termination of Gaussian 16 at Wed Dec  9 17:53:32 2020.

 ----------------------------------------------------------------------
 # B3LYP/6-311++G(d,p) empiricaldispersion=gd3bj scf=xqc pop=npa geom=c
 heck
 ----------------------------------------------------------------------

 ---------------------------------------
 CID_137285310_JID_2643_Energie_neutraal
 ---------------------------------------
 Structure from the checkpoint file:  "JID_2643.chk"
 Charge =  0 Multiplicity = 1

 SCF Done:  E(RB3LYP) =  -532.687896288     A.U. after   15 cycles
 Normal termination of Gaussian 16 at Wed Dec  9 17:56:56 2020.

 ----------------------------------------------------------------------
 # B3LYP/6-311++G(d,p) empiricaldispersion=gd3bj scf=xqc pop=npa geom=c
 heck
 ----------------------------------------------------------------------

 -------------------------------------
 CID_137285310_JID_2643_Energie_kation
 -------------------------------------
 Structure from the checkpoint file:  "JID_2643.chk"
 Charge =  1 Multiplicity = 2

 SCF Done:  E(UB3LYP) =  -532.382414357     A.U. after   22 cycles
 Normal termination of Gaussian 16 at Wed Dec  9 18:02:24 2020.
 Gaussian 16:  ES64L-G16RevA.03 25-Dec-2016

 ----------------------------------------------------------------------
 # B3LYP/6-311++G(d,p) empiricaldispersion=gd3bj scf=xqc pop=npa geom=c
 heck
 ----------------------------------------------------------------------

 ------------------------------------
 CID_137285310_JID_2643_Energie_anion
 ------------------------------------
 Structure from the checkpoint file:  "JID_2643.chk"
 Charge = -1 Multiplicity = 2

                         Standard orientation:
 ---------------------------------------------------------------------
 Center     Atomic      Atomic             Coordinates (Angstroms)
 Number     Number       Type             X           Y           Z
 ---------------------------------------------------------------------
      1          6           0        3.750115   -0.276472   -0.000062
      2          6           0        2.268628   -0.003617    0.000049
      3          7           0        1.454977   -1.043383    0.000036
      4          6           0        0.111350   -0.812898    0.000012
      5          6           0       -0.778641   -1.921750    0.000013
      6          7           0       -2.089788   -1.796508   -0.000003
      7          6           0       -2.619611   -0.548764   -0.000014
      8          6           0       -1.859759    0.604726   -0.000012
      9          6           0       -0.445010    0.495702    0.000004
     10          6           0        0.447890    1.595889    0.000026
     11          6           0        1.795589    1.343412    0.000043
     12          8           0       -2.389401    1.862593   -0.000036
     13          1           0        4.230810    0.162647   -0.883039
     14          1           0        3.926683   -1.353529    0.000832
     15          1           0        4.231293    0.164285    0.881820
     16          1           0       -0.357162   -2.924308    0.000028
     17          1           0       -3.708451   -0.488170   -0.000030
     18          1           0        0.056023    2.607250    0.000036
     19          1           0        2.513775    2.158312    0.000058
     20          1           0       -3.357398    1.794639   -0.000011
 ---------------------------------------------------------------------

 SCF Done:  E(UB3LYP) =  -532.696373684     A.U. after   21 cycles

 The electronic state is 2-A.
 Alpha  occ. eigenvalues --  -19.02325 -14.13951 -14.12405 -10.07358 -10.04780
 Alpha  occ. eigenvalues --  -10.04308 -10.04232 -10.03242 -10.02688 -10.02104
 Alpha  occ. eigenvalues --  -10.00553 -10.00293  -0.93236  -0.78701  -0.76208
 Alpha  occ. eigenvalues --   -0.65335  -0.62946  -0.59397  -0.56573  -0.49231
 Alpha  occ. eigenvalues --   -0.48345  -0.44966  -0.40966  -0.36662  -0.35701
 Alpha  occ. eigenvalues --   -0.32974  -0.29837  -0.29435  -0.28926  -0.28165
 Alpha  occ. eigenvalues --   -0.26921  -0.25079  -0.23419  -0.23291  -0.22200
 Alpha  occ. eigenvalues --   -0.21521  -0.19902  -0.14150  -0.10509  -0.10500
 Alpha  occ. eigenvalues --   -0.09073  -0.07432   0.05468
 Alpha virt. eigenvalues --    0.08532   0.09261   0.11047   0.11772   0.11978
 Alpha virt. eigenvalues --    0.12439   0.13529   0.14012   0.14912   0.15917
 Alpha virt. eigenvalues --    0.16391   0.17051   0.17949   0.18798   0.18831

  Beta  occ. eigenvalues --  -19.02287 -14.13705 -14.11928 -10.07075 -10.04721
  Beta  occ. eigenvalues --  -10.04380 -10.04265 -10.03246 -10.02779 -10.01873
  Beta  occ. eigenvalues --  -10.00376  -9.99883  -0.93101  -0.78192  -0.75640
  Beta  occ. eigenvalues --   -0.64883  -0.62521  -0.58958  -0.56349  -0.49014
  Beta  occ. eigenvalues --   -0.47801  -0.44612  -0.40640  -0.36458  -0.35448
  Beta  occ. eigenvalues --   -0.32772  -0.29634  -0.29044  -0.28767  -0.27545
  Beta  occ. eigenvalues --   -0.26824  -0.24979  -0.23301  -0.22403  -0.21936
  Beta  occ. eigenvalues --   -0.21317  -0.18555  -0.12317  -0.10114  -0.09428
  Beta  occ. eigenvalues --   -0.08618  -0.05894
  Beta virt. eigenvalues --    0.08523   0.09240   0.11017   0.11750   0.11875
  Beta virt. eigenvalues --    0.11966   0.12427   0.13665   0.14007   0.14889
  Beta virt. eigenvalues --    0.16385   0.16481   0.17931   0.18043   0.18838

 Mulliken charges and spin densities:
               1          2
     1  C   -0.429904   0.012655
     2  C    0.046054   0.024774
     3  N   -0.025020   0.220511
     4  C   -1.626255  -0.026471
     5  C   -0.527711   0.157487
     6  N   -0.153390   0.112425
     7  C   -0.270515  -0.055142
     8  C    0.423173   0.177781
     9  C    1.249176  -0.030983
    10  C   -0.096501   0.274424
    11  C   -0.354434   0.170949
    12  O   -0.270176   0.013666
    13  H    0.120100   0.001071
    14  H    0.130033  -0.001576
    15  H    0.119999   0.001066
    16  H    0.123701  -0.014474
    17  H    0.073291   0.002992
    18  H    0.125052  -0.028591
    19  H    0.110826  -0.012257
    20  H    0.232500  -0.000310
 Sum of Mulliken charges =  -1.00000   1.00000

 Dipole moment (field-independent basis, Debye):
    X=             -0.3066    Y=              3.2307    Z=             -0.0001  Tot=              3.2452
 Quadrupole moment (field-independent basis, Debye-Ang):
   XX=            -86.4900   YY=            -91.6775   ZZ=            -78.2844
   XY=             -6.7357   XZ=             -0.0002   YZ=             -0.0000

 Summary of Natural Population Analysis:

                                       Natural Population
                Natural  -----------------------------------------------
    Atom  No    Charge         Core      Valence    Rydberg      Total
 -----------------------------------------------------------------------
      C    1   -0.29607      0.99964     2.29204    0.00439     3.29607
      C    2    0.11528      0.99958     1.87207    0.01308     2.88472
      N    3   -0.19021      0.99965     2.67601    0.01455     3.69021
      C    4    0.06531      0.99948     1.92125    0.01396     2.93469
      C    5    0.06105      0.99958     1.92408    0.01529     2.93895
      N    6   -0.21089      0.99971     2.69703    0.01416     3.71089
      C    7   -0.06077      0.99954     2.04553    0.01570     3.06077
      C    8    0.18841      0.99934     1.80075    0.01150     2.81159
      C    9   -0.07195      0.99946     2.06409    0.00840     3.07195
      C   10   -0.00994      0.99954     2.00086    0.00954     3.00994
      C   11   -0.09737      0.99952     2.08940    0.00845     3.09737
      O   12   -0.34242      0.99988     3.33648    0.00607     4.34242
      H   13    0.09414      0.00000     0.40484    0.00101     0.40586
      H   14    0.10340      0.00000     0.39543    0.00117     0.39660
      H   15    0.09413      0.00000     0.40486    0.00101     0.40587
      H   16    0.08027      0.00000     0.41808    0.00165     0.41973
      H   17    0.07394      0.00000     0.42443    0.00163     0.42606
      H   18    0.09216      0.00000     0.40621    0.00163     0.40784
      H   19    0.08578      0.00000     0.41309    0.00113     0.41422
      H   20    0.22579      0.00000     0.27174    0.00247     0.27421
 =======================================================================
   * Total *    0.00000     11.99492    29.85828    0.14681    42.00000

 Normal termination of Gaussian 16 at Wed Dec  9 18:07:19 2020.
