 Gaussian 16, Revision A.03,

 -----------------------------------------------------------
 # opt freq B3LYP/6-31G(d) empiricaldispersion=gd3bj scf=xqc
 -----------------------------------------------------------

 ------------------------------
 CID_84625929_JID_7465_neutraal
 ------------------------------
 Symbolic Z-matrix:
 Charge =  0 Multiplicity = 1

 SCF Done:  E(RB3LYP) =  -709.268287854     A.U. after   15 cycles
 SCF Done:  E(RB3LYP) =  -709.273759883     A.U. after   12 cycles
 SCF Done:  E(RB3LYP) =  -709.274175362     A.U. after   11 cycles
 SCF Done:  E(RB3LYP) =  -709.274352732     A.U. after   10 cycles
 SCF Done:  E(RB3LYP) =  -709.274683605     A.U. after   11 cycles
 SCF Done:  E(RB3LYP) =  -709.274461101     A.U. after   11 cycles
 SCF Done:  E(RB3LYP) =  -709.275736304     A.U. after   12 cycles
 SCF Done:  E(RB3LYP) =  -709.276364189     A.U. after   14 cycles
 SCF Done:  E(RB3LYP) =  -709.236634182     A.U. after   13 cycles
 SCF Done:  E(RB3LYP) =  -709.277272322     A.U. after   12 cycles
 SCF Done:  E(RB3LYP) =  -709.279093354     A.U. after    6 cycles
 SCF Done:  E(RB3LYP) =  -709.279093376     A.U. after    7 cycles
 SCF Done:  E(RB3LYP) =  -709.279093398     A.U. after    7 cycles
 SCF Done:  E(RB3LYP) =  -709.279093416     A.U. after    7 cycles
 SCF Done:  E(RB3LYP) =  -709.279093432     A.U. after    6 cycles
 Optimization completed.
    -- Stationary point found.
 Normal termination of Gaussian 16 at Fri Dec 11 12:35:00 2020.

 --------------------------------------------------------------------
 #N Geom=AllCheck Guess=TCheck SCRF=Check GenChk RB3LYP/6-31G(d) Freq
 --------------------------------------------------------------------

 Structure from the checkpoint file:  "JID_7465.chk"
 ------------------------------
 CID_84625929_JID_7465_neutraal
 ------------------------------
 Charge =  0 Multiplicity = 1

 SCF Done:  E(RB3LYP) =  -709.279093432     A.U. after    1 cycles

  Exact polarizability: 237.926  -0.762 168.574   6.617  -2.287  98.713
 Approx polarizability: 317.148  -4.689 270.282  14.987  -5.277 153.507

                      1                      2                      3
                      A                      A                      A
 Frequencies --     34.1526                47.0824                54.7482
 Red. masses --      2.4673                 3.0245                 1.1519
 Frc consts  --      0.0017                 0.0040                 0.0020
 IR Inten    --      0.4722                 0.8084                 0.1108

                      4                      5                      6
                      A                      A                      A
 Frequencies --     64.7231                81.2520               116.5698
 Red. masses --      2.1671                 1.0974                 2.5694
 Frc consts  --      0.0053                 0.0043                 0.0206
 IR Inten    --      0.1541                 0.3460                 4.4630

                      7                      8                      9
                      A                      A                      A
 Frequencies --    118.2952               156.5365               165.8270
 Red. masses --      3.1575                 1.5484                 2.1425
 Frc consts  --      0.0260                 0.0224                 0.0347
 IR Inten    --      1.2565                 1.3882                 0.7883

                     10                     11                     12
                      A                      A                      A
 Frequencies --    206.0626               228.4182               236.4604
 Red. masses --      3.1484                 2.4914                 3.1725
 Frc consts  --      0.0788                 0.0766                 0.1045
 IR Inten    --      0.8797                 7.3120                 0.3848

                     13                     14                     15
                      A                      A                      A
 Frequencies --    249.6735               283.2261               289.1509
 Red. masses --      2.6409                 3.1953                 3.3817
 Frc consts  --      0.0970                 0.1510                 0.1666
 IR Inten    --      0.7815                 0.8428                 0.1698

                     16                     17                     18
                      A                      A                      A
 Frequencies --    320.2251               368.1420               409.6072
 Red. masses --      4.1167                 3.7666                 4.6146
 Frc consts  --      0.2487                 0.3008                 0.4562
 IR Inten    --      0.1062                 0.2925                 0.8254

                     19                     20                     21
                      A                      A                      A
 Frequencies --    484.7034               534.4494               545.2860
 Red. masses --      5.1590                 3.7600                 4.0190
 Frc consts  --      0.7141                 0.6328                 0.7041
 IR Inten    --      2.6737                 2.2399                 0.2819

                     22                     23                     24
                      A                      A                      A
 Frequencies --    571.1098               602.8427               614.5455
 Red. masses --      2.9638                 4.2947                 3.4221
 Frc consts  --      0.5696                 0.9196                 0.7615
 IR Inten    --      4.6465                 2.6394                 1.1885

                     25                     26                     27
                      A                      A                      A
 Frequencies --    625.5551               653.4503               696.3392
 Red. masses --      2.1200                 4.0056                 4.8487
 Frc consts  --      0.4888                 1.0077                 1.3852
 IR Inten    --      0.8367                 1.7011                 4.6283

                     28                     29                     30
                      A                      A                      A
 Frequencies --    746.2464               783.3546               812.2545
 Red. masses --      6.6076                 6.2524                 1.7330
 Frc consts  --      2.1680                 2.2606                 0.6736
 IR Inten    --      5.3454                 1.2267                 0.1038

                     31                     32                     33
                      A                      A                      A
 Frequencies --    838.3119               839.8379               857.7748
 Red. masses --      2.3679                 1.3644                 4.2452
 Frc consts  --      0.9805                 0.5670                 1.8403
 IR Inten    --      7.5404                19.0323                14.6332

                     34                     35                     36
                      A                      A                      A
 Frequencies --    875.5090               882.8016               914.9963
 Red. masses --      1.2895                 1.7563                 2.8178
 Frc consts  --      0.5823                 0.8064                 1.3900
 IR Inten    --      4.4588                45.1400                 8.8954

                     37                     38                     39
                      A                      A                      A
 Frequencies --    949.0160               979.3511               987.4858
 Red. masses --      3.5499                 2.8944                 2.7020
 Frc consts  --      1.8837                 1.6356                 1.5524
 IR Inten    --     11.3812                18.8852                16.6274

                     40                     41                     42
                      A                      A                      A
 Frequencies --    994.5178              1016.4533              1035.3509
 Red. masses --      2.1473                 1.4624                 2.0477
 Frc consts  --      1.2513                 0.8902                 1.2933
 IR Inten    --      2.4382                11.0049                 0.3368

                     43                     44                     45
                      A                      A                      A
 Frequencies --   1045.0950              1070.8759              1073.5623
 Red. masses --      1.4968                 2.1384                 1.4937
 Frc consts  --      0.9632                 1.4448                 1.0143
 IR Inten    --      9.2416                13.8254                 5.1284

                     46                     47                     48
                      A                      A                      A
 Frequencies --   1076.2330              1099.3758              1101.9818
 Red. masses --      1.5038                 4.2565                 2.0853
 Frc consts  --      1.0262                 3.0311                 1.4920
 IR Inten    --      1.2753                46.7046                 7.0199

                     49                     50                     51
                      A                      A                      A
 Frequencies --   1166.0424              1169.0300              1190.8608
 Red. masses --      1.2967                 1.7456                 2.0071
 Frc consts  --      1.0388                 1.4055                 1.6770
 IR Inten    --      5.4782                 1.7904                10.1287

                     52                     53                     54
                      A                      A                      A
 Frequencies --   1228.7472              1236.1274              1257.6816
 Red. masses --      1.2885                 1.4720                 1.9376
 Frc consts  --      1.1462                 1.3252                 1.8057
 IR Inten    --      1.2726                 4.4981                 0.5046

                     55                     56                     57
                      A                      A                      A
 Frequencies --   1259.7817              1268.4038              1312.6544
 Red. masses --      1.4747                 2.9421                 2.0795
 Frc consts  --      1.3790                 2.7889                 2.1111
 IR Inten    --      1.8229                29.8615                10.1430

                     58                     59                     60
                      A                      A                      A
 Frequencies --   1313.8759              1339.0962              1349.0544
 Red. masses --      1.3534                 1.3733                 1.6351
 Frc consts  --      1.3765                 1.4509                 1.7533
 IR Inten    --      0.4143                 6.1663                33.1797

                     61                     62                     63
                      A                      A                      A
 Frequencies --   1359.7007              1381.3616              1385.7673
 Red. masses --      1.5898                 1.4103                 3.4117
 Frc consts  --      1.7317                 1.5855                 3.8602
 IR Inten    --     34.0342                 1.5323                 1.4724

                     64                     65                     66
                      A                      A                      A
 Frequencies --   1397.6384              1440.4475              1442.3134
 Red. masses --      3.7364                 1.3810                 1.5164
 Frc consts  --      4.3002                 1.6882                 1.8586
 IR Inten    --      2.8808                 8.5016                 9.3887

                     67                     68                     69
                      A                      A                      A
 Frequencies --   1445.5718              1460.9697              1485.9188
 Red. masses --      1.7298                 2.0945                 1.1592
 Frc consts  --      2.1297                 2.6339                 1.5080
 IR Inten    --     11.4079                25.5678                44.1430

                     70                     71                     72
                      A                      A                      A
 Frequencies --   1500.2391              1506.9856              1513.9963
 Red. masses --      1.6793                 1.0447                 1.0449
 Frc consts  --      2.2269                 1.3978                 1.4111
 IR Inten    --     34.3261                 5.7659                 4.2434

                     73                     74                     75
                      A                      A                      A
 Frequencies --   1517.0037              1520.6850              1527.1741
 Red. masses --      1.2915                 1.0860                 1.1333
 Frc consts  --      1.7511                 1.4796                 1.5573
 IR Inten    --      5.6790                 1.6479                17.5411

                     76                     77                     78
                      A                      A                      A
 Frequencies --   1527.7427              1533.2907              1538.7341
 Red. masses --      1.1552                 1.0877                 1.0821
 Frc consts  --      1.5886                 1.5067                 1.5096
 IR Inten    --     17.4995                10.8305                 3.5473

                     79                     80                     81
                      A                      A                      A
 Frequencies --   1544.9426              1554.0942              1574.7742
 Red. masses --      1.1107                 2.8284                 5.2498
 Frc consts  --      1.5620                 4.0248                 7.6705
 IR Inten    --      0.7091                 6.8179                20.4283

                     82                     83                     84
                      A                      A                      A
 Frequencies --   1646.1475              1676.9387              3010.4894
 Red. masses --      7.8136                 6.6460                 1.0833
 Frc consts  --     12.4749                11.0114                 5.7845
 IR Inten    --     11.5403                21.4038                24.1321

                     85                     86                     87
                      A                      A                      A
 Frequencies --   3039.9746              3048.0880              3049.2880
 Red. masses --      1.0373                 1.0634                 1.0388
 Frc consts  --      5.6478                 5.8210                 5.6907
 IR Inten    --     48.7013                25.4350                90.3333

                     88                     89                     90
                      A                      A                      A
 Frequencies --   3049.6505              3063.8155              3088.4311
 Red. masses --      1.0408                 1.0623                 1.0697
 Frc consts  --      5.7032                 5.8752                 6.0117
 IR Inten    --     19.9878                37.0460                21.3988

                     91                     92                     93
                      A                      A                      A
 Frequencies --   3090.2879              3102.9285              3105.6220
 Red. masses --      1.1009                 1.1002                 1.0956
 Frc consts  --      6.1943                 6.2411                 6.2261
 IR Inten    --     23.1632                16.0713                39.8808

                     94                     95                     96
                      A                      A                      A
 Frequencies --   3117.2500              3119.9712              3121.7674
 Red. masses --      1.1001                 1.1018                 1.1008
 Frc consts  --      6.2985                 6.3188                 6.3203
 IR Inten    --     16.7250                38.3171                19.1702

                     97                     98                     99
                      A                      A                      A
 Frequencies --   3129.1875              3146.6153              3164.2841
 Red. masses --      1.1030                 1.1023                 1.1036
 Frc consts  --      6.3632                 6.4303                 6.5106
 IR Inten    --     21.0291                16.9779                 1.1410

                    100                    101                    102
                      A                      A                      A
 Frequencies --   3168.6433              3191.9734              3445.8885
 Red. masses --      1.0894                 1.0905                 1.0740
 Frc consts  --      6.4442                 6.5462                 7.5141
 IR Inten    --     27.0962                14.0916                 0.3526

 - Thermochemistry -
 -------------------
 Temperature   298.150 Kelvin.  Pressure   1.00000 Atm.
 Atom     1 has atomic number  6 and mass  12.00000

 Molecular mass:   229.15790 amu.
 Principal axes and moments of inertia in atomic units:
                           1         2         3
     Eigenvalues --  1735.726446790.040568233.15516
           X            0.99999   0.00352   0.00108
           Y           -0.00352   0.99999  -0.00387
           Z           -0.00110   0.00386   0.99999
 This molecule is an asymmetric top.
 Rotational symmetry number  1.
 Warning -- assumption of classical behavior for rotation
           may cause significant error
 Rotational temperatures (Kelvin)      0.04990     0.01276     0.01052
 Rotational constants (GHZ):           1.03976     0.26579     0.21920
 Zero-point vibrational energy     822832.0 (Joules/Mol)
                                  196.66157 (Kcal/Mol)
 Warning -- explicit consideration of  24 degrees of freedom as
           vibrations may cause significant error
 Vibrational temperatures:     49.14    67.74    78.77    93.12   116.90
          (Kelvin)            167.72   170.20   225.22   238.59   296.48
                              328.64   340.21   359.22   407.50   416.02
                              460.73   529.67   589.33   697.38   768.95
                              784.54   821.70   867.36   884.19   900.03
                              940.17  1001.88  1073.68  1127.07  1168.65
                             1206.14  1208.34  1234.15  1259.66  1270.15
                             1316.48  1365.42  1409.07  1420.77  1430.89
                             1462.45  1489.64  1503.66  1540.75  1544.62
                             1548.46  1581.76  1585.51  1677.68  1681.97
                             1713.38  1767.89  1778.51  1809.52  1812.54
                             1824.95  1888.62  1890.37  1926.66  1940.99
                             1956.31  1987.47  1993.81  2010.89  2072.48
                             2075.17  2079.86  2102.01  2137.91  2158.51
                             2168.22  2178.30  2182.63  2187.93  2197.26
                             2198.08  2206.06  2213.90  2222.83  2235.99
                             2265.75  2368.44  2412.74  4331.42  4373.85
                             4385.52  4387.25  4387.77  4408.15  4443.56
                             4446.24  4464.42  4468.30  4485.03  4488.94
                             4491.53  4502.20  4527.28  4552.70  4558.97
                             4592.54  4957.87

 Zero-point correction=                           0.313400 (Hartree/Particle)
 Thermal correction to Energy=                    0.329773
 Thermal correction to Enthalpy=                  0.330717
 Thermal correction to Gibbs Free Energy=         0.268358
 Sum of electronic and zero-point Energies=           -708.965693
 Sum of electronic and thermal Energies=              -708.949321
 Sum of electronic and thermal Enthalpies=            -708.948377
 Sum of electronic and thermal Free Energies=         -709.010736

                     E (Thermal)             CV                S
                      KCal/Mol        Cal/Mol-Kelvin    Cal/Mol-Kelvin
 Total                  206.935             61.446            131.246
 Electronic               0.000              0.000              0.000
 Translational            0.889              2.981             42.190
 Rotational               0.889              2.981             32.939
 Vibrational            205.158             55.484             56.117
 Vibration     1          0.594              1.983              5.572
 Vibration     2          0.595              1.979              4.936
 Vibration     3          0.596              1.976              4.638
 Vibration     4          0.597              1.971              4.308
 Vibration     5          0.600              1.962              3.860
 Vibration     6          0.608              1.936              3.156
 Vibration     7          0.608              1.934              3.128
 Vibration     8          0.620              1.895              2.591
 Vibration     9          0.624              1.884              2.482
 Vibration    10          0.641              1.831              2.078
 Vibration    11          0.651              1.798              1.891
 Vibration    12          0.655              1.785              1.829
 Vibration    13          0.662              1.763              1.733
 Vibration    14          0.682              1.705              1.514
 Vibration    15          0.686              1.694              1.479
 Vibration    16          0.706              1.635              1.309
 Vibration    17          0.741              1.538              1.088
 Vibration    18          0.774              1.449              0.928
 Vibration    19          0.841              1.284              0.697
 Vibration    20          0.889              1.174              0.577
 Vibration    21          0.900              1.150              0.554
 Vibration    22          0.927              1.094              0.502
 Vibration    23          0.961              1.026              0.445
 Vibration    24          0.974              1.001              0.425

 Optimization completed.
    -- Stationary point found.
 Normal termination of Gaussian 16 at Fri Dec 11 12:49:10 2020.

 ----------------------------------------------------------------------
 # B3LYP/6-311++G(d,p) empiricaldispersion=gd3bj scf=xqc pop=npa geom=c
 heck
 ----------------------------------------------------------------------

 --------------------------------------
 CID_84625929_JID_7465_Energie_neutraal
 --------------------------------------
 Structure from the checkpoint file:  "JID_7465.chk"
 Charge =  0 Multiplicity = 1

 SCF Done:  E(RB3LYP) =  -709.462030819     A.U. after   15 cycles
 Normal termination of Gaussian 16 at Fri Dec 11 12:56:03 2020.

 ----------------------------------------------------------------------
 # B3LYP/6-311++G(d,p) empiricaldispersion=gd3bj scf=xqc pop=npa geom=c
 heck
 ----------------------------------------------------------------------

 ------------------------------------
 CID_84625929_JID_7465_Energie_kation
 ------------------------------------
 Structure from the checkpoint file:  "JID_7465.chk"
 Charge =  1 Multiplicity = 2

 SCF Done:  E(UB3LYP) =  -709.185798110     A.U. after   28 cycles
 Normal termination of Gaussian 16 at Fri Dec 11 13:14:32 2020.
 Gaussian 16:  ES64L-G16RevA.03 25-Dec-2016

 ----------------------------------------------------------------------
 # B3LYP/6-311++G(d,p) empiricaldispersion=gd3bj scf=xqc pop=npa geom=c
 heck
 ----------------------------------------------------------------------

 -----------------------------------
 CID_84625929_JID_7465_Energie_anion
 -----------------------------------
 Structure from the checkpoint file:  "JID_7465.chk"
 Charge = -1 Multiplicity = 2

                         Standard orientation:
 ---------------------------------------------------------------------
 Center     Atomic      Atomic             Coordinates (Angstroms)
 Number     Number       Type             X           Y           Z
 ---------------------------------------------------------------------
      1          6           0       -4.913283   -1.149500   -0.234971
      2          6           0       -3.539654   -0.531486   -0.124300
      3          6           0       -3.406118    0.877570   -0.160646
      4          6           0       -2.181547    1.531251   -0.061088
      5          6           0       -1.045715    0.714793    0.081069
      6          6           0       -1.175079   -0.689931    0.115881
      7          6           0       -2.410159   -1.335499    0.016593
      8          7           0        0.117459   -1.169348    0.252089
      9          6           0        0.947537   -0.060581    0.306022
     10          7           0        0.289787    1.074422    0.200867
     11          6           0        2.431962   -0.192256    0.454604
     12          6           0        3.182875    1.157514    0.609619
     13          6           0        4.495916    0.961336   -0.192253
     14          6           0        4.455236   -0.521565   -0.630559
     15          7           0        3.034229   -0.898110   -0.704201
     16          6           0        0.503015   -2.566374    0.342419
     17          6           0       -2.049664    3.028871   -0.100664
     18          1           0       -5.567731   -0.819458    0.581578
     19          1           0       -4.863924   -2.242414   -0.201511
     20          1           0       -5.405245   -0.865553   -1.173678
     21          1           0       -4.307953    1.476563   -0.270809
     22          1           0       -2.498060   -2.417631    0.052607
     23          1           0        2.642718   -0.820679    1.332588
     24          1           0        2.570161    1.964924    0.204309
     25          1           0        3.365469    1.383235    1.664323
     26          1           0        4.507143    1.613670   -1.072536
     27          1           0        5.390066    1.194939    0.394392
     28          1           0        4.950043   -0.716330   -1.586368
     29          1           0        4.933608   -1.156477    0.126220
     30          1           0        2.637683   -0.481042   -1.548841
     31          1           0        0.359141   -2.954278    1.358004
     32          1           0       -0.111263   -3.153050   -0.346948
     33          1           0        1.548955   -2.660167    0.045455
     34          1           0       -1.572800    3.404481    0.812123
     35          1           0       -1.413920    3.344858   -0.936109
     36          1           0       -3.026341    3.510794   -0.206435
 ---------------------------------------------------------------------

 SCF Done:  E(UB3LYP) =  -709.448830100     A.U. after   33 cycles
 SCF Done:  E(UB3LYP) =  -709.448830100     a.u. after    1 cycles

 The electronic state is 2-A.
 Alpha  occ. eigenvalues --  -14.26794 -14.20655 -14.19605 -10.13756 -10.11177
 Alpha  occ. eigenvalues --  -10.10648 -10.10633 -10.09433 -10.08949 -10.08519
 Alpha  occ. eigenvalues --  -10.08506 -10.07588 -10.07544 -10.07461 -10.07039
 Alpha  occ. eigenvalues --  -10.06925 -10.06703  -0.92066  -0.82881  -0.79358
 Alpha  occ. eigenvalues --   -0.75549  -0.68571  -0.67442  -0.66192  -0.63681
 Alpha  occ. eigenvalues --   -0.61414  -0.59777  -0.57948  -0.53357  -0.50673
 Alpha  occ. eigenvalues --   -0.48570  -0.47784  -0.45931  -0.42735  -0.40437
 Alpha  occ. eigenvalues --   -0.39385  -0.37942  -0.37212  -0.36559  -0.34249
 Alpha  occ. eigenvalues --   -0.33731  -0.33303  -0.33003  -0.32752  -0.32285
 Alpha  occ. eigenvalues --   -0.31028  -0.30566  -0.29789  -0.28753  -0.27870
 Alpha  occ. eigenvalues --   -0.26398  -0.26180  -0.25610  -0.25253  -0.25005
 Alpha  occ. eigenvalues --   -0.23116  -0.22323  -0.19481  -0.17727  -0.14783
 Alpha  occ. eigenvalues --   -0.12956  -0.12224   0.04221
 Alpha virt. eigenvalues --    0.05870   0.06718   0.06999   0.07299   0.07657
 Alpha virt. eigenvalues --    0.08435   0.08838   0.09172   0.09549   0.10064
 Alpha virt. eigenvalues --    0.10608   0.10812   0.11130   0.11330   0.11801

  Beta  occ. eigenvalues --  -14.26786 -14.20632 -14.19593 -10.13734 -10.11164
  Beta  occ. eigenvalues --  -10.10650 -10.10590 -10.09402 -10.08949 -10.08497
  Beta  occ. eigenvalues --  -10.08490 -10.07585 -10.07523 -10.07436 -10.07019
  Beta  occ. eigenvalues --  -10.06925 -10.06696  -0.92042  -0.82842  -0.79333
  Beta  occ. eigenvalues --   -0.75519  -0.68534  -0.67408  -0.66149  -0.63634
  Beta  occ. eigenvalues --   -0.61358  -0.59757  -0.57909  -0.53315  -0.50609
  Beta  occ. eigenvalues --   -0.48524  -0.47741  -0.45891  -0.42691  -0.40403
  Beta  occ. eigenvalues --   -0.39340  -0.37886  -0.37164  -0.36529  -0.34198
  Beta  occ. eigenvalues --   -0.33697  -0.33263  -0.32966  -0.32718  -0.32252
  Beta  occ. eigenvalues --   -0.30996  -0.30533  -0.29750  -0.28724  -0.27835
  Beta  occ. eigenvalues --   -0.26368  -0.26140  -0.25584  -0.25223  -0.24968
  Beta  occ. eigenvalues --   -0.23076  -0.22265  -0.19428  -0.17694  -0.14752
  Beta  occ. eigenvalues --   -0.12901  -0.12124
  Beta virt. eigenvalues --    0.06137   0.06622   0.07160   0.07266   0.07793
  Beta virt. eigenvalues --    0.08236   0.08712   0.08907   0.09607   0.09763
  Beta virt. eigenvalues --    0.10525   0.10865   0.11039   0.11249   0.11456

 Mulliken charges and spin densities:
               1          2
     1  C    1.411881  -1.781649
     2  C   -0.641062   0.901362
     3  C   -0.885870   0.556892
     4  C   -0.337861   0.559664
     5  C   -0.035548  -0.024696
     6  C    1.199470  -1.216927
     7  C   -0.434243  -0.308684
     8  N   -0.095076   0.188728
     9  C    0.054577   0.052684
    10  N    0.004019   0.055697
    11  C   -0.326970   0.132683
    12  C   -0.029868  -0.595069
    13  C   -0.045524  -0.212667
    14  C    0.621414  -1.004193
    15  N   -0.071981   0.103867
    16  C    0.892166  -1.238613
    17  C   -0.570298   0.034468
    18  H    0.024942   0.123309
    19  H   -0.372521   0.528310
    20  H   -0.020732   0.171032
    21  H    0.029271   0.069450
    22  H   -0.248623   0.390833
    23  H   -0.198995   0.409200
    24  H    0.225329  -0.048468
    25  H   -0.034034   0.187179
    26  H   -0.047910   0.171879
    27  H   -0.123636   0.256214
    28  H   -0.381227   0.561696
    29  H   -0.212901   0.366235
    30  H    0.101878   0.135011
    31  H   -0.228592   0.413649
    32  H   -0.392117   0.549591
    33  H   -0.124598   0.344455
    34  H    0.115666   0.050478
    35  H    0.132738   0.030057
    36  H    0.046837   0.086344
 Sum of Mulliken charges =  -1.00000   1.00000

 Dipole moment (field-independent basis, Debye):
    X=             -2.8548    Y=              4.9939    Z=              0.1582  Tot=              5.7545
 Quadrupole moment (field-independent basis, Debye-Ang):
   XX=           -194.9770   YY=           -151.4886   ZZ=           -133.7457
   XY=             -4.3118   XZ=             -1.8532   YZ=             -2.0145

 Summary of Natural Population Analysis:

                                       Natural Population
                Natural  -----------------------------------------------
    Atom  No    Charge         Core      Valence    Rydberg      Total
 -----------------------------------------------------------------------
      C    1   -0.28960      0.99964     2.28493    0.00503     3.28960
      C    2   -0.01455      0.99954     2.00501    0.01000     3.01455
      C    3   -0.11514      0.99949     2.10751    0.00814     3.11514
      C    4   -0.00627      0.99948     1.99915    0.00764     3.00627
      C    5    0.05269      0.99942     1.93557    0.01233     2.94731
      C    6    0.07765      0.99946     1.91179    0.01111     2.92235
      C    7   -0.12060      0.99948     2.11237    0.00875     3.12060
      N    8   -0.20657      0.99958     2.69730    0.00969     3.70657
      C    9    0.21759      0.99957     1.76468    0.01816     2.78241
      N   10   -0.25934      0.99967     2.75174    0.00793     3.75934
      C   11   -0.03675      0.99956     2.02401    0.01317     3.03675
      C   12   -0.19663      0.99963     2.18967    0.00733     3.19663
      C   13   -0.20265      0.99964     2.19493    0.00808     3.20265
      C   14   -0.08950      0.99964     2.07944    0.01042     3.08950
      N   15   -0.33252      0.99976     2.82055    0.01220     3.83252
      C   16   -0.18181      0.99963     2.17383    0.00834     3.18181
      C   17   -0.29137      0.99964     2.28676    0.00497     3.29137
      H   18    0.10017      0.00000     0.39868    0.00115     0.39983
      H   19    0.10300      0.00000     0.39590    0.00110     0.39700
      H   20    0.10149      0.00000     0.39724    0.00127     0.39851
      H   21    0.09354      0.00000     0.40521    0.00125     0.40646
      H   22    0.10484      0.00000     0.39388    0.00127     0.39516
      H   23    0.10129      0.00000     0.39663    0.00208     0.39871
      H   24    0.11150      0.00000     0.38663    0.00187     0.38850
      H   25    0.09985      0.00000     0.39913    0.00102     0.40015
      H   26    0.09481      0.00000     0.40398    0.00122     0.40519
      H   27    0.10015      0.00000     0.39863    0.00121     0.39985
      H   28    0.09714      0.00000     0.40164    0.00122     0.40286
      H   29    0.09099      0.00000     0.40731    0.00171     0.40901
      H   30    0.17110      0.00000     0.32648    0.00242     0.32890
      H   31    0.09563      0.00000     0.40305    0.00132     0.40437
      H   32    0.10224      0.00000     0.39586    0.00191     0.39776
      H   33    0.11885      0.00000     0.37899    0.00216     0.38115
      H   34    0.10644      0.00000     0.39229    0.00127     0.39356
      H   35    0.10600      0.00000     0.39274    0.00126     0.39400
      H   36    0.09635      0.00000     0.40282    0.00083     0.40365
 =======================================================================
   * Total *    0.00000     16.99285    44.81632    0.19084    62.00000

 Normal termination of Gaussian 16 at Fri Dec 11 13:34:33 2020.
