 Gaussian 16, Revision A.03,

 -----------------------------------------------------------
 # opt freq B3LYP/6-31G(d) empiricaldispersion=gd3bj scf=xqc
 -----------------------------------------------------------

 ------------------------------
 CID_91307380_JID_1893_neutraal
 ------------------------------
 Symbolic Z-matrix:
 Charge =  0 Multiplicity = 1

 SCF Done:  E(RB3LYP) =  -520.312039233     A.U. after   13 cycles
 SCF Done:  E(RB3LYP) =  -520.315281634     A.U. after   10 cycles
 SCF Done:  E(RB3LYP) =  -520.315574185     A.U. after   10 cycles
 SCF Done:  E(RB3LYP) =  -520.315603419     A.U. after   10 cycles
 SCF Done:  E(RB3LYP) =  -520.315685168     A.U. after    9 cycles
 SCF Done:  E(RB3LYP) =  -520.315704768     A.U. after    9 cycles
 SCF Done:  E(RB3LYP) =  -520.315707857     A.U. after    8 cycles
 SCF Done:  E(RB3LYP) =  -520.315709298     A.U. after    8 cycles
 SCF Done:  E(RB3LYP) =  -520.315710577     A.U. after    8 cycles
 SCF Done:  E(RB3LYP) =  -520.315711418     A.U. after    8 cycles
 SCF Done:  E(RB3LYP) =  -520.315712692     A.U. after    8 cycles
 SCF Done:  E(RB3LYP) =  -520.315714252     A.U. after    9 cycles
 SCF Done:  E(RB3LYP) =  -520.315715320     A.U. after    8 cycles
 SCF Done:  E(RB3LYP) =  -520.315715443     A.U. after    6 cycles
 Optimization completed.
    -- Stationary point found.
 Normal termination of Gaussian 16 at Tue Dec  8 21:33:31 2020.

 --------------------------------------------------------------------
 #N Geom=AllCheck Guess=TCheck SCRF=Check GenChk RB3LYP/6-31G(d) Freq
 --------------------------------------------------------------------

 Structure from the checkpoint file:  "JID_1893.chk"
 ------------------------------
 CID_91307380_JID_1893_neutraal
 ------------------------------
 Charge =  0 Multiplicity = 1

 SCF Done:  E(RB3LYP) =  -520.315715443     A.U. after    1 cycles

  Exact polarizability: 110.257   3.234  88.372  -2.342   0.162  85.593
 Approx polarizability: 132.314   2.216 127.262  -1.025  -2.495 130.087

                      1                      2                      3
                      A                      A                      A
 Frequencies --     30.6486                70.5829               154.3004
 Red. masses --      2.9433                 2.1645                 3.2931
 Frc consts  --      0.0016                 0.0064                 0.0462
 IR Inten    --      3.0478                 2.6091                 1.1892

                      4                      5                      6
                      A                      A                      A
 Frequencies --    190.8713               207.3610               208.7871
 Red. masses --      1.6421                 1.0328                 2.0226
 Frc consts  --      0.0352                 0.0262                 0.0519
 IR Inten    --     31.7455                 1.5585                 6.5671

                      7                      8                      9
                      A                      A                      A
 Frequencies --    236.7811               245.4985               279.7127
 Red. masses --      1.1059                 1.0560                 2.3897
 Frc consts  --      0.0365                 0.0375                 0.1102
 IR Inten    --      0.2974                 0.4651                 0.7712

                     10                     11                     12
                      A                      A                      A
 Frequencies --    299.5139               325.9830               367.1734
 Red. masses --      2.5566                 2.7094                 2.5399
 Frc consts  --      0.1351                 0.1696                 0.2017
 IR Inten    --      0.7015                 1.0813                 3.6354

                     13                     14                     15
                      A                      A                      A
 Frequencies --    386.3982               391.9717               446.1116
 Red. masses --      2.9261                 2.8779                 3.0034
 Frc consts  --      0.2574                 0.2605                 0.3522
 IR Inten    --      8.2598                 5.7894                 2.7096

                     16                     17                     18
                      A                      A                      A
 Frequencies --    479.8702               525.5984               530.8321
 Red. masses --      3.2251                 3.0723                 2.9717
 Frc consts  --      0.4376                 0.5001                 0.4934
 IR Inten    --     13.6048                 7.0415                 0.8304

                     19                     20                     21
                      A                      A                      A
 Frequencies --    626.3726               702.8870               746.9335
 Red. masses --      2.9874                 2.8396                 4.4586
 Frc consts  --      0.6906                 0.8266                 1.4656
 IR Inten    --      5.1196                 6.0597                 4.6926

                     22                     23                     24
                      A                      A                      A
 Frequencies --    779.1586               852.6347               901.8444
 Red. masses --      2.9678                 2.4950                 2.6362
 Frc consts  --      1.0615                 1.0687                 1.2633
 IR Inten    --     12.6372                39.7447                24.2963

                     25                     26                     27
                      A                      A                      A
 Frequencies --    929.8043               936.0505               956.3040
 Red. masses --      1.5659                 1.4673                 1.9552
 Frc consts  --      0.7976                 0.7575                 1.0535
 IR Inten    --    166.3463                 0.1802                 5.6227

                     28                     29                     30
                      A                      A                      A
 Frequencies --    965.4383              1012.4091              1016.0588
 Red. masses --      1.9474                 1.6248                 1.4657
 Frc consts  --      1.0694                 0.9812                 0.8915
 IR Inten    --      2.7599                 9.7470                13.2183

                     31                     32                     33
                      A                      A                      A
 Frequencies --   1027.9130              1036.2706              1064.1941
 Red. masses --      1.5765                 1.6627                 3.6535
 Frc consts  --      0.9815                 1.0520                 2.4378
 IR Inten    --     13.2789                 6.0607                34.0436

                     34                     35                     36
                      A                      A                      A
 Frequencies --   1088.8588              1136.0019              1143.0489
 Red. masses --      2.0386                 2.3047                 3.3806
 Frc consts  --      1.4241                 1.7524                 2.6024
 IR Inten    --     24.4431                84.6432                90.1660

                     37                     38                     39
                      A                      A                      A
 Frequencies --   1186.0273              1201.3071              1253.9317
 Red. masses --      2.2536                 2.0301                 2.1950
 Frc consts  --      1.8677                 1.7261                 2.0334
 IR Inten    --      3.4899                24.6901                38.4418

                     40                     41                     42
                      A                      A                      A
 Frequencies --   1264.4873              1278.5709              1306.9840
 Red. masses --      2.6611                 1.7790                 1.4644
 Frc consts  --      2.5069                 1.7135                 1.4739
 IR Inten    --    191.1474                31.9617                 9.8210

                     43                     44                     45
                      A                      A                      A
 Frequencies --   1313.0639              1330.0791              1351.9146
 Red. masses --      1.2039                 1.2196                 1.4267
 Frc consts  --      1.2230                 1.2712                 1.5363
 IR Inten    --      0.5842                12.2033                 2.2260

                     46                     47                     48
                      A                      A                      A
 Frequencies --   1394.8035              1404.2055              1424.9921
 Red. masses --      1.4236                 1.2883                 1.2789
 Frc consts  --      1.6317                 1.4967                 1.5301
 IR Inten    --      4.1595                 9.2692                 5.7735

                     49                     50                     51
                      A                      A                      A
 Frequencies --   1428.8871              1435.6701              1441.2597
 Red. masses --      1.3630                 1.2649                 1.2797
 Frc consts  --      1.6396                 1.5361                 1.5662
 IR Inten    --     23.2812                 2.9081                14.2092

                     52                     53                     54
                      A                      A                      A
 Frequencies --   1449.3552              1506.0327              1506.6259
 Red. masses --      1.3509                 1.0474                 1.0543
 Frc consts  --      1.6719                 1.3997                 1.4100
 IR Inten    --     28.7945                 0.0463                 0.5304

                     55                     56                     57
                      A                      A                      A
 Frequencies --   1517.8757              1523.1996              1526.7158
 Red. masses --      1.0493                 1.0750                 1.0553
 Frc consts  --      1.4244                 1.4695                 1.4492
 IR Inten    --      1.8188                 1.2061                 4.0227

                     58                     59                     60
                      A                      A                      A
 Frequencies --   1531.8416              1537.6159              1541.0820
 Red. masses --      1.0541                 1.0746                 1.0755
 Frc consts  --      1.4573                 1.4969                 1.5049
 IR Inten    --      2.9555                 2.2805                 3.2177

                     61                     62                     63
                      A                      A                      A
 Frequencies --   1701.2324              3016.7312              3023.8980
 Red. masses --      1.0920                 1.0786                 1.0760
 Frc consts  --      1.8620                 5.7832                 5.7967
 IR Inten    --     24.4191                 5.2026                63.3800

                     64                     65                     66
                      A                      A                      A
 Frequencies --   3032.4508              3047.1371              3053.1442
 Red. masses --      1.0786                 1.0457                 1.0635
 Frc consts  --      5.8441                 5.7207                 5.8408
 IR Inten    --     14.1619                 4.9266                71.2033

                     67                     68                     69
                      A                      A                      A
 Frequencies --   3068.6500              3073.2900              3107.1496
 Red. masses --      1.0348                 1.0353                 1.0993
 Frc consts  --      5.7415                 5.7613                 6.2532
 IR Inten    --     24.3295                 5.3909                33.1743

                     70                     71                     72
                      A                      A                      A
 Frequencies --   3116.1181              3121.3010              3141.6108
 Red. masses --      1.0986                 1.0949                 1.1013
 Frc consts  --      6.2853                 6.2849                 6.4042
 IR Inten    --     35.6049                42.0654                22.6654

                     73                     74                     75
                      A                      A                      A
 Frequencies --   3142.0958              3143.7570              3148.1509
 Red. masses --      1.1028                 1.1028                 1.1033
 Frc consts  --      6.4151                 6.4218                 6.4426
 IR Inten    --     14.2335                17.7653                25.2899

                     76                     77                     78
                      A                      A                      A
 Frequencies --   3152.8156              3468.7549              3550.0462
 Red. masses --      1.1037                 1.0500                 1.0909
 Frc consts  --      6.4639                 7.4433                 8.1000
 IR Inten    --     30.9380                 1.9098                 1.6032

 - Thermochemistry -
 -------------------
 Temperature   298.150 Kelvin.  Pressure   1.00000 Atm.
 Atom     1 has atomic number  6 and mass  12.00000

 Molecular mass:   159.12593 amu.
 Principal axes and moments of inertia in atomic units:
                           1         2         3
     Eigenvalues --   830.005512568.105692628.49585
           X            0.99990   0.01325  -0.00507
           Y           -0.01244   0.99070   0.13549
           Z            0.00682  -0.13541   0.99077
 This molecule is an asymmetric top.
 Rotational symmetry number  1.
 Warning -- assumption of classical behavior for rotation
           may cause significant error
 Rotational temperatures (Kelvin)      0.10435     0.03373     0.03295
 Rotational constants (GHZ):           2.17437     0.70275     0.68661
 Zero-point vibrational energy     664316.5 (Joules/Mol)
                                  158.77545 (Kcal/Mol)
 Warning -- explicit consideration of  18 degrees of freedom as
           vibrations may cause significant error
 Vibrational temperatures:     44.10   101.55   222.00   274.62   298.35
          (Kelvin)            300.40   340.68   353.22   402.44   430.93
                              469.02   528.28   555.94   563.96   641.86
                              690.43   756.22   763.75   901.21  1011.30
                             1074.67  1121.04  1226.75  1297.55  1337.78
                             1346.77  1375.91  1389.05  1456.63  1461.88
                             1478.94  1490.96  1531.14  1566.62  1634.45
                             1644.59  1706.43  1728.41  1804.13  1819.32
                             1839.58  1880.46  1889.21  1913.69  1945.10
                             2006.81  2020.34  2050.25  2055.85  2065.61
                             2073.65  2085.30  2166.85  2167.70  2183.88
                             2191.54  2196.60  2203.98  2212.29  2217.27
                             2447.69  4340.40  4350.71  4363.02  4384.15
                             4392.79  4415.10  4421.78  4470.50  4483.40
                             4490.86  4520.08  4520.78  4523.17  4529.49
                             4536.20  4990.76  5107.72

 Zero-point correction=                           0.253025 (Hartree/Particle)
 Thermal correction to Energy=                    0.265151
 Thermal correction to Enthalpy=                  0.266096
 Thermal correction to Gibbs Free Energy=         0.215380
 Sum of electronic and zero-point Energies=           -520.062691
 Sum of electronic and thermal Energies=              -520.050564
 Sum of electronic and thermal Enthalpies=            -520.049620
 Sum of electronic and thermal Free Energies=         -520.100336

                     E (Thermal)             CV                S
                      KCal/Mol        Cal/Mol-Kelvin    Cal/Mol-Kelvin
 Total                  166.385             46.739            106.741
 Electronic               0.000              0.000              0.000
 Translational            0.889              2.981             41.103
 Rotational               0.889              2.981             30.106
 Vibrational            164.608             40.778             35.532
 Vibration     1          0.594              1.984              5.787
 Vibration     2          0.598              1.968              4.137
 Vibration     3          0.620              1.898              2.619
 Vibration     4          0.634              1.852              2.219
 Vibration     5          0.641              1.829              2.067
 Vibration     6          0.642              1.827              2.054
 Vibration     7          0.656              1.784              1.827
 Vibration     8          0.660              1.770              1.763
 Vibration     9          0.680              1.711              1.535
 Vibration    10          0.692              1.675              1.420
 Vibration    11          0.710              1.624              1.280
 Vibration    12          0.740              1.540              1.092
 Vibration    13          0.755              1.499              1.014
 Vibration    14          0.759              1.487              0.993
 Vibration    15          0.805              1.369              0.808
 Vibration    16          0.836              1.295              0.710
 Vibration    17          0.881              1.193              0.597
 Vibration    18          0.886              1.182              0.585

 Optimization completed.
    -- Stationary point found.
 Normal termination of Gaussian 16 at Tue Dec  8 21:40:52 2020.

 ----------------------------------------------------------------------
 # B3LYP/6-311++G(d,p) empiricaldispersion=gd3bj scf=xqc pop=npa geom=c
 heck
 ----------------------------------------------------------------------

 --------------------------------------
 CID_91307380_JID_1893_Energie_neutraal
 --------------------------------------
 Structure from the checkpoint file:  "JID_1893.chk"
 Charge =  0 Multiplicity = 1

 SCF Done:  E(RB3LYP) =  -520.473154122     A.U. after   13 cycles
 Normal termination of Gaussian 16 at Tue Dec  8 21:44:09 2020.

 ----------------------------------------------------------------------
 # B3LYP/6-311++G(d,p) empiricaldispersion=gd3bj scf=xqc pop=npa geom=c
 heck
 ----------------------------------------------------------------------

 ------------------------------------
 CID_91307380_JID_1893_Energie_kation
 ------------------------------------
 Structure from the checkpoint file:  "JID_1893.chk"
 Charge =  1 Multiplicity = 2

 SCF Done:  E(UB3LYP) =  -520.156521608     A.U. after   21 cycles
 Normal termination of Gaussian 16 at Tue Dec  8 21:51:09 2020.
 Gaussian 16:  ES64L-G16RevA.03 25-Dec-2016

 ----------------------------------------------------------------------
 # B3LYP/6-311++G(d,p) empiricaldispersion=gd3bj scf=xqc pop=npa geom=c
 heck
 ----------------------------------------------------------------------

 -----------------------------------
 CID_91307380_JID_1893_Energie_anion
 -----------------------------------
 Structure from the checkpoint file:  "JID_1893.chk"
 Charge = -1 Multiplicity = 2

                         Standard orientation:
 ---------------------------------------------------------------------
 Center     Atomic      Atomic             Coordinates (Angstroms)
 Number     Number       Type             X           Y           Z
 ---------------------------------------------------------------------
      1          6           0       -3.397431   -0.573748   -0.286250
      2          6           0       -2.259844    0.278062    0.282474
      3          6           0       -1.010446   -0.583055    0.613692
      4          6           0        0.007187    0.201198    1.467997
      5          8           0        1.339927   -0.232519    1.211490
      6          6           0        1.780372    0.043821   -0.116314
      7          8           0        0.701426   -0.103367   -1.045014
      8          6           0       -0.253741   -1.079097   -0.630417
      9          6           0        2.885394   -0.966992   -0.408029
     10          6           0        2.262222    1.485380   -0.256963
     11          7           0       -2.023828    1.412465   -0.621850
     12          1           0       -3.120379   -1.015451   -1.251679
     13          1           0       -4.281114    0.048380   -0.451084
     14          1           0       -3.658305   -1.392799    0.393304
     15          1           0       -2.612919    0.710667    1.230094
     16          1           0       -1.346899   -1.462039    1.179763
     17          1           0       -0.155192    0.040028    2.536288
     18          1           0       -0.084368    1.280550    1.280754
     19          1           0        0.237797   -2.037779   -0.422981
     20          1           0       -0.915841   -1.227897   -1.487776
     21          1           0        2.492389   -1.986147   -0.354622
     22          1           0        3.294046   -0.795489   -1.407683
     23          1           0        3.687638   -0.871492    0.329481
     24          1           0        2.565062    1.679408   -1.289979
     25          1           0        1.462498    2.186236   -0.001461
     26          1           0        3.113895    1.662384    0.405620
     27          1           0       -1.367651    2.065974   -0.198138
     28          1           0       -1.556955    1.081886   -1.465892
 ---------------------------------------------------------------------

 SCF Done:  E(UB3LYP) =  -520.456979711     A.U. after   27 cycles

 The electronic state is 2-A.
 Alpha  occ. eigenvalues --  -19.02357 -19.02327 -14.18414 -10.17417 -10.11185
 Alpha  occ. eigenvalues --  -10.11113 -10.09519 -10.06670 -10.05829 -10.05750
 Alpha  occ. eigenvalues --  -10.05339  -0.97460  -0.90040  -0.78477  -0.70384
 Alpha  occ. eigenvalues --   -0.65271  -0.61419  -0.60375  -0.57533  -0.52876
 Alpha  occ. eigenvalues --   -0.48017  -0.42971  -0.41980  -0.40109  -0.39445
 Alpha  occ. eigenvalues --   -0.37522  -0.35344  -0.33595  -0.32523  -0.30925
 Alpha  occ. eigenvalues --   -0.29750  -0.28709  -0.28426  -0.28327  -0.27353
 Alpha  occ. eigenvalues --   -0.26958  -0.26632  -0.26103  -0.24324  -0.23328
 Alpha  occ. eigenvalues --   -0.19768  -0.18053  -0.15005  -0.13514   0.04735
 Alpha virt. eigenvalues --    0.07071   0.07601   0.08164   0.09404   0.09688
 Alpha virt. eigenvalues --    0.10007   0.10259   0.11249   0.11760   0.11966
 Alpha virt. eigenvalues --    0.13106   0.13571   0.13836   0.14832   0.15040

  Beta  occ. eigenvalues --  -19.02351 -19.02322 -14.18392 -10.17416 -10.11160
  Beta  occ. eigenvalues --  -10.11086 -10.09506 -10.06657 -10.05795 -10.05720
  Beta  occ. eigenvalues --  -10.05309  -0.97452  -0.90031  -0.78432  -0.70350
  Beta  occ. eigenvalues --   -0.65227  -0.61368  -0.60323  -0.57472  -0.52823
  Beta  occ. eigenvalues --   -0.47967  -0.42916  -0.41933  -0.40063  -0.39397
  Beta  occ. eigenvalues --   -0.37477  -0.35301  -0.33554  -0.32490  -0.30892
  Beta  occ. eigenvalues --   -0.29719  -0.28677  -0.28390  -0.28290  -0.27318
  Beta  occ. eigenvalues --   -0.26917  -0.26589  -0.26068  -0.24292  -0.23283
  Beta  occ. eigenvalues --   -0.19745  -0.18027  -0.14983  -0.13490
  Beta virt. eigenvalues --    0.06978   0.07925   0.08443   0.08830   0.09926
  Beta virt. eigenvalues --    0.10176   0.10559   0.10897   0.11611   0.12254
  Beta virt. eigenvalues --    0.12396   0.13497   0.13846   0.14184   0.15196

 Mulliken charges and spin densities:
               1          2
     1  C    1.152786  -1.727262
     2  C   -0.994841   0.523663
     3  C   -0.992150   1.548866
     4  C    0.849223  -1.219653
     5  O   -0.006191   0.019437
     6  C   -2.209623   1.197917
     7  O    0.011309   0.033708
     8  C    1.909558  -2.371121
     9  C    0.941589  -1.162682
    10  C    0.872339  -0.968496
    11  N   -0.123268  -0.095868
    12  H   -0.077144   0.194306
    13  H   -0.049163   0.202452
    14  H   -0.337779   0.472812
    15  H   -0.377982   0.555742
    16  H   -0.389635   0.615777
    17  H   -0.443774   0.628380
    18  H   -0.042691   0.155007
    19  H   -0.029521   0.173822
    20  H    0.000474   0.178330
    21  H   -0.347707   0.486631
    22  H   -0.030041   0.190825
    23  H   -0.079570   0.231184
    24  H   -0.101674   0.255284
    25  H   -0.216175   0.351345
    26  H   -0.091634   0.257611
    27  H    0.107896   0.127766
    28  H    0.095386   0.144217
 Sum of Mulliken charges =  -1.00000   1.00000

 Dipole moment (field-independent basis, Debye):
    X=              1.6062    Y=              0.7484    Z=             -1.8453  Tot=              2.5583
 Quadrupole moment (field-independent basis, Debye-Ang):
   XX=           -129.3673   YY=           -110.1571   ZZ=           -107.0524
   XY=             -0.5779   XZ=              3.6350   YZ=              2.2405

 Summary of Natural Population Analysis:

                                       Natural Population
                Natural  -----------------------------------------------
    Atom  No    Charge         Core      Valence    Rydberg      Total
 -----------------------------------------------------------------------
      C    1   -0.28670      0.99964     2.28024    0.00682     3.28670
      C    2   -0.01232      0.99960     2.00014    0.01258     3.01232
      C    3   -0.14010      0.99957     2.12828    0.01225     3.14010
      C    4   -0.00729      0.99954     1.99386    0.01390     3.00729
      O    5   -0.31250      0.99987     3.30293    0.00970     4.31250
      C    6    0.29473      0.99956     1.68424    0.02147     2.70527
      O    7   -0.31912      0.99987     3.30906    0.01019     4.31912
      C    8   -0.01532      0.99954     2.00152    0.01427     3.01532
      C    9   -0.29827      0.99958     2.29254    0.00615     3.29827
      C   10   -0.30085      0.99958     2.29450    0.00676     3.30085
      N   11   -0.42284      0.99977     2.91340    0.00967     3.92284
      H   12    0.09384      0.00000     0.40498    0.00119     0.40616
      H   13    0.10319      0.00000     0.39579    0.00102     0.39681
      H   14    0.10115      0.00000     0.39742    0.00143     0.39885
      H   15    0.09078      0.00000     0.40717    0.00205     0.40922
      H   16    0.10391      0.00000     0.39366    0.00242     0.39609
      H   17    0.09705      0.00000     0.40127    0.00168     0.40295
      H   18    0.07786      0.00000     0.41999    0.00216     0.42214
      H   19    0.08918      0.00000     0.40914    0.00167     0.41082
      H   20    0.09290      0.00000     0.40558    0.00153     0.40710
      H   21    0.10533      0.00000     0.39341    0.00126     0.39467
      H   22    0.10161      0.00000     0.39720    0.00119     0.39839
      H   23    0.10398      0.00000     0.39482    0.00119     0.39602
      H   24    0.10435      0.00000     0.39449    0.00115     0.39565
      H   25    0.10372      0.00000     0.39487    0.00141     0.39628
      H   26    0.10254      0.00000     0.39638    0.00108     0.39746
      H   27    0.17478      0.00000     0.32282    0.00240     0.32522
      H   28    0.17441      0.00000     0.32326    0.00233     0.32559
 =======================================================================
   * Total *   -0.00000     10.99613    32.85296    0.15092    44.00000

 Normal termination of Gaussian 16 at Tue Dec  8 21:59:04 2020.
