 Gaussian 16, Revision A.03,

 -----------------------------------------------------------
 # opt freq B3LYP/6-31G(d) empiricaldispersion=gd3bj scf=xqc
 -----------------------------------------------------------

 ------------------------------
 CID_12143381_JID_6779_neutraal
 ------------------------------
 Symbolic Z-matrix:
 Charge =  0 Multiplicity = 1

 SCF Done:  E(RB3LYP) =  -676.171841457     A.U. after   14 cycles
 SCF Done:  E(RB3LYP) =  -676.174942217     A.U. after   12 cycles
 SCF Done:  E(RB3LYP) =  -676.174488581     A.U. after   12 cycles
 SCF Done:  E(RB3LYP) =  -676.176640950     A.U. after   11 cycles
 SCF Done:  E(RB3LYP) =  -676.177293504     A.U. after   11 cycles
 SCF Done:  E(RB3LYP) =  -676.177702313     A.U. after   12 cycles
 SCF Done:  E(RB3LYP) =  -676.177820965     A.U. after   11 cycles
 SCF Done:  E(RB3LYP) =  -676.177883723     A.U. after   11 cycles
 SCF Done:  E(RB3LYP) =  -676.177891203     A.U. after    9 cycles
 SCF Done:  E(RB3LYP) =  -676.177896767     A.U. after   10 cycles
 SCF Done:  E(RB3LYP) =  -676.177903151     A.U. after   10 cycles
 SCF Done:  E(RB3LYP) =  -676.177906508     A.U. after    9 cycles
 SCF Done:  E(RB3LYP) =  -676.177907472     A.U. after    8 cycles
 SCF Done:  E(RB3LYP) =  -676.177907638     A.U. after    7 cycles
 SCF Done:  E(RB3LYP) =  -676.177907652     A.U. after    6 cycles
 Optimization completed.
    -- Stationary point found.
 Normal termination of Gaussian 16 at Thu Dec 10 23:50:37 2020.

 --------------------------------------------------------------------
 #N Geom=AllCheck Guess=TCheck SCRF=Check GenChk RB3LYP/6-31G(d) Freq
 --------------------------------------------------------------------

 Structure from the checkpoint file:  "JID_6779.chk"
 ------------------------------
 CID_12143381_JID_6779_neutraal
 ------------------------------
 Charge =  0 Multiplicity = 1

 SCF Done:  E(RB3LYP) =  -676.177907652     A.U. after    1 cycles

  Exact polarizability: 195.982  14.587 123.530   5.282  -8.960 139.897
 Approx polarizability: 268.767  30.333 180.336   9.867 -22.373 230.695

                      1                      2                      3
                      A                      A                      A
 Frequencies --     20.6671                38.0690                44.1104
 Red. masses --      3.3443                 3.6178                 3.7285
 Frc consts  --      0.0008                 0.0031                 0.0043
 IR Inten    --      0.5548                 0.7419                 0.6147

                      4                      5                      6
                      A                      A                      A
 Frequencies --     83.5926               116.1253               151.4599
 Red. masses --      3.7251                 3.9909                 3.0858
 Frc consts  --      0.0153                 0.0317                 0.0417
 IR Inten    --      3.2795                 0.3123                 0.4805

                      7                      8                      9
                      A                      A                      A
 Frequencies --    184.7038               224.9252               233.3688
 Red. masses --      3.1605                 2.2235                 3.1420
 Frc consts  --      0.0635                 0.0663                 0.1008
 IR Inten    --      0.2368                 1.8723                 0.1918

                     10                     11                     12
                      A                      A                      A
 Frequencies --    258.2233               309.7382               314.5698
 Red. masses --      1.2859                 2.5681                 2.8152
 Frc consts  --      0.0505                 0.1452                 0.1641
 IR Inten    --      5.5854                 9.4926                 3.2944

                     13                     14                     15
                      A                      A                      A
 Frequencies --    346.0171               375.9678               385.6518
 Red. masses --      2.0304                 1.2799                 2.3049
 Frc consts  --      0.1432                 0.1066                 0.2020
 IR Inten    --     29.8661               125.9746                 0.2907

                     16                     17                     18
                      A                      A                      A
 Frequencies --    424.3288               426.4326               436.9612
 Red. masses --      2.8982                 3.0926                 3.3256
 Frc consts  --      0.3075                 0.3313                 0.3741
 IR Inten    --      3.4915                 4.4858                 1.3324

                     19                     20                     21
                      A                      A                      A
 Frequencies --    456.1729               476.1908               504.2172
 Red. masses --      2.8297                 2.4191                 2.0186
 Frc consts  --      0.3469                 0.3232                 0.3024
 IR Inten    --      7.8886                 9.9429                14.9522

                     22                     23                     24
                      A                      A                      A
 Frequencies --    560.5380               587.3954               655.0107
 Red. masses --      3.5467                 2.6898                 6.3246
 Frc consts  --      0.6566                 0.5468                 1.5988
 IR Inten    --     11.3507                10.8916                 0.8411

                     25                     26                     27
                      A                      A                      A
 Frequencies --    689.8512               708.0397               749.3177
 Red. masses --      2.8861                 2.6614                 3.3271
 Frc consts  --      0.8092                 0.7861                 1.1006
 IR Inten    --     13.2594                 9.5325                11.6077

                     28                     29                     30
                      A                      A                      A
 Frequencies --    779.0927               786.6074               798.0452
 Red. masses --      2.8977                 1.5537                 2.2397
 Frc consts  --      1.0363                 0.5664                 0.8404
 IR Inten    --     11.5907                 0.6710                37.5992

                     31                     32                     33
                      A                      A                      A
 Frequencies --    836.0745               847.2812               858.1399
 Red. masses --      1.6351                 1.7091                 2.2647
 Frc consts  --      0.6734                 0.7229                 0.9826
 IR Inten    --     40.6872                 3.6692                 4.7406

                     34                     35                     36
                      A                      A                      A
 Frequencies --    865.3149               874.5497               910.2982
 Red. masses --      1.8327                 2.1738                 1.7826
 Frc consts  --      0.8085                 0.9796                 0.8703
 IR Inten    --     11.1768                 1.8700                 5.9286

                     37                     38                     39
                      A                      A                      A
 Frequencies --    929.0167               945.0556               952.4900
 Red. masses --      2.2208                 1.3139                 1.3950
 Frc consts  --      1.1293                 0.6914                 0.7456
 IR Inten    --     10.6393                 0.9235                 2.5865

                     40                     41                     42
                      A                      A                      A
 Frequencies --    975.4072              1001.6999              1018.3824
 Red. masses --      1.2995                 2.6454                 2.1495
 Frc consts  --      0.7284                 1.5639                 1.3135
 IR Inten    --      0.5626                 5.3120                44.0727

                     43                     44                     45
                      A                      A                      A
 Frequencies --   1037.9787              1044.6215              1056.2128
 Red. masses --      2.5365                 2.2803                 1.7865
 Frc consts  --      1.6101                 1.4661                 1.1743
 IR Inten    --      8.0366                 2.8095                 6.3381

                     46                     47                     48
                      A                      A                      A
 Frequencies --   1068.4702              1086.0387              1109.7124
 Red. masses --      1.8786                 1.6929                 1.8038
 Frc consts  --      1.2636                 1.1764                 1.3087
 IR Inten    --      5.6935                33.0482                 0.4005

                     49                     50                     51
                      A                      A                      A
 Frequencies --   1130.7702              1147.5339              1152.4060
 Red. masses --      1.9507                 1.0344                 1.5073
 Frc consts  --      1.4696                 0.8025                 1.1794
 IR Inten    --     42.4398                 0.5253                 6.4132

                     52                     53                     54
                      A                      A                      A
 Frequencies --   1170.3712              1184.2684              1208.5232
 Red. masses --      1.6668                 1.9332                 1.1590
 Frc consts  --      1.3452                 1.5975                 0.9973
 IR Inten    --      4.3091                16.3004                16.1359

                     55                     56                     57
                      A                      A                      A
 Frequencies --   1235.9522              1284.9780              1293.7018
 Red. masses --      2.1498                 2.0428                 1.6472
 Frc consts  --      1.9349                 1.9874                 1.6243
 IR Inten    --      1.2901                69.9132                42.4291

                     58                     59                     60
                      A                      A                      A
 Frequencies --   1297.3875              1305.8546              1316.2495
 Red. masses --      1.2860                 1.2661                 1.7460
 Frc consts  --      1.2754                 1.2721                 1.7823
 IR Inten    --     20.6186                 4.6232                28.6371

                     61                     62                     63
                      A                      A                      A
 Frequencies --   1324.0449              1332.0570              1359.5913
 Red. masses --      1.5075                 1.6262                 1.5160
 Frc consts  --      1.5571                 1.7001                 1.6511
 IR Inten    --     62.6764                30.7105                 3.3473

                     64                     65                     66
                      A                      A                      A
 Frequencies --   1373.8708              1395.5617              1400.1519
 Red. masses --      1.3367                 1.3496                 1.6633
 Frc consts  --      1.4865                 1.5486                 1.9212
 IR Inten    --      0.5770                 1.4386                 8.0597

                     67                     68                     69
                      A                      A                      A
 Frequencies --   1404.6079              1408.4327              1412.3570
 Red. masses --      1.4214                 1.4473                 1.3892
 Frc consts  --      1.6523                 1.6915                 1.6327
 IR Inten    --      0.5813                 1.2783                46.2473

                     70                     71                     72
                      A                      A                      A
 Frequencies --   1413.8100              1424.5046              1439.2385
 Red. masses --      1.3825                 1.3883                 1.3996
 Frc consts  --      1.6281                 1.6598                 1.7082
 IR Inten    --      8.8428                 9.6865                17.6361

                     73                     74                     75
                      A                      A                      A
 Frequencies --   1466.0678              1507.4341              1512.1052
 Red. masses --      2.2149                 1.0939                 1.0999
 Frc consts  --      2.8049                 1.4646                 1.4817
 IR Inten    --      2.5790                 5.5952                 8.6961

                     76                     77                     78
                      A                      A                      A
 Frequencies --   1514.7709              1522.3436              1524.4945
 Red. masses --      1.0515                 1.0939                 1.0676
 Frc consts  --      1.4215                 1.4936                 1.4618
 IR Inten    --      3.7604                 8.6484                 5.0867

                     79                     80                     81
                      A                      A                      A
 Frequencies --   1524.8090              1538.4204              1548.8627
 Red. masses --      1.0815                 1.1295                 1.4279
 Frc consts  --      1.4815                 1.5750                 2.0182
 IR Inten    --      6.1737                 6.0692                 9.4190

                     82                     83                     84
                      A                      A                      A
 Frequencies --   1562.9978              1638.4252              1673.4376
 Red. masses --      2.5700                 4.2635                 5.8384
 Frc consts  --      3.6991                 6.7433                 9.6330
 IR Inten    --     67.1651                 6.3142                43.9111

                     85                     86                     87
                      A                      A                      A
 Frequencies --   2977.9255              3013.1756              3017.8855
 Red. masses --      1.0839                 1.0647                 1.0677
 Frc consts  --      5.6631                 5.6954                 5.7293
 IR Inten    --     61.1833                13.5286                37.8294

                     88                     89                     90
                      A                      A                      A
 Frequencies --   3027.6717              3042.6954              3044.9820
 Red. masses --      1.0751                 1.0734                 1.0740
 Frc consts  --      5.8065                 5.8552                 5.8670
 IR Inten    --     16.7212                64.3800                52.9350

                     91                     92                     93
                      A                      A                      A
 Frequencies --   3052.7612              3056.0326              3058.7770
 Red. masses --      1.0696                 1.0920                 1.0340
 Frc consts  --      5.8730                 6.0090                 5.7001
 IR Inten    --     47.4553                61.6219                18.0016

                     94                     95                     96
                      A                      A                      A
 Frequencies --   3073.8438              3089.2432              3090.4013
 Red. masses --      1.0937                 1.0949                 1.1024
 Frc consts  --      6.0886                 6.1562                 6.2034
 IR Inten    --     43.5472                37.5591                38.4390

                     97                     98                     99
                      A                      A                      A
 Frequencies --   3114.8465              3134.5210              3137.0841
 Red. masses --      1.0954                 1.1036                 1.1031
 Frc consts  --      6.2617                 6.3887                 6.3960
 IR Inten    --     44.9899                34.6493                22.0340

                    100                    101                    102
                      A                      A                      A
 Frequencies --   3164.9245              3182.5470              3198.8843
 Red. masses --      1.0864                 1.0941                 1.0877
 Frc consts  --      6.4114                 6.5292                 6.5580
 IR Inten    --     18.1593                22.9569                 4.4408

                    103                    104                    105
                      A                      A                      A
 Frequencies --   3221.7604              3510.3712              3734.7208
 Red. masses --      1.0928                 1.0734                 1.0660
 Frc consts  --      6.6831                 7.7933                 8.7601
 IR Inten    --     12.0032                 0.5977                 9.7797

 - Thermochemistry -
 -------------------
 Temperature   298.150 Kelvin.  Pressure   1.00000 Atm.
 Atom     1 has atomic number  6 and mass  12.00000

 Molecular mass:   219.16231 amu.
 Principal axes and moments of inertia in atomic units:
                           1         2         3
     Eigenvalues --  1759.831796371.221156662.85638
           X            0.99999   0.00200   0.00419
           Y           -0.00192   0.99983  -0.01819
           Z           -0.00423   0.01818   0.99983
 This molecule is an asymmetric top.
 Rotational symmetry number  1.
 Warning -- assumption of classical behavior for rotation
           may cause significant error
 Rotational temperatures (Kelvin)      0.04922     0.01359     0.01300
 Rotational constants (GHZ):           1.02552     0.28326     0.27087
 Zero-point vibrational energy     869909.9 (Joules/Mol)
                                  207.91346 (Kcal/Mol)
 Warning -- explicit consideration of  23 degrees of freedom as
           vibrations may cause significant error
 Vibrational temperatures:     29.74    54.77    63.46   120.27   167.08
          (Kelvin)            217.92   265.75   323.62   335.77   371.53
                              445.64   452.60   497.84   540.93   554.87
                              610.51   613.54   628.69   656.33   685.13
                              725.46   806.49   845.13   942.41   992.54
                             1018.71  1078.10  1120.94  1131.75  1148.21
                             1202.92  1219.05  1234.67  1245.00  1258.28
                             1309.72  1336.65  1359.72  1370.42  1403.39
                             1441.22  1465.23  1493.42  1502.98  1519.65
                             1537.29  1562.57  1596.63  1626.93  1651.05
                             1658.06  1683.90  1703.90  1738.80  1778.26
                             1848.80  1861.35  1866.65  1878.83  1893.79
                             1905.01  1916.53  1956.15  1976.69  2007.90
                             2014.51  2020.92  2026.42  2032.07  2034.16
                             2049.54  2070.74  2109.34  2168.86  2175.58
                             2179.42  2190.31  2193.41  2193.86  2213.44
                             2228.47  2248.81  2357.33  2407.70  4284.57
                             4335.29  4342.06  4356.14  4377.76  4381.05
                             4392.24  4396.95  4400.90  4422.58  4444.73
                             4446.40  4481.57  4509.88  4513.56  4553.62
                             4578.98  4602.48  4635.39  5050.64  5373.43

 Zero-point correction=                           0.331331 (Hartree/Particle)
 Thermal correction to Energy=                    0.346545
 Thermal correction to Enthalpy=                  0.347489
 Thermal correction to Gibbs Free Energy=         0.287868
 Sum of electronic and zero-point Energies=           -675.846576
 Sum of electronic and thermal Energies=              -675.831363
 Sum of electronic and thermal Enthalpies=            -675.830419
 Sum of electronic and thermal Free Energies=         -675.890039

                     E (Thermal)             CV                S
                      KCal/Mol        Cal/Mol-Kelvin    Cal/Mol-Kelvin
 Total                  217.460             60.466            125.482
 Electronic               0.000              0.000              0.000
 Translational            0.889              2.981             42.057
 Rotational               0.889              2.981             32.680
 Vibrational            215.683             54.505             50.746
 Vibration     1          0.593              1.986              6.569
 Vibration     2          0.594              1.982              5.357
 Vibration     3          0.595              1.980              5.065
 Vibration     4          0.600              1.960              3.805
 Vibration     5          0.608              1.936              3.164
 Vibration     6          0.619              1.901              2.654
 Vibration     7          0.631              1.861              2.280
 Vibration     8          0.650              1.803              1.919
 Vibration     9          0.654              1.790              1.853
 Vibration    10          0.667              1.749              1.674
 Vibration    11          0.699              1.655              1.364
 Vibration    12          0.702              1.646              1.338
 Vibration    13          0.724              1.583              1.184
 Vibration    14          0.747              1.521              1.055
 Vibration    15          0.754              1.501              1.017
 Vibration    16          0.786              1.417              0.877
 Vibration    17          0.788              1.413              0.870
 Vibration    18          0.797              1.390              0.836
 Vibration    19          0.814              1.347              0.777
 Vibration    20          0.833              1.303              0.720
 Vibration    21          0.859              1.241              0.648
 Vibration    22          0.916              1.117              0.523
 Vibration    23          0.945              1.059              0.472

 Optimization completed.
    -- Stationary point found.
 Normal termination of Gaussian 16 at Fri Dec 11 00:03:21 2020.

 ----------------------------------------------------------------------
 # B3LYP/6-311++G(d,p) empiricaldispersion=gd3bj scf=xqc pop=npa geom=c
 heck
 ----------------------------------------------------------------------

 --------------------------------------
 CID_12143381_JID_6779_Energie_neutraal
 --------------------------------------
 Structure from the checkpoint file:  "JID_6779.chk"
 Charge =  0 Multiplicity = 1

 SCF Done:  E(RB3LYP) =  -676.370545865     A.U. after   14 cycles
 Normal termination of Gaussian 16 at Fri Dec 11 00:08:43 2020.

 ----------------------------------------------------------------------
 # B3LYP/6-311++G(d,p) empiricaldispersion=gd3bj scf=xqc pop=npa geom=c
 heck
 ----------------------------------------------------------------------

 ------------------------------------
 CID_12143381_JID_6779_Energie_kation
 ------------------------------------
 Structure from the checkpoint file:  "JID_6779.chk"
 Charge =  1 Multiplicity = 2

 SCF Done:  E(UB3LYP) =  -676.097582450     A.U. after   22 cycles
 Normal termination of Gaussian 16 at Fri Dec 11 00:20:01 2020.
 Gaussian 16:  ES64L-G16RevA.03 25-Dec-2016

 ----------------------------------------------------------------------
 # B3LYP/6-311++G(d,p) empiricaldispersion=gd3bj scf=xqc pop=npa geom=c
 heck
 ----------------------------------------------------------------------

 -----------------------------------
 CID_12143381_JID_6779_Energie_anion
 -----------------------------------
 Structure from the checkpoint file:  "JID_6779.chk"
 Charge = -1 Multiplicity = 2

                         Standard orientation:
 ---------------------------------------------------------------------
 Center     Atomic      Atomic             Coordinates (Angstroms)
 Number     Number       Type             X           Y           Z
 ---------------------------------------------------------------------
      1          6           0        3.776882    1.689897    0.641119
      2          6           0        3.756677    0.195593    0.327008
      3          6           0        2.344599   -0.332040    0.163643
      4          6           0        1.657107   -0.167331   -1.045883
      5          6           0        0.352502   -0.623113   -1.199439
      6          6           0       -0.331192   -1.221804   -0.127324
      7          6           0        0.365846   -1.400251    1.078273
      8          6           0        1.684989   -0.972844    1.214693
      9          7           0       -1.640318   -1.729281   -0.289397
     10          6           0       -2.855896   -0.883152   -0.387744
     11          6           0       -3.322793   -0.324755    0.976387
     12          6           0       -2.550591    0.920642    1.427895
     13          6           0       -2.657183    2.026112    0.371025
     14          6           0       -2.108943    1.541778   -0.976453
     15          6           0       -2.789864    0.241563   -1.437919
     16          8           0        4.530748    0.030375   -0.863689
     17          1           0        3.287563    2.247101   -0.164332
     18          1           0        4.809406    2.041932    0.733745
     19          1           0        3.245316    1.890994    1.576490
     20          1           0        4.234426   -0.343809    1.161979
     21          1           0        2.172222    0.295907   -1.882396
     22          1           0       -0.144189   -0.536482   -2.159333
     23          1           0       -0.137795   -1.878069    1.915950
     24          1           0        2.203149   -1.128983    2.158648
     25          1           0       -1.817064   -2.425073    0.430458
     26          1           0       -3.626184   -1.586433   -0.729388
     27          1           0       -4.388811   -0.066011    0.890538
     28          1           0       -3.259430   -1.119313    1.732549
     29          1           0       -1.495126    0.669177    1.588653
     30          1           0       -2.944083    1.270558    2.390476
     31          1           0       -2.115863    2.922787    0.696369
     32          1           0       -3.712687    2.316945    0.259692
     33          1           0       -1.028913    1.394301   -0.884707
     34          1           0       -2.256108    2.310623   -1.745528
     35          1           0       -2.329919   -0.139954   -2.356084
     36          1           0       -3.831281    0.480404   -1.693882
     37          1           0        4.438773   -0.896394   -1.136277
 ---------------------------------------------------------------------

 SCF Done:  E(UB3LYP) =  -676.358845716     A.U. after   32 cycles

 The electronic state is 2-A.
 Alpha  occ. eigenvalues --  -19.03775 -14.20877 -10.13789 -10.11080 -10.10343
 Alpha  occ. eigenvalues --  -10.07997 -10.07943 -10.07850 -10.07379 -10.07367
 Alpha  occ. eigenvalues --  -10.07339 -10.06800 -10.06461 -10.06333 -10.06194
 Alpha  occ. eigenvalues --  -10.06116  -0.93984  -0.82567  -0.75588  -0.72163
 Alpha  occ. eigenvalues --   -0.68172  -0.65346  -0.64477  -0.64236  -0.61241
 Alpha  occ. eigenvalues --   -0.54003  -0.52082  -0.51238  -0.50513  -0.48375
 Alpha  occ. eigenvalues --   -0.44897  -0.43491  -0.42335  -0.39450  -0.37617
 Alpha  occ. eigenvalues --   -0.36633  -0.35683  -0.34692  -0.34130  -0.33650
 Alpha  occ. eigenvalues --   -0.33074  -0.32394  -0.31164  -0.29837  -0.29286
 Alpha  occ. eigenvalues --   -0.28157  -0.28025  -0.27852  -0.27024  -0.26739
 Alpha  occ. eigenvalues --   -0.24953  -0.24420  -0.23996  -0.22170  -0.21403
 Alpha  occ. eigenvalues --   -0.20396  -0.19788  -0.17302  -0.16032  -0.11053
 Alpha  occ. eigenvalues --    0.04114
 Alpha virt. eigenvalues --    0.05906   0.06792   0.07294   0.07721   0.07810
 Alpha virt. eigenvalues --    0.08037   0.08292   0.08606   0.09569   0.09733
 Alpha virt. eigenvalues --    0.10409   0.10623   0.11229   0.11799   0.12427

  Beta  occ. eigenvalues --  -19.03767 -14.20863 -10.13781 -10.11066 -10.10331
  Beta  occ. eigenvalues --  -10.07986 -10.07932 -10.07844 -10.07371 -10.07350
  Beta  occ. eigenvalues --  -10.07325 -10.06782 -10.06448 -10.06327 -10.06166
  Beta  occ. eigenvalues --  -10.06105  -0.93968  -0.82525  -0.75561  -0.72134
  Beta  occ. eigenvalues --   -0.68141  -0.65318  -0.64443  -0.64202  -0.61205
  Beta  occ. eigenvalues --   -0.53968  -0.52045  -0.51193  -0.50476  -0.48338
  Beta  occ. eigenvalues --   -0.44852  -0.43463  -0.42286  -0.39400  -0.37574
  Beta  occ. eigenvalues --   -0.36592  -0.35654  -0.34661  -0.34104  -0.33621
  Beta  occ. eigenvalues --   -0.33050  -0.32365  -0.31138  -0.29816  -0.29255
  Beta  occ. eigenvalues --   -0.28122  -0.27988  -0.27822  -0.26991  -0.26707
  Beta  occ. eigenvalues --   -0.24928  -0.24391  -0.23974  -0.22140  -0.21373
  Beta  occ. eigenvalues --   -0.20356  -0.19763  -0.17257  -0.16005  -0.11007
  Beta virt. eigenvalues --    0.06076   0.06656   0.07430   0.07615   0.07839
  Beta virt. eigenvalues --    0.07902   0.08518   0.08765   0.08889   0.09946
  Beta virt. eigenvalues --    0.10136   0.10760   0.10991   0.11431   0.12074

 Mulliken charges and spin densities:
               1          2
     1  C   -0.025492  -0.602185
     2  C    1.467699  -1.655657
     3  C    0.299801   0.326506
     4  C   -1.390650   0.983085
     5  C   -0.486894   0.071504
     6  C    2.541423  -2.488000
     7  C    0.282081  -0.418635
     8  C   -1.492289   1.007245
     9  N   -0.070253   0.067794
    10  C   -0.876725   1.053766
    11  C    0.675456  -1.304834
    12  C   -0.419215   0.292210
    13  C    0.027847  -0.574722
    14  C   -0.354271   0.218478
    15  C    0.856986  -1.327997
    16  O   -0.207666  -0.003086
    17  H    0.080567   0.082656
    18  H    0.080975   0.055972
    19  H   -0.029221   0.178156
    20  H   -0.123828   0.309253
    21  H    0.045618   0.134788
    22  H   -0.109766   0.256288
    23  H   -0.632507   0.806602
    24  H   -0.580735   0.749423
    25  H   -0.032294   0.268008
    26  H   -0.592192   0.831758
    27  H   -0.133001   0.270887
    28  H   -0.221682   0.376561
    29  H    0.473133  -0.343500
    30  H   -0.229647   0.414876
    31  H   -0.116770   0.271870
    32  H   -0.036932   0.156042
    33  H    0.228777  -0.094078
    34  H    0.029520   0.139351
    35  H    0.162175  -0.004741
    36  H   -0.247954   0.401788
    37  H    0.157924   0.092568
 Sum of Mulliken charges =  -1.00000   1.00000

 Dipole moment (field-independent basis, Debye):
    X=              3.3736    Y=              2.2613    Z=             -2.5250  Tot=              4.7823
 Quadrupole moment (field-independent basis, Debye-Ang):
   XX=           -186.2221   YY=           -141.2653   ZZ=           -139.6185
   XY=             -5.6919   XZ=             -1.0633   YZ=              3.9854

 Summary of Natural Population Analysis:

                                       Natural Population
                Natural  -----------------------------------------------
    Atom  No    Charge         Core      Valence    Rydberg      Total
 -----------------------------------------------------------------------
      C    1   -0.28570      0.99964     2.28103    0.00503     3.28570
      C    2    0.05827      0.99953     1.92781    0.01439     2.94173
      C    3   -0.04835      0.99948     2.03679    0.01208     3.04835
      C    4   -0.09847      0.99950     2.09033    0.00864     3.09847
      C    5   -0.11182      0.99951     2.10329    0.00902     3.11182
      C    6    0.08521      0.99946     1.90251    0.01282     2.91479
      C    7   -0.11441      0.99951     2.10440    0.01050     3.11441
      C    8   -0.09384      0.99951     2.08390    0.01043     3.09384
      N    9   -0.32953      0.99969     2.81685    0.01299     3.82953
      C   10   -0.00298      0.99956     1.98905    0.01437     3.00298
      C   11   -0.19464      0.99960     2.18551    0.00953     3.19464
      C   12   -0.19492      0.99962     2.18710    0.00819     3.19492
      C   13   -0.18721      0.99963     2.18012    0.00746     3.18721
      C   14   -0.19478      0.99962     2.18733    0.00783     3.19478
      C   15   -0.19542      0.99961     2.18694    0.00888     3.19542
      O   16   -0.37227      0.99990     3.36612    0.00625     4.37227
      H   17    0.10064      0.00000     0.39837    0.00100     0.39936
      H   18    0.09958      0.00000     0.39945    0.00097     0.40042
      H   19    0.10238      0.00000     0.39660    0.00101     0.39762
      H   20    0.07891      0.00000     0.41871    0.00237     0.42109
      H   21    0.10472      0.00000     0.39416    0.00112     0.39528
      H   22    0.10377      0.00000     0.39480    0.00143     0.39623
      H   23    0.10335      0.00000     0.39490    0.00174     0.39665
      H   24    0.10139      0.00000     0.39705    0.00156     0.39861
      H   25    0.18028      0.00000     0.31603    0.00369     0.31972
      H   26    0.09769      0.00000     0.40048    0.00183     0.40231
      H   27    0.09686      0.00000     0.40150    0.00163     0.40314
      H   28    0.10000      0.00000     0.39809    0.00191     0.40000
      H   29    0.09876      0.00000     0.39908    0.00216     0.40124
      H   30    0.09773      0.00000     0.40128    0.00100     0.40227
      H   31    0.09698      0.00000     0.40215    0.00086     0.40302
      H   32    0.09086      0.00000     0.40788    0.00125     0.40914
      H   33    0.10046      0.00000     0.39759    0.00194     0.39954
      H   34    0.09544      0.00000     0.40369    0.00087     0.40456
      H   35    0.10096      0.00000     0.39778    0.00127     0.39904
      H   36    0.10062      0.00000     0.39812    0.00126     0.39938
      H   37    0.22947      0.00000     0.26787    0.00266     0.27053
 =======================================================================
   * Total *   -0.00000     15.99338    43.81466    0.19195    60.00000

 Normal termination of Gaussian 16 at Fri Dec 11 00:36:40 2020.
