 Gaussian 16, Revision A.03,

 -----------------------------------------------------------
 # opt freq B3LYP/6-31G(d) empiricaldispersion=gd3bj scf=xqc
 -----------------------------------------------------------

 ------------------------------
 CID_71723975_JID_9355_neutraal
 ------------------------------
 Symbolic Z-matrix:
 Charge =  0 Multiplicity = 1

 SCF Done:  E(RB3LYP) =  -790.488422193     A.U. after   18 cycles
 SCF Done:  E(RB3LYP) =  -790.499962981     A.U. after   13 cycles
 SCF Done:  E(RB3LYP) =  -790.501060267     A.U. after   15 cycles
 SCF Done:  E(RB3LYP) =  -790.503388665     A.U. after   12 cycles
 SCF Done:  E(RB3LYP) =  -790.504093034     A.U. after   13 cycles
 SCF Done:  E(RB3LYP) =  -790.504174136     A.U. after   12 cycles
 SCF Done:  E(RB3LYP) =  -790.504204027     A.U. after   11 cycles
 SCF Done:  E(RB3LYP) =  -790.504213066     A.U. after    9 cycles
 SCF Done:  E(RB3LYP) =  -790.504214056     A.U. after    8 cycles
 SCF Done:  E(RB3LYP) =  -790.504214189     A.U. after    7 cycles
 Optimization completed.
    -- Stationary point found.
 Normal termination of Gaussian 16 at Sun Dec 13 20:18:10 2020.

 --------------------------------------------------------------------
 #N Geom=AllCheck Guess=TCheck SCRF=Check GenChk RB3LYP/6-31G(d) Freq
 --------------------------------------------------------------------

 Structure from the checkpoint file:  "JID_9355.chk"
 ------------------------------
 CID_71723975_JID_9355_neutraal
 ------------------------------
 Charge =  0 Multiplicity = 1

 SCF Done:  E(RB3LYP) =  -790.504214189     A.U. after    1 cycles

  Exact polarizability: 309.460   8.444 168.497  -0.014   0.006 118.829
 Approx polarizability: 454.759  23.343 292.624  -0.030   0.006 182.158

                      1                      2                      3
                      A                      A                      A
 Frequencies --     30.5935                48.9633                94.2021
 Red. masses --      4.4336                 3.9406                 4.2606
 Frc consts  --      0.0024                 0.0056                 0.0223
 IR Inten    --      1.8107                 0.0931                 1.0030

                      4                      5                      6
                      A                      A                      A
 Frequencies --     96.4670               172.3673               204.1563
 Red. masses --      5.6188                 4.2073                 5.4557
 Frc consts  --      0.0308                 0.0736                 0.1340
 IR Inten    --      1.3280                 2.1744                 0.5554

                      7                      8                      9
                      A                      A                      A
 Frequencies --    220.5543               260.8359               323.6781
 Red. masses --      3.5470                 3.6541                 2.0335
 Frc consts  --      0.1017                 0.1465                 0.1255
 IR Inten    --      2.5834                 1.4572                 0.0205

                     10                     11                     12
                      A                      A                      A
 Frequencies --    339.2746               345.6079               370.3829
 Red. masses --      2.8162                 2.3617                 7.6788
 Frc consts  --      0.1910                 0.1662                 0.6206
 IR Inten    --      1.5961                 1.4735                11.0928

                     13                     14                     15
                      A                      A                      A
 Frequencies --    400.0436               410.6501               420.5912
 Red. masses --      3.9148                 4.6133                 3.1894
 Frc consts  --      0.3691                 0.4584                 0.3324
 IR Inten    --      0.4483                 0.1310                 0.0054

                     16                     17                     18
                      A                      A                      A
 Frequencies --    431.4962               455.0995               455.9354
 Red. masses --      2.7305                 1.8111                 1.8513
 Frc consts  --      0.2995                 0.2210                 0.2267
 IR Inten    --      0.9670                 0.3132                 2.5771

                     19                     20                     21
                      A                      A                      A
 Frequencies --    492.2342               520.3441               587.6095
 Red. masses --      2.4497                 3.1257                 6.3024
 Frc consts  --      0.3497                 0.4986                 1.2821
 IR Inten    --      1.6883                 7.1160                 9.3576

                     22                     23                     24
                      A                      A                      A
 Frequencies --    638.0192               660.9998               662.1265
 Red. masses --      1.1794                 3.4594                 5.1536
 Frc consts  --      0.2829                 0.8905                 1.3312
 IR Inten    --      8.6684                 0.0565                 0.0311

                     25                     26                     27
                      A                      A                      A
 Frequencies --    662.8234               687.9728               689.1678
 Red. masses --      4.2705                 2.1911                 4.2100
 Frc consts  --      1.1054                 0.6110                 1.1781
 IR Inten    --      0.8783                27.5211                10.0458

                     28                     29                     30
                      A                      A                      A
 Frequencies --    729.8075               767.0883               771.2025
 Red. masses --      5.3983                 1.8217                 4.9715
 Frc consts  --      1.6940                 0.6316                 1.7421
 IR Inten    --      0.2337                48.1379                 2.8002

                     31                     32                     33
                      A                      A                      A
 Frequencies --    808.5051               828.1916               831.8488
 Red. masses --      3.6594                 2.7329                 2.7353
 Frc consts  --      1.4094                 1.1044                 1.1152
 IR Inten    --      4.3432                 0.3331                 0.0019

                     34                     35                     36
                      A                      A                      A
 Frequencies --    845.3578               886.0184               907.2570
 Red. masses --      1.3103                 5.1061                 1.5900
 Frc consts  --      0.5517                 2.3617                 0.7711
 IR Inten    --      0.3662                11.2317                 0.0621

                     37                     38                     39
                      A                      A                      A
 Frequencies --    908.0974               911.1368               912.5814
 Red. masses --      1.5746                 1.3661                 1.5554
 Frc consts  --      0.7650                 0.6682                 0.7632
 IR Inten    --      1.0637                 6.1161                 0.1016

                     40                     41                     42
                      A                      A                      A
 Frequencies --    936.0490               952.8907               955.7756
 Red. masses --      4.6691                 2.0768                 2.0842
 Frc consts  --      2.4103                 1.1110                 1.1217
 IR Inten    --     44.2041                 4.5658                 0.0110

                     43                     44                     45
                      A                      A                      A
 Frequencies --    963.7438               994.6732               998.0977
 Red. masses --      1.2902                 2.2044                 2.2056
 Frc consts  --      0.7060                 1.2850                 1.2945
 IR Inten    --      0.3392                 2.7315                13.9210

                     46                     47                     48
                      A                      A                      A
 Frequencies --    999.8563              1002.3319              1028.2680
 Red. masses --      2.1701                 1.2509                 5.9900
 Frc consts  --      1.2782                 0.7405                 3.7315
 IR Inten    --     19.2615                 1.0107                57.6041

                     49                     50                     51
                      A                      A                      A
 Frequencies --   1060.8462              1062.8433              1065.7181
 Red. masses --      1.7991                 1.8804                 1.9808
 Frc consts  --      1.1929                 1.2515                 1.3255
 IR Inten    --      0.2212                 0.2035                 2.2181

                     52                     53                     54
                      A                      A                      A
 Frequencies --   1076.1788              1094.9061              1123.5485
 Red. masses --      2.1943                 3.1864                 1.7802
 Frc consts  --      1.4974                 2.2506                 1.3241
 IR Inten    --      1.1893                13.0227                 1.4887

                     55                     56                     57
                      A                      A                      A
 Frequencies --   1131.5202              1134.5541              1138.3038
 Red. masses --      1.5126                 1.3704                 1.6310
 Frc consts  --      1.1411                 1.0393                 1.2451
 IR Inten    --      4.4329                 1.3040                 0.6645

                     58                     59                     60
                      A                      A                      A
 Frequencies --   1142.0803              1145.7960              1185.1868
 Red. masses --      1.0194                 1.0369                 1.1075
 Frc consts  --      0.7834                 0.8021                 0.9166
 IR Inten    --      0.1251                 0.3095                 1.8061

                     61                     62                     63
                      A                      A                      A
 Frequencies --   1215.0532              1215.6018              1227.7319
 Red. masses --      1.4406                 1.2462                 1.4282
 Frc consts  --      1.2531                 1.0850                 1.2684
 IR Inten    --      8.6049                 0.0312                85.9967

                     64                     65                     66
                      A                      A                      A
 Frequencies --   1233.4739              1281.1041              1292.3869
 Red. masses --      1.8260                 3.0194                 1.3954
 Frc consts  --      1.6368                 2.9197                 1.3732
 IR Inten    --     68.7104                 5.4808                 0.0173

                     67                     68                     69
                      A                      A                      A
 Frequencies --   1301.6349              1327.2838              1333.2100
 Red. masses --      1.5897                 1.7302                 1.8078
 Frc consts  --      1.5869                 1.7959                 1.8932
 IR Inten    --      1.3991                 0.0418                45.3599

                     70                     71                     72
                      A                      A                      A
 Frequencies --   1335.3044              1340.7225              1359.4635
 Red. masses --      1.7182                 2.9225                 1.5187
 Frc consts  --      1.8051                 3.0952                 1.6537
 IR Inten    --      0.0748               302.3294                 0.4060

                     73                     74                     75
                      A                      A                      A
 Frequencies --   1360.3946              1362.2273              1368.8928
 Red. masses --      1.6066                 2.0985                 1.3111
 Frc consts  --      1.7518                 2.2944                 1.4476
 IR Inten    --      5.5892                 0.9737                 0.0000

                     76                     77                     78
                      A                      A                      A
 Frequencies --   1384.9442              1396.2685              1397.0585
 Red. masses --      1.2920                 1.4981                 1.5250
 Frc consts  --      1.4601                 1.7208                 1.7537
 IR Inten    --     43.2009                 0.0187                 0.0002

                     79                     80                     81
                      A                      A                      A
 Frequencies --   1410.0643              1415.6423              1418.3915
 Red. masses --      1.4546                 1.5390                 1.5499
 Frc consts  --      1.7040                 1.8172                 1.8372
 IR Inten    --      0.6419                 0.3102                 1.9240

                     82                     83                     84
                      A                      A                      A
 Frequencies --   1485.7996              1510.2537              1510.6367
 Red. masses --      2.6124                 1.0875                 1.0939
 Frc consts  --      3.3979                 1.4614                 1.4707
 IR Inten    --    413.3960                 0.1367                 1.9980

                     85                     86                     87
                      A                      A                      A
 Frequencies --   1523.8814              1524.6949              1524.9104
 Red. masses --      1.1105                 1.1102                 1.0961
 Frc consts  --      1.5194                 1.5206                 1.5017
 IR Inten    --     23.0093                 3.3087                 7.2930

                     88                     89                     90
                      A                      A                      A
 Frequencies --   1526.3554              1547.4755              1559.6468
 Red. masses --      1.9712                 1.1041                 2.1120
 Frc consts  --      2.7057                 1.5578                 3.0269
 IR Inten    --    117.1345                 4.5262               116.1102

                     91                     92                     93
                      A                      A                      A
 Frequencies --   1587.7167              1625.8752              1694.1096
 Red. masses --      4.5434                 7.2500                 5.2260
 Frc consts  --      6.7480                11.2918                 8.8369
 IR Inten    --     39.7630               298.8273                55.8110

                     94                     95                     96
                      A                      A                      A
 Frequencies --   3018.2009              3022.1411              3023.3238
 Red. masses --      1.0611                 1.0672                 1.0617
 Frc consts  --      5.6950                 5.7427                 5.7180
 IR Inten    --     22.2052                 9.3325                 9.6648

                     97                     98                     99
                      A                      A                      A
 Frequencies --   3024.4763              3027.8492              3031.0999
 Red. masses --      1.0646                 1.0696                 1.0678
 Frc consts  --      5.7378                 5.7774                 5.7801
 IR Inten    --      2.4574                 7.3974                66.0982

                    100                    101                    102
                      A                      A                      A
 Frequencies --   3041.9491              3043.0305              3052.7210
 Red. masses --      1.0811                 1.0811                 1.0779
 Frc consts  --      5.8940                 5.8984                 5.9183
 IR Inten    --    124.7004               163.8919                64.4051

                    103                    104                    105
                      A                      A                      A
 Frequencies --   3058.7197              3063.6565              3064.2957
 Red. masses --      1.1051                 1.1039                 1.1038
 Frc consts  --      6.0918                 6.1048                 6.1067
 IR Inten    --      1.8068                42.1936                76.1961

                    106                    107                    108
                      A                      A                      A
 Frequencies --   3068.8013              3101.7791              3106.4211
 Red. masses --      1.1043                 1.0956                 1.0944
 Frc consts  --      6.1272                 6.2104                 6.2221
 IR Inten    --     93.6396                 1.0234                35.9854

                    109                    110                    111
                      A                      A                      A
 Frequencies --   3211.4245              3217.8826              3234.2247
 Red. masses --      1.0870                 1.0906                 1.0953
 Frc consts  --      6.6052                 6.6538                 6.7505
 IR Inten    --      1.8226                11.0302                 4.0657

                    112                    113                    114
                      A                      A                      A
 Frequencies --   3236.6564              3250.6411              3283.7814
 Red. masses --      1.0971                 1.0945                 1.0886
 Frc consts  --      6.7713                 6.8141                 6.9163
 IR Inten    --     29.6918                 1.0629                 2.4149

 - Thermochemistry -
 -------------------
 Temperature   298.150 Kelvin.  Pressure   1.00000 Atm.
 Atom     1 has atomic number  6 and mass  12.00000

 Molecular mass:   255.16231 amu.
 Principal axes and moments of inertia in atomic units:
                           1         2         3
     Eigenvalues --  1597.608949680.18164**********
           X            1.00000   0.00018  -0.00000
           Y           -0.00018   1.00000   0.00003
           Z            0.00000  -0.00003   1.00000
 This molecule is an asymmetric top.
 Rotational symmetry number  1.
 Warning -- assumption of classical behavior for rotation
           may cause significant error
 Rotational temperatures (Kelvin)      0.05421     0.00895     0.00849
 Rotational constants (GHZ):           1.12965     0.18644     0.17683
 Zero-point vibrational energy     925692.8 (Joules/Mol)
                                  221.24588 (Kcal/Mol)
 Warning -- explicit consideration of  21 degrees of freedom as
           vibrations may cause significant error
 Vibrational temperatures:     44.02    70.45   135.54   138.79   248.00
          (Kelvin)            293.74   317.33   375.28   465.70   488.14
                              497.25   532.90   575.57   590.83   605.14
                              620.83   654.79   655.99   708.22   748.66
                              845.44   917.97   951.03   952.65   953.66
                              989.84   991.56  1050.03  1103.67  1109.59
                             1163.26  1191.58  1196.84  1216.28  1274.78
                             1305.34  1306.55  1310.92  1313.00  1346.77
                             1371.00  1375.15  1386.61  1431.11  1436.04
                             1438.57  1442.13  1479.45  1526.32  1529.19
                             1533.33  1548.38  1575.33  1616.54  1628.01
                             1632.37  1637.77  1643.20  1648.54  1705.22
                             1748.19  1748.98  1766.43  1774.69  1843.22
                             1859.46  1872.76  1909.67  1918.19  1921.21
                             1929.00  1955.96  1957.30  1959.94  1969.53
                             1992.63  2008.92  2010.06  2028.77  2036.79
                             2040.75  2137.73  2172.92  2173.47  2192.53
                             2193.70  2194.01  2196.09  2226.47  2243.98
                             2284.37  2339.27  2437.45  4342.52  4348.19
                             4349.89  4351.55  4356.40  4361.08  4376.69
                             4378.24  4392.18  4400.82  4407.92  4408.84
                             4415.32  4462.77  4469.45  4620.52  4629.82
                             4653.33  4656.83  4676.95  4724.63

 Zero-point correction=                           0.352578 (Hartree/Particle)
 Thermal correction to Energy=                    0.367038
 Thermal correction to Enthalpy=                  0.367982
 Thermal correction to Gibbs Free Energy=         0.310948
 Sum of electronic and zero-point Energies=           -790.151636
 Sum of electronic and thermal Energies=              -790.137177
 Sum of electronic and thermal Enthalpies=            -790.136232
 Sum of electronic and thermal Free Energies=         -790.193267

                     E (Thermal)             CV                S
                      KCal/Mol        Cal/Mol-Kelvin    Cal/Mol-Kelvin
 Total                  230.320             62.296            120.039
 Electronic               0.000              0.000              0.000
 Translational            0.889              2.981             42.510
 Rotational               0.889              2.981             33.423
 Vibrational            228.542             56.334             44.106
 Vibration     1          0.594              1.984              5.791
 Vibration     2          0.595              1.978              4.859
 Vibration     3          0.603              1.953              3.571
 Vibration     4          0.603              1.952              3.524
 Vibration     5          0.626              1.876              2.410
 Vibration     6          0.640              1.834              2.095
 Vibration     7          0.647              1.810              1.955
 Vibration     8          0.669              1.744              1.656
 Vibration     9          0.708              1.628              1.291
 Vibration    10          0.719              1.597              1.216
 Vibration    11          0.724              1.584              1.186
 Vibration    12          0.742              1.533              1.078
 Vibration    13          0.766              1.470              0.962
 Vibration    14          0.775              1.447              0.924
 Vibration    15          0.783              1.425              0.890
 Vibration    16          0.793              1.402              0.854
 Vibration    17          0.813              1.350              0.781
 Vibration    18          0.814              1.348              0.778
 Vibration    19          0.848              1.267              0.678
 Vibration    20          0.875              1.205              0.609
 Vibration    21          0.945              1.058              0.471

 Optimization completed.
    -- Stationary point found.
 Normal termination of Gaussian 16 at Sun Dec 13 20:41:31 2020.

 ----------------------------------------------------------------------
 # B3LYP/6-311++G(d,p) empiricaldispersion=gd3bj scf=xqc pop=npa geom=c
 heck
 ----------------------------------------------------------------------

 --------------------------------------
 CID_71723975_JID_9355_Energie_neutraal
 --------------------------------------
 Structure from the checkpoint file:  "JID_9355.chk"
 Charge =  0 Multiplicity = 1

 SCF Done:  E(RB3LYP) =  -790.708593970     A.U. after   18 cycles
 Normal termination of Gaussian 16 at Sun Dec 13 20:54:54 2020.

 ----------------------------------------------------------------------
 # B3LYP/6-311++G(d,p) empiricaldispersion=gd3bj scf=xqc pop=npa geom=c
 heck
 ----------------------------------------------------------------------

 ------------------------------------
 CID_71723975_JID_9355_Energie_kation
 ------------------------------------
 Structure from the checkpoint file:  "JID_9355.chk"
 Charge =  1 Multiplicity = 2

 SCF Done:  E(UB3LYP) =  -790.453225465     A.U. after   23 cycles
 Normal termination of Gaussian 16 at Sun Dec 13 21:19:23 2020.
 Gaussian 16:  ES64L-G16RevA.03 25-Dec-2016

 ----------------------------------------------------------------------
 # B3LYP/6-311++G(d,p) empiricaldispersion=gd3bj scf=xqc pop=npa geom=c
 heck
 ----------------------------------------------------------------------

 -----------------------------------
 CID_71723975_JID_9355_Energie_anion
 -----------------------------------
 Structure from the checkpoint file:  "JID_9355.chk"
 Charge = -1 Multiplicity = 2

                         Standard orientation:
 ---------------------------------------------------------------------
 Center     Atomic      Atomic             Coordinates (Angstroms)
 Number     Number       Type             X           Y           Z
 ---------------------------------------------------------------------
      1          6           0       -3.820700   -1.172921   -0.000749
      2          6           0       -3.198528   -0.539617    1.257594
      3          6           0       -3.469809    0.975840    1.256347
      4          6           0       -2.842412    1.607399    0.000225
      5          6           0       -3.469100    0.976470   -1.256570
      6          6           0       -3.197824   -0.538995   -1.258425
      7          6           0       -1.679954   -0.785348   -1.257417
      8          6           0       -1.025970   -0.159045    0.000295
      9          6           0       -1.680663   -0.785956    1.257339
     10          6           0       -1.321370    1.355373    0.000588
     11          6           0        0.464338   -0.554719    0.000493
     12          6           0        1.427080    0.480386    0.000207
     13          7           0        2.798479    0.283554    0.000099
     14          6           0        3.378312   -0.969591   -0.000218
     15          6           0        4.752790   -1.114854   -0.000444
     16          6           0        5.603108   -0.010360   -0.000292
     17          6           0        5.005958    1.254205    0.000059
     18          6           0        3.635929    1.380012    0.000213
     19          8           0        0.729400   -1.780637    0.000692
     20          1           0       -4.908767   -1.020977   -0.001031
     21          1           0       -3.644774   -2.256656   -0.000962
     22          1           0       -3.639541   -0.992790    2.155065
     23          1           0       -3.046101    1.434600    2.160183
     24          1           0       -4.551069    1.168634    1.273290
     25          1           0       -3.026283    2.689761    0.000438
     26          1           0       -3.044871    1.435682   -2.159931
     27          1           0       -4.550351    1.169280   -1.274043
     28          1           0       -3.638335   -0.991707   -2.156375
     29          1           0       -1.455857   -1.856595   -1.270225
     30          1           0       -1.226430   -0.348292   -2.158134
     31          1           0       -1.227638   -0.349308    2.158503
     32          1           0       -1.456543   -1.857202    1.269760
     33          1           0       -0.873696    1.827909   -0.884278
     34          1           0       -0.874220    1.827443    0.885981
     35          1           0        1.143505    1.519915    0.000944
     36          1           0        2.661297   -1.780070   -0.000251
     37          1           0        5.148636   -2.125247   -0.000636
     38          1           0        6.681083   -0.124013   -0.000483
     39          1           0        5.602399    2.160557    0.000149
     40          1           0        3.135876    2.339616    0.000346
 ---------------------------------------------------------------------

 SCF Done:  E(UB3LYP) =  -790.723820769     A.U. after   26 cycles

 The electronic state is 2-A.
 Alpha  occ. eigenvalues --  -18.90056 -14.22157 -10.06882 -10.06583 -10.06583
 Alpha  occ. eigenvalues --  -10.06393 -10.06392 -10.06240 -10.05994 -10.05733
 Alpha  occ. eigenvalues --  -10.04715 -10.04667 -10.04361 -10.04017 -10.03946
 Alpha  occ. eigenvalues --  -10.03946 -10.02826 -10.01758 -10.01391  -0.84964
 Alpha  occ. eigenvalues --   -0.82840  -0.76306  -0.67667  -0.66478  -0.66360
 Alpha  occ. eigenvalues --   -0.65875  -0.62193  -0.57031  -0.55858  -0.55750
 Alpha  occ. eigenvalues --   -0.50139  -0.49793  -0.48004  -0.47804  -0.46676
 Alpha  occ. eigenvalues --   -0.42167  -0.40877  -0.36294  -0.35418  -0.34828
 Alpha  occ. eigenvalues --   -0.34425  -0.34346  -0.34167  -0.32366  -0.30789
 Alpha  occ. eigenvalues --   -0.30678  -0.29944  -0.29662  -0.29230  -0.29135
 Alpha  occ. eigenvalues --   -0.28652  -0.28444  -0.27256  -0.24126  -0.23233
 Alpha  occ. eigenvalues --   -0.22793  -0.22190  -0.22109  -0.21981  -0.21659
 Alpha  occ. eigenvalues --   -0.21421  -0.19683  -0.18246  -0.17729  -0.17173
 Alpha  occ. eigenvalues --   -0.16138  -0.12896  -0.07088  -0.03884   0.04323
 Alpha virt. eigenvalues --    0.06432   0.08359   0.08443   0.08892   0.09434
 Alpha virt. eigenvalues --    0.10258   0.10765   0.10766   0.11391   0.11746
 Alpha virt. eigenvalues --    0.11923   0.12249   0.12829   0.13322   0.13776

  Beta  occ. eigenvalues --  -18.89830 -14.21442 -10.06883 -10.06582 -10.06581
  Beta  occ. eigenvalues --  -10.06392 -10.06391 -10.06240 -10.05868 -10.05500
  Beta  occ. eigenvalues --  -10.04726 -10.04663 -10.04248 -10.04129 -10.03937
  Beta  occ. eigenvalues --  -10.03937 -10.02814 -10.01842 -10.00902  -0.84226
  Beta  occ. eigenvalues --   -0.82125  -0.76291  -0.67151  -0.66459  -0.66353
  Beta  occ. eigenvalues --   -0.65815  -0.61748  -0.56784  -0.55846  -0.55622
  Beta  occ. eigenvalues --   -0.49846  -0.49379  -0.47962  -0.47789  -0.46303
  Beta  occ. eigenvalues --   -0.42080  -0.40737  -0.36097  -0.35296  -0.34716
  Beta  occ. eigenvalues --   -0.34337  -0.34331  -0.33920  -0.32217  -0.30730
  Beta  occ. eigenvalues --   -0.30553  -0.29933  -0.29543  -0.29029  -0.28803
  Beta  occ. eigenvalues --   -0.28389  -0.27183  -0.26915  -0.23964  -0.22998
  Beta  occ. eigenvalues --   -0.22656  -0.22174  -0.21965  -0.21902  -0.21644
  Beta  occ. eigenvalues --   -0.21337  -0.19069  -0.18179  -0.17159  -0.16909
  Beta  occ. eigenvalues --   -0.14607  -0.11686  -0.06900  -0.02489
  Beta virt. eigenvalues --    0.06409   0.08309   0.08407   0.08829   0.09396
  Beta virt. eigenvalues --    0.10193   0.10420   0.10714   0.10964   0.11348
  Beta virt. eigenvalues --    0.11894   0.11907   0.12636   0.12791   0.13243

 Mulliken charges and spin densities:
               1          2
     1  C   -0.680556  -0.000580
     2  C    0.404495   0.000312
     3  C   -0.799268   0.002359
     4  C    0.403393  -0.000365
     5  C   -0.799297   0.002347
     6  C    0.404530   0.000355
     7  C   -0.831978  -0.059578
     8  C    0.926505   0.165181
     9  C   -0.831868  -0.059557
    10  C   -1.000736  -0.078927
    11  C    0.236650   0.083680
    12  C   -0.401423  -0.039482
    13  N    0.414420   0.171207
    14  C   -0.046129   0.093627
    15  C   -0.124654   0.073716
    16  C   -0.834138   0.331492
    17  C   -0.251078  -0.027705
    18  C    0.076148   0.251163
    19  O   -0.389862   0.075895
    20  H    0.126346  -0.000015
    21  H    0.129143  -0.000075
    22  H    0.198169   0.000267
    23  H    0.113125  -0.000493
    24  H    0.129966  -0.000096
    25  H    0.194997  -0.000159
    26  H    0.113138  -0.000495
    27  H    0.129962  -0.000097
    28  H    0.198165   0.000270
    29  H    0.180661  -0.002998
    30  H    0.148669   0.014484
    31  H    0.148692   0.014466
    32  H    0.180702  -0.002999
    33  H    0.125816   0.025671
    34  H    0.125807   0.025655
    35  H    0.249214  -0.001480
    36  H    0.228327  -0.011977
    37  H    0.142543  -0.001414
    38  H    0.081746  -0.032377
    39  H    0.141655   0.005836
    40  H    0.038007  -0.017114
 Sum of Mulliken charges =  -1.00000   1.00000

 Dipole moment (field-independent basis, Debye):
    X=             -8.4796    Y=              2.9047    Z=             -0.0008  Tot=              8.9633
 Quadrupole moment (field-independent basis, Debye-Ang):
   XX=           -176.3091   YY=           -130.1089   ZZ=           -128.7058
   XY=              2.0780   XZ=             -0.0001   YZ=              0.0051

 Summary of Natural Population Analysis:

                                       Natural Population
                Natural  -----------------------------------------------
    Atom  No    Charge         Core      Valence    Rydberg      Total
 -----------------------------------------------------------------------
      C    1   -0.18668      0.99961     2.17900    0.00807     3.18668
      C    2   -0.11114      0.99960     2.10150    0.01004     3.11114
      C    3   -0.18714      0.99961     2.17933    0.00820     3.18714
      C    4   -0.10937      0.99960     2.09962    0.01014     3.10937
      C    5   -0.18714      0.99961     2.17933    0.00820     3.18714
      C    6   -0.11114      0.99960     2.10150    0.01004     3.11114
      C    7   -0.19960      0.99962     2.18601    0.01398     3.19960
      C    8    0.00483      0.99953     1.98127    0.01436     2.99517
      C    9   -0.19961      0.99962     2.18601    0.01398     3.19961
      C   10   -0.20602      0.99963     2.19235    0.01404     3.20602
      C   11    0.21534      0.99958     1.75884    0.02625     2.78466
      C   12   -0.13589      0.99955     2.12196    0.01439     3.13589
      N   13   -0.06403      0.99961     2.55619    0.00823     3.56403
      C   14    0.03131      0.99958     1.95765    0.01146     2.96869
      C   15   -0.12034      0.99958     2.11217    0.00860     3.12034
      C   16   -0.02161      0.99957     2.01083    0.01121     3.02161
      C   17   -0.14442      0.99957     2.13649    0.00836     3.14442
      C   18    0.05839      0.99959     1.92990    0.01212     2.94161
      O   19   -0.35516      0.99989     3.34668    0.00859     4.35516
      H   20    0.09054      0.00000     0.40818    0.00128     0.40946
      H   21    0.09833      0.00000     0.40053    0.00114     0.40167
      H   22    0.09123      0.00000     0.40660    0.00217     0.40877
      H   23    0.09653      0.00000     0.40229    0.00118     0.40347
      H   24    0.09114      0.00000     0.40757    0.00129     0.40886
      H   25    0.09090      0.00000     0.40702    0.00208     0.40910
      H   26    0.09653      0.00000     0.40229    0.00118     0.40347
      H   27    0.09114      0.00000     0.40757    0.00129     0.40886
      H   28    0.09123      0.00000     0.40660    0.00217     0.40877
      H   29    0.11068      0.00000     0.38776    0.00156     0.38932
      H   30    0.09770      0.00000     0.40095    0.00135     0.40230
      H   31    0.09770      0.00000     0.40096    0.00135     0.40230
      H   32    0.11069      0.00000     0.38775    0.00156     0.38931
      H   33    0.10056      0.00000     0.39780    0.00163     0.39944
      H   34    0.10055      0.00000     0.39782    0.00163     0.39945
      H   35    0.08807      0.00000     0.41074    0.00120     0.41193
      H   36    0.12518      0.00000     0.37331    0.00152     0.37482
      H   37    0.09400      0.00000     0.40505    0.00095     0.40600
      H   38    0.08480      0.00000     0.41369    0.00151     0.41520
      H   39    0.09469      0.00000     0.40445    0.00087     0.40531
      H   40    0.08803      0.00000     0.41112    0.00085     0.41197
 =======================================================================
   * Total *    0.00080     18.99255    49.75664    0.25002    68.99920

 Normal termination of Gaussian 16 at Sun Dec 13 21:47:06 2020.
