 Gaussian 16, Revision A.03,

 -----------------------------------------------------------
 # opt freq B3LYP/6-31G(d) empiricaldispersion=gd3bj scf=xqc
 -----------------------------------------------------------

 -------------------------------
 CID_130134280_JID_6594_neutraal
 -------------------------------
 Symbolic Z-matrix:
 Charge =  0 Multiplicity = 1

 SCF Done:  E(RB3LYP) =  -669.921269332     A.U. after   14 cycles
 SCF Done:  E(RB3LYP) =  -669.924535981     A.U. after   12 cycles
 SCF Done:  E(RB3LYP) =  -669.926706562     A.U. after   12 cycles
 SCF Done:  E(RB3LYP) =  -669.928146143     A.U. after   14 cycles
 SCF Done:  E(RB3LYP) =  -669.928089993     A.U. after   12 cycles
 SCF Done:  E(RB3LYP) =  -669.927051488     A.U. after   13 cycles
 SCF Done:  E(RB3LYP) =  -669.926747665     A.U. after   13 cycles
 SCF Done:  E(RB3LYP) =  -669.928764082     A.U. after   11 cycles
 SCF Done:  E(RB3LYP) =  -669.929662216     A.U. after   12 cycles
 SCF Done:  E(RB3LYP) =  -669.929785045     A.U. after   12 cycles
 SCF Done:  E(RB3LYP) =  -669.932393685     A.U. after    8 cycles
 SCF Done:  E(RB3LYP) =  -669.932394158     A.U. after    8 cycles
 SCF Done:  E(RB3LYP) =  -669.932394485     A.U. after    8 cycles
 SCF Done:  E(RB3LYP) =  -669.932394600     A.U. after    7 cycles
 SCF Done:  E(RB3LYP) =  -669.932394634     A.U. after    7 cycles
 Optimization completed.
    -- Stationary point found.
 Normal termination of Gaussian 16 at Fri Dec 11 00:00:34 2020.

 --------------------------------------------------------------------
 #N Geom=AllCheck Guess=TCheck SCRF=Check GenChk RB3LYP/6-31G(d) Freq
 --------------------------------------------------------------------

 Structure from the checkpoint file:  "JID_6594.chk"
 -------------------------------
 CID_130134280_JID_6594_neutraal
 -------------------------------
 Charge =  0 Multiplicity = 1

 SCF Done:  E(RB3LYP) =  -669.932394634     A.U. after    1 cycles

  Exact polarizability: 232.254   1.801 138.160  -3.104  -0.156  92.557
 Approx polarizability: 304.345  -3.748 244.009  -9.672  -2.935 138.635

                      1                      2                      3
                      A                      A                      A
 Frequencies --     23.9813                45.7806                70.6905
 Red. masses --      3.4396                 4.7679                 3.6586
 Frc consts  --      0.0012                 0.0059                 0.0108
 IR Inten    --      0.3723                 0.1713                 1.2618

                      4                      5                      6
                      A                      A                      A
 Frequencies --     79.4189               105.5542               127.0020
 Red. masses --      2.2301                 3.7616                 4.2043
 Frc consts  --      0.0083                 0.0247                 0.0400
 IR Inten    --      0.2931                 0.8318                 2.1900

                      7                      8                      9
                      A                      A                      A
 Frequencies --    217.0372               225.4730               249.9700
 Red. masses --      2.3568                 2.6429                 2.3826
 Frc consts  --      0.0654                 0.0792                 0.0877
 IR Inten    --      0.4427                 4.9124                 0.5522

                     10                     11                     12
                      A                      A                      A
 Frequencies --    259.5570               303.1113               309.4214
 Red. masses --      2.0407                 1.4680                 1.1652
 Frc consts  --      0.0810                 0.0795                 0.0657
 IR Inten    --     12.5692                19.1577                10.1596

                     13                     14                     15
                      A                      A                      A
 Frequencies --    317.8046               355.7543               406.8126
 Red. masses --      2.3519                 2.2101                 2.9989
 Frc consts  --      0.1400                 0.1648                 0.2924
 IR Inten    --      7.7434                19.7098                 3.1725

                     16                     17                     18
                      A                      A                      A
 Frequencies --    422.8511               423.7812               450.1294
 Red. masses --      3.2005                 3.2620                 4.2616
 Frc consts  --      0.3372                 0.3452                 0.5087
 IR Inten    --      0.0540                 0.2609                13.2823

                     19                     20                     21
                      A                      A                      A
 Frequencies --    475.1676               496.4330               577.6479
 Red. masses --      3.3753                 3.4592                 2.5674
 Frc consts  --      0.4490                 0.5023                 0.5047
 IR Inten    --      2.9581                 4.0967                15.9352

                     22                     23                     24
                      A                      A                      A
 Frequencies --    633.0016               638.4327               659.8633
 Red. masses --      4.2171                 3.1180                 6.1600
 Frc consts  --      0.9956                 0.7488                 1.5803
 IR Inten    --      1.2645                 0.8170                 1.5649

                     25                     26                     27
                      A                      A                      A
 Frequencies --    676.3091               724.1867               742.5930
 Red. masses --      3.9321                 1.2176                 4.5233
 Frc consts  --      1.0597                 0.3762                 1.4696
 IR Inten    --     15.8840                16.9744                 0.5475

                     28                     29                     30
                      A                      A                      A
 Frequencies --    754.7977               790.1996               803.7232
 Red. masses --      4.6935                 1.2098                 1.3354
 Frc consts  --      1.5755                 0.4451                 0.5083
 IR Inten    --      5.6143                 0.1597                27.5412

                     31                     32                     33
                      A                      A                      A
 Frequencies --    838.0666               848.6530               850.2516
 Red. masses --      1.9729                 1.4874                 1.3211
 Frc consts  --      0.8164                 0.6311                 0.5627
 IR Inten    --      9.1794                 3.4440                 1.8369

                     34                     35                     36
                      A                      A                      A
 Frequencies --    870.2919               911.6102               921.7384
 Red. masses --      1.6317                 1.7569                 6.3225
 Frc consts  --      0.7282                 0.8602                 3.1648
 IR Inten    --     28.2886                79.7465                12.9472

                     37                     38                     39
                      A                      A                      A
 Frequencies --    957.8800               961.6279               990.1691
 Red. masses --      1.2883                 1.3355                 5.7508
 Frc consts  --      0.6965                 0.7276                 3.3220
 IR Inten    --     29.3910                 4.5983                15.2239

                     40                     41                     42
                      A                      A                      A
 Frequencies --    994.2368              1014.7415              1024.6364
 Red. masses --      1.3210                 1.8274                 1.9785
 Frc consts  --      0.7693                 1.1086                 1.2239
 IR Inten    --      2.2970                 9.3283                 8.6149

                     43                     44                     45
                      A                      A                      A
 Frequencies --   1043.3075              1079.3472              1081.0616
 Red. masses --      2.7678                 1.7207                 1.6584
 Frc consts  --      1.7750                 1.1811                 1.1420
 IR Inten    --      1.8080                34.7969                44.5067

                     46                     47                     48
                      A                      A                      A
 Frequencies --   1099.2816              1131.1930              1147.4809
 Red. masses --      1.7034                 1.4913                 2.2028
 Frc consts  --      1.2128                 1.1243                 1.7089
 IR Inten    --      6.8276                 4.4481                 7.7360

                     49                     50                     51
                      A                      A                      A
 Frequencies --   1149.9045              1161.1683              1210.8504
 Red. masses --      1.4232                 3.5940                 2.2499
 Frc consts  --      1.1088                 2.8551                 1.9436
 IR Inten    --     15.3298                 2.2826                 3.2698

                     52                     53                     54
                      A                      A                      A
 Frequencies --   1220.7511              1270.4722              1276.1816
 Red. masses --      1.1422                 2.9078                 1.3892
 Frc consts  --      1.0029                 2.7653                 1.3330
 IR Inten    --     10.6174                24.7738                26.2482

                     55                     56                     57
                      A                      A                      A
 Frequencies --   1299.1497              1323.8638              1341.4725
 Red. masses --      3.6390                 1.6360                 1.4459
 Frc consts  --      3.6187                 1.6893                 1.5331
 IR Inten    --      7.2478                10.5688                 1.0039

                     58                     59                     60
                      A                      A                      A
 Frequencies --   1343.7602              1351.7843              1365.2018
 Red. masses --      2.3336                 1.6070                 3.8709
 Frc consts  --      2.4827                 1.7302                 4.2507
 IR Inten    --     78.0157                 3.2708                 0.4868

                     61                     62                     63
                      A                      A                      A
 Frequencies --   1398.7882              1421.3594              1435.3888
 Red. masses --      1.5359                 5.5258                 1.2885
 Frc consts  --      1.7705                 6.5774                 1.5641
 IR Inten    --      2.6051                 2.4308                 5.3849

                     64                     65                     66
                      A                      A                      A
 Frequencies --   1440.5959              1466.2190              1505.9816
 Red. masses --      1.2404                 3.0307                 1.0734
 Frc consts  --      1.5167                 3.8387                 1.4343
 IR Inten    --      1.1670                 9.8233                 0.1338

                     67                     68                     69
                      A                      A                      A
 Frequencies --   1522.7363              1527.7966              1535.7449
 Red. masses --      1.1061                 2.9282                 1.0529
 Frc consts  --      1.5111                 4.0270                 1.4631
 IR Inten    --      8.9418                79.4520                 2.2473

                     70                     71                     72
                      A                      A                      A
 Frequencies --   1536.2982              1542.5258              1557.5378
 Red. masses --      1.0622                 1.0531                 4.3347
 Frc consts  --      1.4771                 1.4764                 6.1957
 IR Inten    --      6.3531                 9.5632                39.7712

                     73                     74                     75
                      A                      A                      A
 Frequencies --   1569.4659              1635.5905              1674.2297
 Red. masses --      2.8226                 6.7771                 5.0955
 Frc consts  --      4.0964                10.6818                 8.4152
 IR Inten    --    146.1531                 3.7210                24.3190

                     76                     77                     78
                      A                      A                      A
 Frequencies --   1693.5995              3048.4379              3053.2708
 Red. masses --      1.1281                 1.0397                 1.0372
 Frc consts  --      1.9065                 5.6926                 5.6972
 IR Inten    --     38.8278                15.2791                40.7748

                     79                     80                     81
                      A                      A                      A
 Frequencies --   3054.8189              3093.4051              3115.5766
 Red. masses --      1.0565                 1.1015                 1.1014
 Frc consts  --      5.8091                 6.2104                 6.2989
 IR Inten    --      9.9482                 3.0976                13.4449

                     82                     83                     84
                      A                      A                      A
 Frequencies --   3118.1549              3120.0872              3127.4355
 Red. masses --      1.1020                 1.1028                 1.1018
 Frc consts  --      6.3130                 6.3253                 6.3492
 IR Inten    --     47.1295                49.4698                37.4774

                     85                     86                     87
                      A                      A                      A
 Frequencies --   3205.3440              3207.0069              3222.5306
 Red. masses --      1.0879                 1.0893                 1.0930
 Frc consts  --      6.5853                 6.6010                 6.6877
 IR Inten    --     13.7284                 3.1931                10.7501

                     88                     89                     90
                      A                      A                      A
 Frequencies --   3231.2360              3262.5546              3272.7699
 Red. masses --      1.0923                 1.0928                 1.0962
 Frc consts  --      6.7197                 6.8531                 6.9177
 IR Inten    --      1.4616                 9.2322                 0.3621

                     91                     92                     93
                      A                      A                      A
 Frequencies --   3300.0794              3460.4755              3548.1207
 Red. masses --      1.1026                 1.0505                 1.0910
 Frc consts  --      7.0747                 7.4115                 8.0922
 IR Inten    --      2.0421                 1.4796                 2.0932

 - Thermochemistry -
 -------------------
 Temperature   298.150 Kelvin.  Pressure   1.00000 Atm.
 Atom     1 has atomic number  6 and mass  12.00000

 Molecular mass:   215.14225 amu.
 Principal axes and moments of inertia in atomic units:
                           1         2         3
     Eigenvalues --  1027.546298275.828638547.86597
           X            0.99997   0.00662   0.00350
           Y           -0.00656   0.99987  -0.01440
           Z           -0.00359   0.01438   0.99989
 This molecule is an asymmetric top.
 Rotational symmetry number  1.
 Warning -- assumption of classical behavior for rotation
           may cause significant error
 Rotational temperatures (Kelvin)      0.08429     0.01047     0.01013
 Rotational constants (GHZ):           1.75636     0.21807     0.21113
 Zero-point vibrational energy     743788.8 (Joules/Mol)
                                  177.76980 (Kcal/Mol)
 Warning -- explicit consideration of  21 degrees of freedom as
           vibrations may cause significant error
 Vibrational temperatures:     34.50    65.87   101.71   114.27   151.87
          (Kelvin)            182.73   312.27   324.41   359.65   373.44
                              436.11   445.19   457.25   511.85   585.31
                              608.39   609.73   647.64   683.66   714.26
                              831.11   910.75   918.56   949.40   973.06
                             1041.94  1068.43  1085.99  1136.92  1156.38
                             1205.79  1221.02  1223.32  1252.16  1311.60
                             1326.18  1378.18  1383.57  1424.63  1430.49
                             1459.99  1474.22  1501.09  1552.94  1555.41
                             1581.62  1627.53  1650.97  1654.46  1670.66
                             1742.14  1756.39  1827.93  1836.14  1869.19
                             1904.74  1930.08  1933.37  1944.92  1964.22
                             2012.54  2045.02  2065.20  2072.70  2109.56
                             2166.77  2190.88  2198.16  2209.59  2210.39
                             2219.35  2240.95  2258.11  2353.25  2408.84
                             2436.71  4386.02  4392.98  4395.20  4450.72
                             4482.62  4486.33  4489.11  4499.68  4611.78
                             4614.17  4636.50  4649.03  4694.09  4708.79
                             4748.08  4978.85  5104.95

 Zero-point correction=                           0.283294 (Hartree/Particle)
 Thermal correction to Energy=                    0.298172
 Thermal correction to Enthalpy=                  0.299116
 Thermal correction to Gibbs Free Energy=         0.240514
 Sum of electronic and zero-point Energies=           -669.649100
 Sum of electronic and thermal Energies=              -669.634223
 Sum of electronic and thermal Enthalpies=            -669.633278
 Sum of electronic and thermal Free Energies=         -669.691881

                     E (Thermal)             CV                S
                      KCal/Mol        Cal/Mol-Kelvin    Cal/Mol-Kelvin
 Total                  187.106             58.314            123.339
 Electronic               0.000              0.000              0.000
 Translational            0.889              2.981             42.002
 Rotational               0.889              2.981             32.652
 Vibrational            185.328             52.353             48.685
 Vibration     1          0.593              1.985              6.274
 Vibration     2          0.595              1.979              4.992
 Vibration     3          0.598              1.968              4.134
 Vibration     4          0.600              1.963              3.905
 Vibration     5          0.605              1.945              3.349
 Vibration     6          0.611              1.926              2.991
 Vibration     7          0.646              1.815              1.984
 Vibration     8          0.650              1.802              1.915
 Vibration     9          0.663              1.763              1.731
 Vibration    10          0.668              1.747              1.665
 Vibration    11          0.695              1.668              1.400
 Vibration    12          0.699              1.656              1.365
 Vibration    13          0.704              1.640              1.321
 Vibration    14          0.731              1.563              1.141
 Vibration    15          0.772              1.455              0.938
 Vibration    16          0.785              1.421              0.882
 Vibration    17          0.786              1.419              0.879
 Vibration    18          0.809              1.361              0.795
 Vibration    19          0.832              1.305              0.723
 Vibration    20          0.852              1.258              0.667
 Vibration    21          0.934              1.080              0.490

 Optimization completed.
    -- Stationary point found.
 Normal termination of Gaussian 16 at Fri Dec 11 00:10:26 2020.

 ----------------------------------------------------------------------
 # B3LYP/6-311++G(d,p) empiricaldispersion=gd3bj scf=xqc pop=npa geom=c
 heck
 ----------------------------------------------------------------------

 ---------------------------------------
 CID_130134280_JID_6594_Energie_neutraal
 ---------------------------------------
 Structure from the checkpoint file:  "JID_6594.chk"
 Charge =  0 Multiplicity = 1

 SCF Done:  E(RB3LYP) =  -670.115482659     A.U. after   15 cycles
 Normal termination of Gaussian 16 at Fri Dec 11 00:15:50 2020.

 ----------------------------------------------------------------------
 # B3LYP/6-311++G(d,p) empiricaldispersion=gd3bj scf=xqc pop=npa geom=c
 heck
 ----------------------------------------------------------------------

 -------------------------------------
 CID_130134280_JID_6594_Energie_kation
 -------------------------------------
 Structure from the checkpoint file:  "JID_6594.chk"
 Charge =  1 Multiplicity = 2

 SCF Done:  E(UB3LYP) =  -669.822129678     A.U. after   26 cycles
 Normal termination of Gaussian 16 at Fri Dec 11 00:28:09 2020.
 Gaussian 16:  ES64L-G16RevA.03 25-Dec-2016

 ----------------------------------------------------------------------
 # B3LYP/6-311++G(d,p) empiricaldispersion=gd3bj scf=xqc pop=npa geom=c
 heck
 ----------------------------------------------------------------------

 ------------------------------------
 CID_130134280_JID_6594_Energie_anion
 ------------------------------------
 Structure from the checkpoint file:  "JID_6594.chk"
 Charge = -1 Multiplicity = 2

                         Standard orientation:
 ---------------------------------------------------------------------
 Center     Atomic      Atomic             Coordinates (Angstroms)
 Number     Number       Type             X           Y           Z
 ---------------------------------------------------------------------
      1          6           0       -4.851091   -0.241351   -1.329132
      2          6           0       -3.332183   -0.274982   -1.135123
      3          6           0       -2.826118    0.071827    0.291384
      4          6           0       -3.383140   -0.927870    1.326358
      5          6           0       -1.295041    0.043968    0.250959
      6          6           0       -0.564683   -1.118059    0.528367
      7          6           0        0.825847   -1.138024    0.446465
      8          6           0        1.517367    0.011768    0.059121
      9          6           0        0.805380    1.177786   -0.233976
     10          6           0       -0.582270    1.189512   -0.130764
     11          7           0        2.931333   -0.007693   -0.038560
     12          6           0        3.805444    1.015758    0.297919
     13          6           0        5.059231    0.536655    0.018946
     14          7           0        4.990902   -0.744854   -0.489286
     15          6           0        3.710768   -1.039902   -0.508664
     16          7           0       -3.245122    1.454775    0.600603
     17          1           0       -5.368686   -0.953429   -0.677409
     18          1           0       -5.103741   -0.501018   -2.362805
     19          1           0       -5.261808    0.757103   -1.140917
     20          1           0       -2.951722   -1.271180   -1.392530
     21          1           0       -2.863258    0.431069   -1.829160
     22          1           0       -3.212784   -1.972247    1.042940
     23          1           0       -2.924454   -0.762743    2.307671
     24          1           0       -4.464287   -0.793449    1.433041
     25          1           0       -1.075041   -2.025702    0.830972
     26          1           0        1.376323   -2.036308    0.706679
     27          1           0        1.338163    2.065011   -0.561209
     28          1           0       -1.136441    2.093381   -0.356450
     29          1           0        3.450655    1.938822    0.728794
     30          1           0        6.008352    1.036043    0.157801
     31          1           0        3.272524   -1.956638   -0.877591
     32          1           0       -4.261163    1.486869    0.662772
     33          1           0       -2.899485    1.706307    1.526927
 ---------------------------------------------------------------------

 SCF Done:  E(UB3LYP) =  -670.109277118     A.U. after   33 cycles
 SCF Done:  E(UB3LYP) =  -670.109277118     a.u. after    1 cycles

 The electronic state is 2-A.
 Alpha  occ. eigenvalues --  -14.28059 -14.20137 -14.18629 -10.12539 -10.11000
 Alpha  occ. eigenvalues --  -10.10716 -10.10449 -10.09283 -10.07664 -10.07269
 Alpha  occ. eigenvalues --  -10.06993 -10.06751 -10.06662 -10.06032 -10.05441
 Alpha  occ. eigenvalues --  -10.05400  -0.92674  -0.80445  -0.79472  -0.74244
 Alpha  occ. eigenvalues --   -0.67427  -0.66112  -0.64832  -0.63798  -0.60955
 Alpha  occ. eigenvalues --   -0.55595  -0.52536  -0.52137  -0.49002  -0.48009
 Alpha  occ. eigenvalues --   -0.45676  -0.45066  -0.40348  -0.37988  -0.36612
 Alpha  occ. eigenvalues --   -0.35631  -0.35413  -0.35029  -0.33464  -0.33223
 Alpha  occ. eigenvalues --   -0.32349  -0.31937  -0.30776  -0.29860  -0.29471
 Alpha  occ. eigenvalues --   -0.28524  -0.28090  -0.26521  -0.24636  -0.23644
 Alpha  occ. eigenvalues --   -0.22815  -0.22245  -0.20054  -0.18419  -0.15780
 Alpha  occ. eigenvalues --   -0.14954  -0.14373  -0.12957   0.04188
 Alpha virt. eigenvalues --    0.06527   0.07265   0.07743   0.07961   0.08334
 Alpha virt. eigenvalues --    0.08609   0.09235   0.09791   0.10357   0.10688
 Alpha virt. eigenvalues --    0.10730   0.11395   0.11902   0.12340   0.12657

  Beta  occ. eigenvalues --  -14.28079 -14.20124 -14.18582 -10.12465 -10.10827
  Beta  occ. eigenvalues --  -10.10724 -10.10398 -10.09276 -10.07673 -10.07221
  Beta  occ. eigenvalues --  -10.06957 -10.06687 -10.06594 -10.06017 -10.05393
  Beta  occ. eigenvalues --  -10.05356  -0.92608  -0.80317  -0.79375  -0.74126
  Beta  occ. eigenvalues --   -0.67301  -0.66005  -0.64697  -0.63669  -0.60862
  Beta  occ. eigenvalues --   -0.55438  -0.52463  -0.52031  -0.48932  -0.47904
  Beta  occ. eigenvalues --   -0.45605  -0.44982  -0.40276  -0.37901  -0.36532
  Beta  occ. eigenvalues --   -0.35526  -0.35349  -0.34908  -0.33392  -0.33129
  Beta  occ. eigenvalues --   -0.32314  -0.31903  -0.30720  -0.29808  -0.29376
  Beta  occ. eigenvalues --   -0.28391  -0.28041  -0.26184  -0.24573  -0.23585
  Beta  occ. eigenvalues --   -0.22745  -0.22124  -0.19826  -0.18391  -0.15471
  Beta  occ. eigenvalues --   -0.14609  -0.14244  -0.12472
  Beta virt. eigenvalues --    0.06668   0.07282   0.07619   0.08134   0.08388
  Beta virt. eigenvalues --    0.08526   0.08840   0.09549   0.10200   0.10485
  Beta virt. eigenvalues --    0.10796   0.11070   0.11792   0.12132   0.12609

 Mulliken charges and spin densities:
               1          2
     1  C    1.382544  -1.940050
     2  C   -1.374578   0.848859
     3  C   -0.185354   0.582949
     4  C    1.004079  -1.609124
     5  C    0.408890   0.088263
     6  C   -0.114100  -0.131716
     7  C    0.585316  -0.584907
     8  C   -0.297820  -0.434080
     9  C   -0.405505   0.330142
    10  C   -0.575460   0.315107
    11  N    0.286032  -0.013095
    12  C   -0.012697  -0.023145
    13  C   -0.256986   0.022593
    14  N   -0.168681   0.009529
    15  C   -0.105846  -0.022844
    16  N   -0.371671   0.045585
    17  H   -0.165563   0.305348
    18  H   -0.234943   0.383190
    19  H   -0.248990   0.376755
    20  H   -0.169084   0.328875
    21  H    0.155723   0.007021
    22  H   -0.216752   0.372976
    23  H    0.059693   0.076760
    24  H   -0.532561   0.693539
    25  H   -0.031677   0.167131
    26  H    0.118988   0.049925
    27  H    0.039473   0.124785
    28  H    0.104220   0.109076
    29  H    0.125973  -0.011216
    30  H    0.124458   0.006677
    31  H    0.098616   0.034180
    32  H   -0.036403   0.272769
    33  H    0.010666   0.218142
 Sum of Mulliken charges =  -1.00000   1.00000

 Dipole moment (field-independent basis, Debye):
    X=              6.1733    Y=              1.5287    Z=              1.1265  Tot=              6.4588
 Quadrupole moment (field-independent basis, Debye-Ang):
   XX=           -216.0235   YY=           -122.2939   ZZ=           -124.3324
   XY=              5.7263   XZ=              4.8413   YZ=             -0.3021

 Summary of Natural Population Analysis:

                                       Natural Population
                Natural  -----------------------------------------------
    Atom  No    Charge         Core      Valence    Rydberg      Total
 -----------------------------------------------------------------------
      C    1   -0.28981      0.99966     2.28491    0.00524     3.28981
      C    2   -0.18417      0.99959     2.17450    0.01009     3.18417
      C    3    0.04758      0.99954     1.93795    0.01493     2.95242
      C    4   -0.29510      0.99963     2.28776    0.00771     3.29510
      C    5    0.00721      0.99947     1.98072    0.01260     2.99279
      C    6   -0.09970      0.99954     2.08763    0.01254     3.09970
      C    7   -0.08959      0.99953     2.08529    0.00476     3.08959
      C    8    0.08632      0.99949     1.90074    0.01346     2.91368
      C    9   -0.09993      0.99953     2.09247    0.00793     3.09993
      C   10   -0.09602      0.99951     2.08764    0.00887     3.09602
      N   11   -0.20296      0.99963     2.69328    0.01006     3.70296
      C   12   -0.02927      0.99957     2.01977    0.00993     3.02927
      C   13   -0.04104      0.99960     2.02784    0.01360     3.04104
      N   14   -0.25736      0.99973     2.74691    0.01072     3.75736
      C   15    0.11636      0.99965     1.86632    0.01767     2.88364
      N   16   -0.42630      0.99976     2.91547    0.01107     3.92630
      H   17    0.09840      0.00000     0.40016    0.00144     0.40160
      H   18    0.10057      0.00000     0.39842    0.00100     0.39943
      H   19    0.09643      0.00000     0.40229    0.00128     0.40357
      H   20    0.09818      0.00000     0.40052    0.00130     0.40182
      H   21    0.10070      0.00000     0.39794    0.00136     0.39930
      H   22    0.09969      0.00000     0.39885    0.00146     0.40031
      H   23    0.10075      0.00000     0.39806    0.00118     0.39925
      H   24    0.10303      0.00000     0.39525    0.00172     0.39697
      H   25    0.10215      0.00000     0.39672    0.00114     0.39785
      H   26    0.09781      0.00000     0.40087    0.00132     0.40219
      H   27    0.10050      0.00000     0.39850    0.00101     0.39950
      H   28    0.11311      0.00000     0.38565    0.00125     0.38689
      H   29    0.10375      0.00000     0.39527    0.00098     0.39625
      H   30    0.09296      0.00000     0.40612    0.00092     0.40704
      H   31    0.09327      0.00000     0.40484    0.00190     0.40673
      H   32    0.17758      0.00000     0.32003    0.00239     0.32242
      H   33    0.17494      0.00000     0.32332    0.00174     0.32506
 =======================================================================
   * Total *    0.00003     15.99343    41.81200    0.19454    57.99997

 Normal termination of Gaussian 16 at Fri Dec 11 00:43:28 2020.
