 Gaussian 16, Revision A.03,

 -----------------------------------------------------------
 # opt freq B3LYP/6-31G(d) empiricaldispersion=gd3bj scf=xqc
 -----------------------------------------------------------

 ------------------------------
 CID_62517576_JID_3605_neutraal
 ------------------------------
 Symbolic Z-matrix:
 Charge =  0 Multiplicity = 1

 SCF Done:  E(RB3LYP) =  -598.933806583     A.U. after   13 cycles
 SCF Done:  E(RB3LYP) =  -598.939156604     A.U. after   11 cycles
 SCF Done:  E(RB3LYP) =  -598.939513025     A.U. after   10 cycles
 SCF Done:  E(RB3LYP) =  -598.939625589     A.U. after   10 cycles
 SCF Done:  E(RB3LYP) =  -598.939696949     A.U. after    9 cycles
 SCF Done:  E(RB3LYP) =  -598.939711142     A.U. after    9 cycles
 SCF Done:  E(RB3LYP) =  -598.939731309     A.U. after    9 cycles
 SCF Done:  E(RB3LYP) =  -598.939737755     A.U. after    9 cycles
 SCF Done:  E(RB3LYP) =  -598.939739261     A.U. after    8 cycles
 SCF Done:  E(RB3LYP) =  -598.939739571     A.U. after    7 cycles
 SCF Done:  E(RB3LYP) =  -598.939739625     A.U. after    6 cycles
 Optimization completed.
    -- Stationary point found.
 Normal termination of Gaussian 16 at Wed Dec  9 23:43:40 2020.

 --------------------------------------------------------------------
 #N Geom=AllCheck Guess=TCheck SCRF=Check GenChk RB3LYP/6-31G(d) Freq
 --------------------------------------------------------------------

 Structure from the checkpoint file:  "JID_3605.chk"
 ------------------------------
 CID_62517576_JID_3605_neutraal
 ------------------------------
 Charge =  0 Multiplicity = 1

 SCF Done:  E(RB3LYP) =  -598.939739625     A.U. after    1 cycles

  Exact polarizability: 135.806  -4.416 106.812   0.938   0.347 106.187
 Approx polarizability: 161.983  -2.089 157.204   2.467   0.155 158.366

                      1                      2                      3
                      A                      A                      A
 Frequencies --     25.7253                36.5612                64.8517
 Red. masses --      3.6511                 3.7359                 1.8091
 Frc consts  --      0.0014                 0.0029                 0.0045
 IR Inten    --      0.6216                 1.6402                 0.7048

                      4                      5                      6
                      A                      A                      A
 Frequencies --     73.3942               113.6073               115.0842
 Red. masses --      3.0479                 2.1231                 3.1774
 Frc consts  --      0.0097                 0.0161                 0.0248
 IR Inten    --      2.3932                 0.2071                 0.4172

                      7                      8                      9
                      A                      A                      A
 Frequencies --    172.0050               178.8947               198.9755
 Red. masses --      2.2479                 2.4803                 2.7919
 Frc consts  --      0.0392                 0.0468                 0.0651
 IR Inten    --      1.1767                 0.6011                14.2299

                     10                     11                     12
                      A                      A                      A
 Frequencies --    239.4746               260.7732               277.1254
 Red. masses --      1.4869                 3.0443                 2.1095
 Frc consts  --      0.0502                 0.1220                 0.0955
 IR Inten    --      2.2249                 0.2304                12.3344

                     13                     14                     15
                      A                      A                      A
 Frequencies --    303.9156               353.7236               365.2441
 Red. masses --      1.1959                 3.1205                 2.4441
 Frc consts  --      0.0651                 0.2300                 0.1921
 IR Inten    --    122.3128                 1.8827                 2.6517

                     16                     17                     18
                      A                      A                      A
 Frequencies --    414.9568               433.3743               452.2190
 Red. masses --      2.4805                 2.2527                 3.4397
 Frc consts  --      0.2516                 0.2493                 0.4144
 IR Inten    --      1.8755                 4.4962                 4.2300

                     19                     20                     21
                      A                      A                      A
 Frequencies --    481.5408               592.4946               604.3105
 Red. masses --      3.5511                 2.6397                 1.1626
 Frc consts  --      0.4852                 0.5460                 0.2501
 IR Inten    --      0.8721                 6.7925                95.3753

                     22                     23                     24
                      A                      A                      A
 Frequencies --    648.7161               676.9941               752.6534
 Red. masses --      2.6864                 2.4905                 1.7735
 Frc consts  --      0.6661                 0.6725                 0.5919
 IR Inten    --      4.2179                 1.0291                 3.0501

                     25                     26                     27
                      A                      A                      A
 Frequencies --    789.8148               797.7610               805.4090
 Red. masses --      1.2588                 2.0325                 1.5074
 Frc consts  --      0.4627                 0.7621                 0.5761
 IR Inten    --     52.1080                40.4733                 0.7398

                     28                     29                     30
                      A                      A                      A
 Frequencies --    838.8969               853.9494               896.5840
 Red. masses --      1.7539                 1.5051                 2.6371
 Frc consts  --      0.7272                 0.6467                 1.2490
 IR Inten    --      4.4975                 2.8394                 0.2382

                     31                     32                     33
                      A                      A                      A
 Frequencies --    911.4432               922.7301               956.1018
 Red. masses --      2.1372                 2.1212                 1.7269
 Frc consts  --      1.0461                 1.0641                 0.9301
 IR Inten    --      7.1445                12.6788                 9.1199

                     34                     35                     36
                      A                      A                      A
 Frequencies --    971.5962               995.8418              1023.1281
 Red. masses --      2.2136                 1.7735                 1.7968
 Frc consts  --      1.2312                 1.0362                 1.1082
 IR Inten    --     12.8282                 7.8328                29.1873

                     37                     38                     39
                      A                      A                      A
 Frequencies --   1038.9552              1060.0162              1061.2989
 Red. masses --      1.9583                 2.5592                 1.6968
 Frc consts  --      1.2455                 1.6943                 1.1261
 IR Inten    --      6.4026                 4.4416                 2.8891

                     40                     41                     42
                      A                      A                      A
 Frequencies --   1073.9907              1087.5156              1101.4124
 Red. masses --      2.1929                 2.1396                 3.3461
 Frc consts  --      1.4903                 1.4909                 2.3916
 IR Inten    --      3.6860                67.2747                41.9888

                     43                     44                     45
                      A                      A                      A
 Frequencies --   1129.9974              1142.2598              1166.8935
 Red. masses --      2.2962                 1.8200                 2.6024
 Frc consts  --      1.7275                 1.3991                 2.0878
 IR Inten    --     26.2323                18.2169                39.5939

                     46                     47                     48
                      A                      A                      A
 Frequencies --   1183.1082              1219.7801              1238.8829
 Red. masses --      1.6373                 1.3369                 1.4398
 Frc consts  --      1.3503                 1.1719                 1.3020
 IR Inten    --     15.2048                 3.8911                 6.4436

                     49                     50                     51
                      A                      A                      A
 Frequencies --   1264.6139              1272.2263              1280.3288
 Red. masses --      1.3595                 1.2738                 1.5296
 Frc consts  --      1.2810                 1.2148                 1.4773
 IR Inten    --     40.1107                 2.2317                 4.9352

                     52                     53                     54
                      A                      A                      A
 Frequencies --   1284.2851              1293.1695              1316.7976
 Red. masses --      1.4291                 1.3265                 1.3373
 Frc consts  --      1.3888                 1.3070                 1.3662
 IR Inten    --      6.8019                 0.7792                 0.4631

                     55                     56                     57
                      A                      A                      A
 Frequencies --   1325.8376              1348.3335              1358.3726
 Red. masses --      1.3671                 1.3311                 1.3854
 Frc consts  --      1.4159                 1.4258                 1.5061
 IR Inten    --      3.2521                 6.3079                 0.3880

                     58                     59                     60
                      A                      A                      A
 Frequencies --   1362.7410              1382.2025              1391.4620
 Red. masses --      1.3653                 1.5774                 1.3496
 Frc consts  --      1.4939                 1.7756                 1.5395
 IR Inten    --      6.6932                 7.9512                 4.3276

                     61                     62                     63
                      A                      A                      A
 Frequencies --   1408.4598              1417.3903              1435.4151
 Red. masses --      1.3107                 1.4509                 1.2778
 Frc consts  --      1.5319                 1.7173                 1.5512
 IR Inten    --     15.7249                 7.0495                39.1023

                     64                     65                     66
                      A                      A                      A
 Frequencies --   1442.7003              1468.2093              1501.6183
 Red. masses --      1.2347                 1.2629                 1.2141
 Frc consts  --      1.5141                 1.6039                 1.6129
 IR Inten    --      4.9140                85.6562                 7.4192

                     67                     68                     69
                      A                      A                      A
 Frequencies --   1517.7200              1521.0110              1522.9028
 Red. masses --      1.0746                 1.0860                 1.0747
 Frc consts  --      1.4584                 1.4802                 1.4685
 IR Inten    --      2.0892                 1.5866                 9.4456

                     70                     71                     72
                      A                      A                      A
 Frequencies --   1526.6372              1531.0767              1533.2480
 Red. masses --      1.0793                 1.0859                 1.0826
 Frc consts  --      1.4820                 1.4999                 1.4995
 IR Inten    --      6.0380                 2.6328                 3.4863

                     73                     74                     75
                      A                      A                      A
 Frequencies --   1536.4088              1542.1038              1554.3377
 Red. masses --      1.0716                 1.0869                 1.1027
 Frc consts  --      1.4904                 1.5229                 1.5697
 IR Inten    --     20.5618                 8.5785                 0.8331

                     76                     77                     78
                      A                      A                      A
 Frequencies --   2998.4089              3031.1280              3043.5652
 Red. masses --      1.0690                 1.0708                 1.0488
 Frc consts  --      5.6625                 5.7962                 5.7239
 IR Inten    --     69.8654                 8.9811                14.3149

                     79                     80                     81
                      A                      A                      A
 Frequencies --   3045.9675              3052.5377              3055.1663
 Red. masses --      1.0670                 1.0618                 1.0642
 Frc consts  --      5.8326                 5.8292                 5.8526
 IR Inten    --     42.1764                17.6416                27.9976

                     82                     83                     84
                      A                      A                      A
 Frequencies --   3059.2535              3063.7143              3074.3161
 Red. masses --      1.0654                 1.0694                 1.0649
 Frc consts  --      5.8748                 5.9143                 5.9300
 IR Inten    --     26.9799                81.4471                38.1699

                     85                     86                     87
                      A                      A                      A
 Frequencies --   3081.7981              3084.4586              3089.3342
 Red. masses --      1.0961                 1.0946                 1.0993
 Frc consts  --      6.1335                 6.1356                 6.1817
 IR Inten    --     14.1328                33.1646                27.1402

                     88                     89                     90
                      A                      A                      A
 Frequencies --   3095.2027              3105.3250              3109.3472
 Red. masses --      1.1013                 1.1031                 1.1018
 Frc consts  --      6.2163                 6.2675                 6.2762
 IR Inten    --     14.4777                 3.8591                52.0029

                     91                     92                     93
                      A                      A                      A
 Frequencies --   3115.2767              3121.3621              3132.5810
 Red. masses --      1.1009                 1.1038                 1.0961
 Frc consts  --      6.2948                 6.3362                 6.3375
 IR Inten    --     56.1450                73.1044                21.9067

                     94                     95                     96
                      A                      A                      A
 Frequencies --   3492.1394              3591.3606              3752.2575
 Red. masses --      1.0735                 1.0641                 1.0659
 Frc consts  --      7.7129                 8.0864                 8.8417
 IR Inten    --      0.3946               105.6990                 9.9485

 - Thermochemistry -
 -------------------
 Temperature   298.150 Kelvin.  Pressure   1.00000 Atm.
 Atom     1 has atomic number  6 and mass  12.00000

 Molecular mass:   187.15723 amu.
 Principal axes and moments of inertia in atomic units:
                           1         2         3
     Eigenvalues --  1394.135604186.255884684.45518
           X            0.99981  -0.01851  -0.00577
           Y            0.01850   0.99983  -0.00072
           Z            0.00578   0.00061   0.99998
 This molecule is an asymmetric top.
 Rotational symmetry number  1.
 Warning -- assumption of classical behavior for rotation
           may cause significant error
 Rotational temperatures (Kelvin)      0.06213     0.02069     0.01849
 Rotational constants (GHZ):           1.29452     0.43111     0.38526
 Zero-point vibrational energy     817277.3 (Joules/Mol)
                                  195.33396 (Kcal/Mol)
 Warning -- explicit consideration of  21 degrees of freedom as
           vibrations may cause significant error
 Vibrational temperatures:     37.01    52.60    93.31   105.60   163.46
          (Kelvin)            165.58   247.48   257.39   286.28   344.55
                              375.19   398.72   437.27   508.93   525.50
                              597.03   623.53   650.64   692.83   852.47
                              869.47   933.36   974.04  1082.90  1136.37
                             1147.80  1158.80  1206.99  1228.64  1289.98
                             1311.36  1327.60  1375.62  1397.91  1432.79
                             1472.05  1494.82  1525.13  1526.97  1545.23
                             1564.69  1584.69  1625.81  1643.46  1678.90
                             1702.23  1754.99  1782.48  1819.50  1830.45
                             1842.11  1847.80  1860.58  1894.58  1907.58
                             1939.95  1954.40  1960.68  1988.68  2002.00
                             2026.46  2039.31  2065.24  2075.72  2112.43
                             2160.49  2183.66  2188.40  2191.12  2196.49
                             2202.88  2206.00  2210.55  2218.74  2236.35
                             4314.04  4361.12  4379.01  4382.47  4391.92
                             4395.70  4401.58  4408.00  4423.26  4434.02
                             4437.85  4444.86  4453.31  4467.87  4473.66
                             4482.19  4490.94  4507.09  5024.41  5167.17
                             5398.66

 Zero-point correction=                           0.311284 (Hartree/Particle)
 Thermal correction to Energy=                    0.326081
 Thermal correction to Enthalpy=                  0.327025
 Thermal correction to Gibbs Free Energy=         0.268483
 Sum of electronic and zero-point Energies=           -598.628455
 Sum of electronic and thermal Energies=              -598.613658
 Sum of electronic and thermal Enthalpies=            -598.612714
 Sum of electronic and thermal Free Energies=         -598.671256

                     E (Thermal)             CV                S
                      KCal/Mol        Cal/Mol-Kelvin    Cal/Mol-Kelvin
 Total                  204.619             55.553            123.212
 Electronic               0.000              0.000              0.000
 Translational            0.889              2.981             41.586
 Rotational               0.889              2.981             31.681
 Vibrational            202.842             49.591             49.945
 Vibration     1          0.593              1.985              6.134
 Vibration     2          0.594              1.982              5.437
 Vibration     3          0.597              1.971              4.304
 Vibration     4          0.599              1.967              4.060
 Vibration     5          0.607              1.938              3.206
 Vibration     6          0.608              1.937              3.181
 Vibration     7          0.626              1.877              2.413
 Vibration     8          0.629              1.868              2.340
 Vibration     9          0.637              1.841              2.143
 Vibration    10          0.657              1.780              1.807
 Vibration    11          0.669              1.744              1.657
 Vibration    12          0.678              1.716              1.551
 Vibration    13          0.695              1.666              1.395
 Vibration    14          0.730              1.568              1.150
 Vibration    15          0.738              1.544              1.100
 Vibration    16          0.778              1.438              0.909
 Vibration    17          0.794              1.398              0.848
 Vibration    18          0.811              1.356              0.789
 Vibration    19          0.838              1.291              0.706
 Vibration    20          0.950              1.048              0.463
 Vibration    21          0.963              1.023              0.442

                           ! Non-Optimized Parameters !
 Normal termination of Gaussian 16 at Wed Dec  9 23:52:39 2020.

 ----------------------------------------------------------------------
 # B3LYP/6-311++G(d,p) empiricaldispersion=gd3bj scf=xqc pop=npa geom=c
 heck
 ----------------------------------------------------------------------

 --------------------------------------
 CID_62517576_JID_3605_Energie_neutraal
 --------------------------------------
 Structure from the checkpoint file:  "JID_3605.chk"
 Charge =  0 Multiplicity = 1

 SCF Done:  E(RB3LYP) =  -599.131859201     A.U. after   14 cycles
 Normal termination of Gaussian 16 at Wed Dec  9 23:56:32 2020.

 ----------------------------------------------------------------------
 # B3LYP/6-311++G(d,p) empiricaldispersion=gd3bj scf=xqc pop=npa geom=c
 heck
 ----------------------------------------------------------------------

 ------------------------------------
 CID_62517576_JID_3605_Energie_kation
 ------------------------------------
 Structure from the checkpoint file:  "JID_3605.chk"
 Charge =  1 Multiplicity = 2

 SCF Done:  E(UB3LYP) =  -598.826565681     A.U. after   22 cycles
 Normal termination of Gaussian 16 at Thu Dec 10 00:04:15 2020.
 Gaussian 16:  ES64L-G16RevA.03 25-Dec-2016

 ----------------------------------------------------------------------
 # B3LYP/6-311++G(d,p) empiricaldispersion=gd3bj scf=xqc pop=npa geom=c
 heck
 ----------------------------------------------------------------------

 -----------------------------------
 CID_62517576_JID_3605_Energie_anion
 -----------------------------------
 Structure from the checkpoint file:  "JID_3605.chk"
 Charge = -1 Multiplicity = 2

                         Standard orientation:
 ---------------------------------------------------------------------
 Center     Atomic      Atomic             Coordinates (Angstroms)
 Number     Number       Type             X           Y           Z
 ---------------------------------------------------------------------
      1          6           0       -4.009404    0.968783    0.652796
      2          6           0       -3.354689   -0.413575    0.579306
      3          6           0       -2.442624   -0.619064   -0.640476
      4          6           0       -1.211290    0.302809   -0.660302
      5          7           0       -0.294763   -0.137289    0.403113
      6          6           0        1.139786    0.138926    0.261180
      7          6           0        1.911932   -0.579139    1.391870
      8          6           0        3.337296   -0.832655    0.848908
      9          6           0        3.227659   -0.711268   -0.697945
     10          6           0        1.726272   -0.534256   -0.996573
     11          6           0        1.475423    1.646054    0.315762
     12          8           0        0.937033    2.415692   -0.750892
     13          8           0       -1.996652   -1.967421   -0.707136
     14          1           0       -3.270567    1.767068    0.788388
     15          1           0       -4.714112    1.027278    1.489406
     16          1           0       -4.566511    1.190600   -0.265858
     17          1           0       -2.777691   -0.610396    1.494195
     18          1           0       -4.124979   -1.192321    0.538402
     19          1           0       -3.029597   -0.433451   -1.549908
     20          1           0       -0.707392    0.161342   -1.618696
     21          1           0       -1.485830    1.362252   -0.594372
     22          1           0       -0.611836    0.233128    1.297077
     23          1           0        1.909055   -0.006394    2.327644
     24          1           0        1.395425   -1.524638    1.587577
     25          1           0        3.701611   -1.818120    1.154177
     26          1           0        4.049139   -0.101096    1.245083
     27          1           0        3.639995   -1.582033   -1.216194
     28          1           0        3.793633    0.157777   -1.052528
     29          1           0        1.228991   -1.503445   -1.116977
     30          1           0        1.546430    0.024717   -1.922177
     31          1           0        1.037070    2.067059    1.227846
     32          1           0        2.565871    1.787599    0.387914
     33          1           0        1.374921    2.134420   -1.568343
     34          1           0       -1.215501   -1.966176   -0.117372
 ---------------------------------------------------------------------

 SCF Done:  E(UB3LYP) =  -599.120080932     A.U. after   27 cycles

 The electronic state is 2-A.
 Alpha  occ. eigenvalues --  -19.01770 -19.00863 -14.20462 -10.11623 -10.10823
 Alpha  occ. eigenvalues --  -10.10478 -10.08815 -10.06940 -10.06903 -10.06502
 Alpha  occ. eigenvalues --  -10.06448 -10.06349 -10.06287  -0.92034  -0.91714
 Alpha  occ. eigenvalues --   -0.81283  -0.72791  -0.68499  -0.63323  -0.61300
 Alpha  occ. eigenvalues --   -0.59402  -0.56096  -0.54279  -0.48389  -0.47147
 Alpha  occ. eigenvalues --   -0.44893  -0.42231  -0.39853  -0.38556  -0.37575
 Alpha  occ. eigenvalues --   -0.36519  -0.35929  -0.34789  -0.33809  -0.33392
 Alpha  occ. eigenvalues --   -0.31122  -0.30266  -0.29086  -0.28269  -0.26514
 Alpha  occ. eigenvalues --   -0.26129  -0.25376  -0.24890  -0.24197  -0.23626
 Alpha  occ. eigenvalues --   -0.23448  -0.22124  -0.21797  -0.21174  -0.18678
 Alpha  occ. eigenvalues --   -0.16970  -0.13070   0.04374
 Alpha virt. eigenvalues --    0.06190   0.07040   0.07826   0.08556   0.08778
 Alpha virt. eigenvalues --    0.09161   0.10031   0.10623   0.10927   0.11237
 Alpha virt. eigenvalues --    0.11809   0.12512   0.12743   0.13264   0.13855

  Beta  occ. eigenvalues --  -19.01734 -19.00859 -14.20450 -10.11619 -10.10789
  Beta  occ. eigenvalues --  -10.10480 -10.08806 -10.06929 -10.06880 -10.06483
  Beta  occ. eigenvalues --  -10.06433 -10.06317 -10.06253  -0.91965  -0.91698
  Beta  occ. eigenvalues --   -0.81261  -0.72758  -0.68476  -0.63277  -0.61246
  Beta  occ. eigenvalues --   -0.59351  -0.56013  -0.54233  -0.48348  -0.47088
  Beta  occ. eigenvalues --   -0.44828  -0.42174  -0.39804  -0.38526  -0.37528
  Beta  occ. eigenvalues --   -0.36449  -0.35898  -0.34762  -0.33771  -0.33358
  Beta  occ. eigenvalues --   -0.31094  -0.30222  -0.29059  -0.28233  -0.26479
  Beta  occ. eigenvalues --   -0.26094  -0.25352  -0.24860  -0.24153  -0.23586
  Beta  occ. eigenvalues --   -0.23409  -0.22082  -0.21760  -0.21152  -0.18643
  Beta  occ. eigenvalues --   -0.16960  -0.13049
  Beta virt. eigenvalues --    0.06501   0.07076   0.07789   0.08447   0.08971
  Beta virt. eigenvalues --    0.09134   0.09483   0.10429   0.10982   0.11283
  Beta virt. eigenvalues --    0.11412   0.12090   0.12738   0.12986   0.13488

 Mulliken charges and spin densities:
               1          2
     1  C    0.256684  -0.885659
     2  C   -0.265762   0.266298
     3  C    0.013016  -0.386165
     4  C   -0.476661   0.187389
     5  N    0.106906   0.034410
     6  C   -2.646324   2.077368
     7  C    0.489503  -0.768164
     8  C    0.035777  -0.529986
     9  C    0.910967  -1.356357
    10  C    0.110692  -0.117531
    11  C    1.921548  -2.306090
    12  O   -0.197200   0.052881
    13  O   -0.198532   0.003147
    14  H   -0.061875   0.216976
    15  H   -0.228952   0.365919
    16  H   -0.011669   0.137060
    17  H   -0.102094   0.234592
    18  H    0.118577   0.049729
    19  H    0.027074   0.162782
    20  H    0.170028   0.050366
    21  H    0.181312  -0.020381
    22  H    0.244959   0.008473
    23  H   -0.278756   0.440640
    24  H    0.028754   0.125363
    25  H   -0.016538   0.143184
    26  H   -0.117299   0.282802
    27  H   -0.177636   0.334632
    28  H   -0.393641   0.570535
    29  H    0.121748   0.027852
    30  H   -0.295830   0.434128
    31  H   -0.256528   0.446986
    32  H   -0.158670   0.333806
    33  H   -0.100618   0.352328
    34  H    0.247039   0.030687
 Sum of Mulliken charges =  -1.00000   1.00000

 Dipole moment (field-independent basis, Debye):
    X=             -2.9168    Y=             -2.3630    Z=              0.2904  Tot=              3.7651
 Quadrupole moment (field-independent basis, Debye-Ang):
   XX=           -154.2378   YY=           -126.6472   ZZ=           -120.4734
   XY=             -6.1495   XZ=              6.8334   YZ=             -2.3069

 Summary of Natural Population Analysis:

                                       Natural Population
                Natural  -----------------------------------------------
    Atom  No    Charge         Core      Valence    Rydberg      Total
 -----------------------------------------------------------------------
      C    1   -0.28994      0.99967     2.28495    0.00532     3.28994
      C    2   -0.20423      0.99962     2.19465    0.00997     3.20423
      C    3    0.06238      0.99956     1.92430    0.01375     2.93762
      C    4   -0.10021      0.99959     2.09095    0.00967     3.10021
      N    5   -0.36019      0.99970     2.84770    0.01278     3.86019
      C    6    0.05158      0.99953     1.93286    0.01604     2.94842
      C    7   -0.19176      0.99959     2.18236    0.00981     3.19176
      C    8   -0.19377      0.99964     2.18629    0.00784     3.19377
      C    9   -0.19286      0.99964     2.18499    0.00824     3.19286
      C   10   -0.19895      0.99958     2.18838    0.01099     3.19895
      C   11   -0.01387      0.99950     2.00004    0.01433     3.01387
      O   12   -0.37012      0.99990     3.36311    0.00710     4.37012
      O   13   -0.38216      0.99990     3.37519    0.00707     4.38216
      H   14    0.09928      0.00000     0.39962    0.00111     0.40072
      H   15    0.09937      0.00000     0.39968    0.00095     0.40063
      H   16    0.09468      0.00000     0.40432    0.00100     0.40532
      H   17    0.09449      0.00000     0.40424    0.00128     0.40551
      H   18    0.09867      0.00000     0.40019    0.00114     0.40133
      H   19    0.08225      0.00000     0.41656    0.00119     0.41775
      H   20    0.09952      0.00000     0.39895    0.00153     0.40048
      H   21    0.09576      0.00000     0.40282    0.00142     0.40424
      H   22    0.17792      0.00000     0.31881    0.00327     0.32208
      H   23    0.10158      0.00000     0.39707    0.00135     0.39842
      H   24    0.10213      0.00000     0.39639    0.00148     0.39787
      H   25    0.09753      0.00000     0.40150    0.00096     0.40247
      H   26    0.09892      0.00000     0.39969    0.00139     0.40108
      H   27    0.09945      0.00000     0.39956    0.00098     0.40055
      H   28    0.10028      0.00000     0.39726    0.00247     0.39972
      H   29    0.10338      0.00000     0.39506    0.00157     0.39662
      H   30    0.10074      0.00000     0.39741    0.00184     0.39926
      H   31    0.08706      0.00000     0.41135    0.00160     0.41294
      H   32    0.08385      0.00000     0.41409    0.00206     0.41615
      H   33    0.23069      0.00000     0.26429    0.00502     0.26931
      H   34    0.23657      0.00000     0.26013    0.00330     0.26343
 =======================================================================
   * Total *   -0.00000     12.99542    38.83477    0.16981    52.00000

 Normal termination of Gaussian 16 at Thu Dec 10 00:13:29 2020.
