 Gaussian 16, Revision A.03,

 -----------------------------------------------------------
 # opt freq B3LYP/6-31G(d) empiricaldispersion=gd3bj scf=xqc
 -----------------------------------------------------------

 -------------------------------
 CID_149143920_JID_3618_neutraal
 -------------------------------
 Symbolic Z-matrix:
 Charge =  0 Multiplicity = 1

 SCF Done:  E(RB3LYP) =  -499.960722820     A.U. after   20 cycles
 SCF Done:  E(RB3LYP) =  -500.020250817     A.U. after   16 cycles
 SCF Done:  E(RB3LYP) =  -500.051964483     A.U. after   14 cycles
 SCF Done:  E(RB3LYP) =  -500.062313164     A.U. after   14 cycles
 SCF Done:  E(RB3LYP) =  -500.070617449     A.U. after   15 cycles
 SCF Done:  E(RB3LYP) =  -500.072909639     A.U. after   14 cycles
 SCF Done:  E(RB3LYP) =  -500.073885346     A.U. after   13 cycles
 SCF Done:  E(RB3LYP) =  -500.074255849     A.U. after   13 cycles
 SCF Done:  E(RB3LYP) =  -500.074737852     A.U. after   13 cycles
 SCF Done:  E(RB3LYP) =  -500.075023363     A.U. after   13 cycles
 SCF Done:  E(RB3LYP) =  -500.075610397     A.U. after    8 cycles
 SCF Done:  E(RB3LYP) =  -500.075614649     A.U. after   10 cycles
 SCF Done:  E(RB3LYP) =  -500.075616490     A.U. after    9 cycles
 SCF Done:  E(RB3LYP) =  -500.075618909     A.U. after    9 cycles
 SCF Done:  E(RB3LYP) =  -500.075620020     A.U. after   10 cycles
 SCF Done:  E(RB3LYP) =  -500.075620322     A.U. after    9 cycles
 Optimization completed.
    -- Stationary point found.
 Normal termination of Gaussian 16 at Wed Dec  9 23:52:13 2020.

 --------------------------------------------------------------------
 #N Geom=AllCheck Guess=TCheck SCRF=Check GenChk RB3LYP/6-31G(d) Freq
 --------------------------------------------------------------------

 Structure from the checkpoint file:  "JID_3618.chk"
 -------------------------------
 CID_149143920_JID_3618_neutraal
 -------------------------------
 Charge =  0 Multiplicity = 1

 SCF Done:  E(RB3LYP) =  -500.075620322     A.U. after    1 cycles

  Exact polarizability: 207.574  -4.468 124.207  -1.207  -0.872  55.590
 Approx polarizability: 315.984 -11.424 235.119  -2.933   1.559  92.675

                      1                      2                      3
                      A                      A                      A
 Frequencies --     60.3234                81.0489               113.1252
 Red. masses --      5.3868                 4.6334                 4.8111
 Frc consts  --      0.0115                 0.0179                 0.0363
 IR Inten    --      7.1730                 0.8171                 3.8402

                      4                      5                      6
                      A                      A                      A
 Frequencies --    156.9655               285.7881               305.7513
 Red. masses --      4.9661                 4.6662                 7.1713
 Frc consts  --      0.0721                 0.2245                 0.3950
 IR Inten    --      9.5722                 1.6742                 0.3235

                      7                      8                      9
                      A                      A                      A
 Frequencies --    362.5116               398.1265               418.5524
 Red. masses --      4.8705                 3.0973                 3.0203
 Frc consts  --      0.3771                 0.2893                 0.3118
 IR Inten    --      0.0309                 0.3269                 1.1493

                     10                     11                     12
                      A                      A                      A
 Frequencies --    446.5202               514.7271               583.9615
 Red. masses --      5.8601                 4.0466                 4.7484
 Frc consts  --      0.6884                 0.6317                 0.9540
 IR Inten    --      5.2172                 9.3361                 1.0422

                     13                     14                     15
                      A                      A                      A
 Frequencies --    592.3617               636.2321               665.0620
 Red. masses --      6.0464                 6.4117                 6.9975
 Frc consts  --      1.2500                 1.5292                 1.8236
 IR Inten    --      2.8126                 0.3808                 6.1754

                     16                     17                     18
                      A                      A                      A
 Frequencies --    714.2861               738.6331               774.9621
 Red. masses --      1.8674                 3.4762                 1.8179
 Frc consts  --      0.5614                 1.1174                 0.6433
 IR Inten    --     24.3553                 0.6392                46.7602

                     19                     20                     21
                      A                      A                      A
 Frequencies --    799.6001               848.6046               861.4269
 Red. masses --      6.1153                 1.7985                 1.2484
 Frc consts  --      2.3036                 0.7631                 0.5458
 IR Inten    --      2.3716                16.6521                 1.0107

                     22                     23                     24
                      A                      A                      A
 Frequencies --    911.6156               934.9648               938.8249
 Red. masses --      1.3270                 2.3176                 2.3377
 Frc consts  --      0.6498                 1.1936                 1.2140
 IR Inten    --      1.9744                 1.1767                 1.6921

                     25                     26                     27
                      A                      A                      A
 Frequencies --    973.6127               999.9075              1002.3799
 Red. masses --      1.3555                 1.3139                 1.3045
 Frc consts  --      0.7571                 0.7740                 0.7722
 IR Inten    --      0.8392                 0.4558                 0.1512

                     28                     29                     30
                      A                      A                      A
 Frequencies --   1015.5953              1021.0032              1043.0334
 Red. masses --      3.5164                 5.6740                 4.0624
 Frc consts  --      2.1369                 3.4849                 2.6040
 IR Inten    --      0.6816                 1.8963                 2.5818

                     31                     32                     33
                      A                      A                      A
 Frequencies --   1070.1425              1118.2731              1178.1352
 Red. masses --      1.9183                 1.5892                 1.9148
 Frc consts  --      1.2943                 1.1709                 1.5659
 IR Inten    --      1.4045                 2.6180                52.6318

                     34                     35                     36
                      A                      A                      A
 Frequencies --   1196.7129              1213.2890              1223.5902
 Red. masses --      1.0980                 1.6672                 1.2661
 Frc consts  --      0.9265                 1.4460                 1.1168
 IR Inten    --      0.3030                39.1648                 4.3759

                     37                     38                     39
                      A                      A                      A
 Frequencies --   1288.9303              1311.8954              1338.7268
 Red. masses --      1.9550                 2.3930                 2.6731
 Frc consts  --      1.9137                 2.4265                 2.8226
 IR Inten    --     26.5050                18.1316                 4.4885

                     40                     41                     42
                      A                      A                      A
 Frequencies --   1370.1127              1405.0576              1453.9043
 Red. masses --      2.1227                 3.3251                 3.7285
 Frc consts  --      2.3477                 3.8676                 4.6436
 IR Inten    --      2.1463                16.0897                 0.9296

                     43                     44                     45
                      A                      A                      A
 Frequencies --   1486.6367              1499.1058              1548.8724
 Red. masses --      2.5100                 2.3876                 2.3173
 Frc consts  --      3.2683                 3.1614                 3.2754
 IR Inten    --     37.1556                 7.5828                 3.0667

                     46                     47                     48
                      A                      A                      A
 Frequencies --   1618.2370              1640.7385              1664.5648
 Red. masses --      5.2362                 5.4888                 5.5406
 Frc consts  --      8.0789                 8.7058                 9.0451
 IR Inten    --     33.1432                 3.0203                 0.0877

                     49                     50                     51
                      A                      A                      A
 Frequencies --   1710.0435              3183.2887              3187.7445
 Red. masses --     10.6849                 1.0875                 1.0854
 Frc consts  --     18.4092                 6.4926                 6.4983
 IR Inten    --      3.9529                18.1019                 3.1743

                     52                     53                     54
                      A                      A                      A
 Frequencies --   3189.7157              3194.4194              3200.9042
 Red. masses --      1.0900                 1.0883                 1.0925
 Frc consts  --      6.5341                 6.5432                 6.5953
 IR Inten    --     17.1418                 4.6546                 9.0152

                     55                     56                     57
                      A                      A                      A
 Frequencies --   3204.5417              3209.6291              3217.3535
 Red. masses --      1.0923                 1.0941                 1.0981
 Frc consts  --      6.6089                 6.6405                 6.6972
 IR Inten    --     14.2750                31.5937                17.0684

 - Thermochemistry -
 -------------------
 Temperature   298.150 Kelvin.  Pressure   1.00000 Atm.
 Atom     1 has atomic number  6 and mass  12.00000

 Molecular mass:   164.06260 amu.
 Principal axes and moments of inertia in atomic units:
                           1         2         3
     Eigenvalues --   675.452603888.803164420.78314
           X            0.99996   0.00812   0.00216
           Y           -0.00810   0.99993  -0.00872
           Z           -0.00223   0.00871   0.99996
 This molecule is an asymmetric top.
 Rotational symmetry number  1.
 Warning -- assumption of classical behavior for rotation
           may cause significant error
 Rotational temperatures (Kelvin)      0.12823     0.02227     0.01959
 Rotational constants (GHZ):           2.67190     0.46409     0.40824
 Zero-point vibrational energy     425416.4 (Joules/Mol)
                                  101.67697 (Kcal/Mol)
 Warning -- explicit consideration of  13 degrees of freedom as
           vibrations may cause significant error
 Vibrational temperatures:     86.79   116.61   162.76   225.84   411.19
          (Kelvin)            439.91   521.57   572.82   602.20   642.44
                              740.58   840.19   852.28   915.40   956.88
                             1027.70  1062.73  1115.00  1150.45  1220.95
                             1239.40  1311.61  1345.21  1350.76  1400.81
                             1438.64  1442.20  1461.22  1469.00  1500.69
                             1539.70  1608.95  1695.07  1721.80  1745.65
                             1760.47  1854.48  1887.52  1926.13  1971.29
                             2021.56  2091.84  2138.94  2156.88  2228.48
                             2328.28  2360.66  2394.94  2460.37  4580.04
                             4586.45  4589.29  4596.06  4605.39  4610.62
                             4617.94  4629.05

 Zero-point correction=                           0.162033 (Hartree/Particle)
 Thermal correction to Energy=                    0.171728
 Thermal correction to Enthalpy=                  0.172672
 Thermal correction to Gibbs Free Energy=         0.126190
 Sum of electronic and zero-point Energies=           -499.913588
 Sum of electronic and thermal Energies=              -499.903893
 Sum of electronic and thermal Enthalpies=            -499.902949
 Sum of electronic and thermal Free Energies=         -499.949431

                     E (Thermal)             CV                S
                      KCal/Mol        Cal/Mol-Kelvin    Cal/Mol-Kelvin
 Total                  107.761             38.235             97.830
 Electronic               0.000              0.000              0.000
 Translational            0.889              2.981             41.194
 Rotational               0.889              2.981             30.830
 Vibrational            105.983             32.273             25.806
 Vibration     1          0.597              1.973              4.447
 Vibration     2          0.600              1.962              3.865
 Vibration     3          0.607              1.939              3.215
 Vibration     4          0.621              1.895              2.586
 Vibration     5          0.684              1.700              1.499
 Vibration     6          0.696              1.663              1.385
 Vibration     7          0.736              1.549              1.111
 Vibration     8          0.764              1.474              0.970
 Vibration     9          0.781              1.430              0.897
 Vibration    10          0.806              1.369              0.806
 Vibration    11          0.870              1.217              0.622
 Vibration    12          0.941              1.066              0.478
 Vibration    13          0.950              1.048              0.463

                           ! Non-Optimized Parameters !
 Normal termination of Gaussian 16 at Wed Dec  9 23:57:14 2020.

 ----------------------------------------------------------------------
 # B3LYP/6-311++G(d,p) empiricaldispersion=gd3bj scf=xqc pop=npa geom=c
 heck
 ----------------------------------------------------------------------

 ---------------------------------------
 CID_149143920_JID_3618_Energie_neutraal
 ---------------------------------------
 Structure from the checkpoint file:  "JID_3618.chk"
 Charge =  0 Multiplicity = 1

 SCF Done:  E(RB3LYP) =  -500.196910397     A.U. after   15 cycles
 Normal termination of Gaussian 16 at Wed Dec  9 23:59:19 2020.

 ----------------------------------------------------------------------
 # B3LYP/6-311++G(d,p) empiricaldispersion=gd3bj scf=xqc pop=npa geom=c
 heck
 ----------------------------------------------------------------------

 -------------------------------------
 CID_149143920_JID_3618_Energie_kation
 -------------------------------------
 Structure from the checkpoint file:  "JID_3618.chk"
 Charge =  1 Multiplicity = 2

 SCF Done:  E(UB3LYP) =  -499.906067876     A.U. after   26 cycles
 Normal termination of Gaussian 16 at Thu Dec 10 00:04:25 2020.
 Gaussian 16:  ES64L-G16RevA.03 25-Dec-2016

 ----------------------------------------------------------------------
 # B3LYP/6-311++G(d,p) empiricaldispersion=gd3bj scf=xqc pop=npa geom=c
 heck
 ----------------------------------------------------------------------

 ------------------------------------
 CID_149143920_JID_3618_Energie_anion
 ------------------------------------
 Structure from the checkpoint file:  "JID_3618.chk"
 Charge = -1 Multiplicity = 2

                         Standard orientation:
 ---------------------------------------------------------------------
 Center     Atomic      Atomic             Coordinates (Angstroms)
 Number     Number       Type             X           Y           Z
 ---------------------------------------------------------------------
      1          6           0       -3.745320   -0.085176   -0.013929
      2          6           0       -3.013591   -1.198957    0.400871
      3          6           0       -1.621327   -1.159076    0.407465
      4          6           0       -0.935440   -0.003191    0.001384
      5          6           0       -1.683098    1.112143   -0.409508
      6          6           0       -3.075316    1.069791   -0.420445
      7          6           0        0.545482    0.026434   -0.004424
      8          6           0        1.275663   -1.088794   -0.401200
      9          6           0        2.670871   -0.935126   -0.322903
     10          6           0        4.117005   -0.928015   -0.244236
     11          6           0        3.290375    0.214691    0.062341
     12          6           0        2.589043    1.381669    0.433049
     13          6           0        1.218587    1.240857    0.404810
     14          1           0       -4.830928   -0.116176   -0.018490
     15          1           0       -3.527535   -2.098087    0.728102
     16          1           0       -1.056689   -2.018452    0.755933
     17          1           0       -1.170499    2.006302   -0.751814
     18          1           0       -3.637318    1.937998   -0.752208
     19          1           0        0.776889   -1.983460   -0.764156
     20          1           0        3.058168    2.317541    0.726346
     21          1           0        0.590312    2.070834    0.716643
 ---------------------------------------------------------------------

 SCF Done:  E(UB3LYP) =  -500.235751124     A.U. after   24 cycles

 The electronic state is 2-A.
 Alpha  occ. eigenvalues --  -10.06791 -10.06763 -10.06343 -10.06326 -10.05949
 Alpha  occ. eigenvalues --  -10.05769 -10.04170 -10.04093 -10.03064 -10.02286
 Alpha  occ. eigenvalues --  -10.02113 -10.02041 -10.01499  -0.75276  -0.74214
 Alpha  occ. eigenvalues --   -0.67785  -0.63860  -0.63172  -0.59868  -0.52449
 Alpha  occ. eigenvalues --   -0.49800  -0.47937  -0.43471  -0.40685  -0.38486
 Alpha  occ. eigenvalues --   -0.34949  -0.34162  -0.31825  -0.31308  -0.30545
 Alpha  occ. eigenvalues --   -0.28631  -0.26622  -0.26106  -0.24390  -0.23585
 Alpha  occ. eigenvalues --   -0.23405  -0.19647  -0.17125  -0.16403  -0.14887
 Alpha  occ. eigenvalues --   -0.13555  -0.11484  -0.04491   0.02087
 Alpha virt. eigenvalues --    0.07227   0.08757   0.08850   0.09293   0.09678
 Alpha virt. eigenvalues --    0.10678   0.11995   0.12495   0.12801   0.13997
 Alpha virt. eigenvalues --    0.14337   0.15568   0.15732   0.16321   0.17154

  Beta  occ. eigenvalues --  -10.06809 -10.06789 -10.06322 -10.06219 -10.05891
  Beta  occ. eigenvalues --  -10.05705 -10.04156 -10.03938 -10.02746 -10.02377
  Beta  occ. eigenvalues --  -10.02187 -10.01639 -10.01007  -0.75034  -0.73956
  Beta  occ. eigenvalues --   -0.67352  -0.63755  -0.62838  -0.59226  -0.51800
  Beta  occ. eigenvalues --   -0.49691  -0.47646  -0.43324  -0.40453  -0.38199
  Beta  occ. eigenvalues --   -0.34836  -0.34062  -0.31739  -0.31160  -0.30273
  Beta  occ. eigenvalues --   -0.28464  -0.26381  -0.25742  -0.23657  -0.23403
  Beta  occ. eigenvalues --   -0.23092  -0.19198  -0.16352  -0.15855  -0.14643
  Beta  occ. eigenvalues --   -0.12349  -0.09612  -0.04005
  Beta virt. eigenvalues --    0.07206   0.07965   0.08741   0.09365   0.09638
  Beta virt. eigenvalues --    0.10145   0.10684   0.11994   0.12506   0.12801
  Beta virt. eigenvalues --    0.14133   0.14560   0.15693   0.15750   0.16509

 Mulliken charges and spin densities:
               1          2
     1  C   -0.429354   0.083196
     2  C   -0.228226  -0.010935
     3  C   -0.617171   0.033707
     4  C    1.464290   0.023003
     5  C   -0.782084   0.037347
     6  C   -0.209922  -0.018561
     7  C    1.073073   0.103225
     8  C   -1.193731   0.348787
     9  C    0.388335  -0.064217
    10  C   -0.451578   0.339644
    11  C    0.229328  -0.086224
    12  C   -0.651497   0.271811
    13  C   -0.509290  -0.016211
    14  H    0.116001  -0.006391
    15  H    0.131700   0.001988
    16  H    0.144194  -0.000847
    17  H    0.130042  -0.001053
    18  H    0.131927   0.000765
    19  H    0.076899  -0.019961
    20  H    0.087830  -0.017162
    21  H    0.099234  -0.001911
 Sum of Mulliken charges =  -1.00000   1.00000

 Dipole moment (field-independent basis, Debye):
    X=            -10.6579    Y=              2.6556    Z=              0.6997  Tot=             11.0061
 Quadrupole moment (field-independent basis, Debye-Ang):
   XX=           -146.4112   YY=            -83.5209   ZZ=            -85.5548
   XY=             12.7185   XZ=              3.2313   YZ=             -2.4803

 Summary of Natural Population Analysis:

                                       Natural Population
                Natural  -----------------------------------------------
    Atom  No    Charge         Core      Valence    Rydberg      Total
 -----------------------------------------------------------------------
      C    1   -0.09684      0.99957     2.08765    0.00962     3.09684
      C    2   -0.11255      0.99957     2.10380    0.00918     3.11255
      C    3   -0.08376      0.99953     2.07623    0.00800     3.08376
      C    4   -0.01158      0.99949     2.00276    0.00932     3.01158
      C    5   -0.08683      0.99953     2.07950    0.00780     3.08683
      C    6   -0.11224      0.99957     2.10346    0.00921     3.11224
      C    7    0.00463      0.99950     1.98576    0.01011     2.99537
      C    8   -0.02299      0.99946     2.01519    0.00834     3.02299
      C    9   -0.05178      0.99940     2.04055    0.01183     3.05178
      C   10    0.02668      0.99973     1.95860    0.01499     2.97332
      C   11   -0.06270      0.99939     2.05133    0.01198     3.06270
      C   12   -0.05243      0.99950     2.04398    0.00894     3.05243
      C   13   -0.08020      0.99955     2.07339    0.00727     3.08020
      H   14    0.09174      0.00000     0.40726    0.00100     0.40826
      H   15    0.09384      0.00000     0.40516    0.00100     0.40616
      H   16    0.10194      0.00000     0.39677    0.00129     0.39806
      H   17    0.09955      0.00000     0.39921    0.00124     0.40045
      H   18    0.09331      0.00000     0.40567    0.00101     0.40669
      H   19    0.08741      0.00000     0.41118    0.00141     0.41259
      H   20    0.08525      0.00000     0.41245    0.00230     0.41475
      H   21    0.08954      0.00000     0.40909    0.00137     0.41046
 =======================================================================
   * Total *   -0.00000     12.99379    29.86900    0.13721    43.00000

 Normal termination of Gaussian 16 at Thu Dec 10 00:09:11 2020.
