 Gaussian 16, Revision A.03,

 -----------------------------------------------------------
 # opt freq B3LYP/6-31G(d) empiricaldispersion=gd3bj scf=xqc
 -----------------------------------------------------------

 -------------------------------
 CID_118383513_JID_9623_neutraal
 -------------------------------
 Symbolic Z-matrix:
 Charge =  0 Multiplicity = 1

 SCF Done:  E(RB3LYP) =  -898.027617961     A.U. after   14 cycles
 SCF Done:  E(RB3LYP) =  -898.034638301     A.U. after   12 cycles
 SCF Done:  E(RB3LYP) =  -898.036086377     A.U. after   12 cycles
 SCF Done:  E(RB3LYP) =  -898.036154890     A.U. after   12 cycles
 SCF Done:  E(RB3LYP) =  -898.036502470     A.U. after   11 cycles
 SCF Done:  E(RB3LYP) =  -898.036738391     A.U. after   11 cycles
 SCF Done:  E(RB3LYP) =  -898.036867103     A.U. after   11 cycles
 SCF Done:  E(RB3LYP) =  -898.036902991     A.U. after   10 cycles
 SCF Done:  E(RB3LYP) =  -898.036917168     A.U. after    9 cycles
 SCF Done:  E(RB3LYP) =  -898.036921287     A.U. after    9 cycles
 SCF Done:  E(RB3LYP) =  -898.036922302     A.U. after    8 cycles
 SCF Done:  E(RB3LYP) =  -898.036922805     A.U. after    8 cycles
 SCF Done:  E(RB3LYP) =  -898.036923098     A.U. after    8 cycles
 SCF Done:  E(RB3LYP) =  -898.036923225     A.U. after    7 cycles
 SCF Done:  E(RB3LYP) =  -898.036923238     A.U. after    7 cycles
 Optimization completed.
    -- Stationary point found.
 Normal termination of Gaussian 16 at Mon Dec 14 18:57:19 2020.

 --------------------------------------------------------------------
 #N Geom=AllCheck Guess=TCheck SCRF=Check GenChk RB3LYP/6-31G(d) Freq
 --------------------------------------------------------------------

 Structure from the checkpoint file:  "JID_9623.chk"
 -------------------------------
 CID_118383513_JID_9623_neutraal
 -------------------------------
 Charge =  0 Multiplicity = 1

 SCF Done:  E(RB3LYP) =  -898.036923238     A.U. after    1 cycles

  Exact polarizability: 219.917   9.646 151.195   9.700 -10.326 124.086
 Approx polarizability: 269.732   9.399 244.694  21.389 -26.684 185.813

                      1                      2                      3
                      A                      A                      A
 Frequencies --     19.7293                30.8868                49.6512
 Red. masses --      5.4921                 4.6695                 4.1567
 Frc consts  --      0.0013                 0.0026                 0.0060
 IR Inten    --      0.2372                 0.0975                 1.4934

                      4                      5                      6
                      A                      A                      A
 Frequencies --     64.8686                85.4798                99.3457
 Red. masses --      3.4770                 3.5909                 3.6411
 Frc consts  --      0.0086                 0.0155                 0.0212
 IR Inten    --      1.2291                 0.7872                 0.7137

                      7                      8                      9
                      A                      A                      A
 Frequencies --    115.8205               129.9905               159.9051
 Red. masses --      4.0373                 3.3930                 4.7806
 Frc consts  --      0.0319                 0.0338                 0.0720
 IR Inten    --      4.5561                 2.5606                 2.0726

                     10                     11                     12
                      A                      A                      A
 Frequencies --    187.3344               205.6086               225.9028
 Red. masses --      3.3149                 3.8709                 2.7823
 Frc consts  --      0.0685                 0.0964                 0.0837
 IR Inten    --      1.6946                 1.7807                 0.9764

                     13                     14                     15
                      A                      A                      A
 Frequencies --    237.4273               241.4684               284.8102
 Red. masses --      2.1102                 1.5828                 2.7376
 Frc consts  --      0.0701                 0.0544                 0.1308
 IR Inten    --      0.9913                 4.0203                 7.0234

                     16                     17                     18
                      A                      A                      A
 Frequencies --    293.2126               310.8538               319.3754
 Red. masses --      4.0962                 1.9187                 1.4710
 Frc consts  --      0.2075                 0.1092                 0.0884
 IR Inten    --      3.2263                50.9445                82.3336

                     19                     20                     21
                      A                      A                      A
 Frequencies --    346.3630               370.7072               388.8328
 Red. masses --      2.8748                 1.1811                 3.1793
 Frc consts  --      0.2032                 0.0956                 0.2832
 IR Inten    --     14.6417               109.3003                 1.3055

                     22                     23                     24
                      A                      A                      A
 Frequencies --    399.5020               434.4821               451.2071
 Red. masses --      2.5029                 2.0204                 3.3458
 Frc consts  --      0.2354                 0.2247                 0.4013
 IR Inten    --      3.3871                 4.1406                 9.4249

                     25                     26                     27
                      A                      A                      A
 Frequencies --    465.4644               487.7643               522.4814
 Red. masses --      4.8236                 3.6434                 4.0652
 Frc consts  --      0.6157                 0.5107                 0.6538
 IR Inten    --      2.2510                 3.1407                 6.2179

                     28                     29                     30
                      A                      A                      A
 Frequencies --    557.0793               633.4304               648.6405
 Red. masses --      2.6745                 3.7807                 5.9681
 Frc consts  --      0.4890                 0.8938                 1.4794
 IR Inten    --      1.3995                 8.8493                10.4856

                     31                     32                     33
                      A                      A                      A
 Frequencies --    676.4191               723.7714               752.9165
 Red. masses --      3.7203                 4.1886                 2.3669
 Frc consts  --      1.0029                 1.2928                 0.7906
 IR Inten    --     39.7377                24.3262                55.6150

                     34                     35                     36
                      A                      A                      A
 Frequencies --    778.5011               784.5090               794.8937
 Red. masses --      3.1503                 2.0249                 1.5521
 Frc consts  --      1.1249                 0.7343                 0.5778
 IR Inten    --     19.4289                49.5904                 3.5201

                     37                     38                     39
                      A                      A                      A
 Frequencies --    797.7760               816.7259               853.2416
 Red. masses --      2.1752                 2.4936                 2.2266
 Frc consts  --      0.8157                 0.9800                 0.9551
 IR Inten    --     71.8998                13.1535                 6.4661

                     40                     41                     42
                      A                      A                      A
 Frequencies --    874.6061               878.7075               892.8953
 Red. masses --      2.7086                 1.3319                 2.7762
 Frc consts  --      1.2207                 0.6059                 1.3041
 IR Inten    --      8.4994                 4.6695                 1.8382

                     43                     44                     45
                      A                      A                      A
 Frequencies --    914.8382               953.1962               963.1566
 Red. masses --      2.4581                 1.4814                 1.5012
 Frc consts  --      1.2121                 0.7930                 0.8205
 IR Inten    --      9.9458                16.1350                13.1024

                     46                     47                     48
                      A                      A                      A
 Frequencies --    974.0120               991.5716              1041.6624
 Red. masses --      2.2927                 3.0770                 3.2286
 Frc consts  --      1.2815                 1.7825                 2.0641
 IR Inten    --     40.3940                48.7637                34.2093

                     49                     50                     51
                      A                      A                      A
 Frequencies --   1059.3508              1070.6585              1091.2126
 Red. masses --      2.2622                 3.4929                 2.0573
 Frc consts  --      1.4957                 2.3590                 1.4433
 IR Inten    --      7.7354                68.6155                44.7865

                     52                     53                     54
                      A                      A                      A
 Frequencies --   1103.9813              1116.7837              1126.9815
 Red. masses --      2.5127                 1.4246                 2.5402
 Frc consts  --      1.8043                 1.0468                 1.9009
 IR Inten    --     16.2300                 1.8718                 8.9861

                     55                     56                     57
                      A                      A                      A
 Frequencies --   1130.9840              1157.7585              1177.9243
 Red. masses --      1.9394                 2.5615                 1.7615
 Frc consts  --      1.4616                 2.0229                 1.4400
 IR Inten    --     11.8497               204.6133                78.8730

                     58                     59                     60
                      A                      A                      A
 Frequencies --   1192.0879              1207.5364              1211.5652
 Red. masses --      1.3133                 1.7987                 1.8108
 Frc consts  --      1.0996                 1.5453                 1.5661
 IR Inten    --      2.7640                 7.0048                76.2550

                     61                     62                     63
                      A                      A                      A
 Frequencies --   1232.1287              1234.3552              1261.6335
 Red. masses --      1.4224                 1.6600                 2.0488
 Frc consts  --      1.2723                 1.4901                 1.9214
 IR Inten    --     14.7499                22.4754               117.4449

                     64                     65                     66
                      A                      A                      A
 Frequencies --   1304.9475              1314.3619              1335.9944
 Red. masses --      1.4237                 1.4116                 2.0139
 Frc consts  --      1.4284                 1.4368                 2.1179
 IR Inten    --     60.2086                16.8461               178.6524

                     67                     68                     69
                      A                      A                      A
 Frequencies --   1343.7499              1347.4742              1359.8005
 Red. masses --      1.2681                 1.6723                 1.3084
 Frc consts  --      1.3491                 1.7890                 1.4255
 IR Inten    --     26.1373                89.9867                 5.1371

                     70                     71                     72
                      A                      A                      A
 Frequencies --   1368.0942              1401.5771              1406.2577
 Red. masses --      1.5395                 1.3765                 1.3730
 Frc consts  --      1.6977                 1.5931                 1.5997
 IR Inten    --      2.5825                 2.3086                 8.5345

                     73                     74                     75
                      A                      A                      A
 Frequencies --   1409.3202              1410.9421              1412.1467
 Red. masses --      1.5273                 1.3216                 1.4532
 Frc consts  --      1.7873                 1.5501                 1.7074
 IR Inten    --     12.4857                 2.9141                 1.4422

                     76                     77                     78
                      A                      A                      A
 Frequencies --   1422.3791              1434.5179              1439.0987
 Red. masses --      1.3886                 1.5188                 1.3046
 Frc consts  --      1.6552                 1.8414                 1.5919
 IR Inten    --     27.6482                59.9912                46.2731

                     79                     80                     81
                      A                      A                      A
 Frequencies --   1440.8542              1459.9523              1487.4066
 Red. masses --      1.4037                 2.7982                 4.5238
 Frc consts  --      1.7170                 3.5141                 5.8968
 IR Inten    --      3.8067                30.6365                30.2149

                     82                     83                     84
                      A                      A                      A
 Frequencies --   1502.1956              1515.0714              1515.6885
 Red. masses --      1.0883                 1.0996                 1.0557
 Frc consts  --      1.4469                 1.4871                 1.4289
 IR Inten    --      2.6225                 7.7738                14.5806

                     85                     86                     87
                      A                      A                      A
 Frequencies --   1516.2774              1519.6515              1527.3579
 Red. masses --      1.0908                 1.0999                 1.0916
 Frc consts  --      1.4775                 1.4966                 1.5004
 IR Inten    --      3.4929                12.2109                 3.9402

                     88                     89                     90
                      A                      A                      A
 Frequencies --   1535.8660              1538.7202              1581.4284
 Red. masses --      1.0934                 1.0624                 4.2548
 Frc consts  --      1.5196                 1.4821                 6.2695
 IR Inten    --      8.5019                 5.6134                24.6389

                     91                     92                     93
                      A                      A                      A
 Frequencies --   1599.4288              1684.9571              1751.3085
 Red. masses --      3.4606                 1.6956                 6.2648
 Frc consts  --      5.2159                 2.8362                11.3210
 IR Inten    --    349.3939               243.3412               236.4299

                     94                     95                     96
                      A                      A                      A
 Frequencies --   2991.3014              3010.9836              3032.4662
 Red. masses --      1.0712                 1.0814                 1.0604
 Frc consts  --      5.6474                 5.7761                 5.7454
 IR Inten    --     27.3124                40.0897                22.7826

                     97                     98                     99
                      A                      A                      A
 Frequencies --   3038.0821              3039.5979              3048.8707
 Red. masses --      1.0606                 1.0693                 1.0688
 Frc consts  --      5.7677                 5.8207                 5.8536
 IR Inten    --     30.1134                12.2707                49.9804

                    100                    101                    102
                      A                      A                      A
 Frequencies --   3060.8678              3062.8911              3070.2832
 Red. masses --      1.0365                 1.0826                 1.1022
 Frc consts  --      5.7214                 5.9840                 6.1218
 IR Inten    --     20.9939                30.6341                41.0407

                    103                    104                    105
                      A                      A                      A
 Frequencies --   3083.2142              3092.7985              3094.1432
 Red. masses --      1.1041                 1.0588                 1.0941
 Frc consts  --      6.1842                 5.9674                 6.1714
 IR Inten    --     60.1331                32.7901                48.6771

                    106                    107                    108
                      A                      A                      A
 Frequencies --   3102.5794              3123.2785              3126.6196
 Red. masses --      1.0962                 1.0956                 1.1018
 Frc consts  --      6.2173                 6.2969                 6.3462
 IR Inten    --     22.5367                21.8289                27.6729

                    109                    110                    111
                      A                      A                      A
 Frequencies --   3139.0068              3158.9979              3269.7229
 Red. masses --      1.1044                 1.1068                 1.0964
 Frc consts  --      6.4116                 6.5073                 6.9064
 IR Inten    --      9.1732                29.4657                 2.3238

                    112                    113                    114
                      A                      A                      A
 Frequencies --   3493.7889              3622.5266              3759.5446
 Red. masses --      1.0523                 1.0940                 1.0661
 Frc consts  --      7.5681                 8.4588                 8.8780
 IR Inten    --     78.7420                40.3311                 9.2738

 - Thermochemistry -
 -------------------
 Temperature   298.150 Kelvin.  Pressure   1.00000 Atm.
 Atom     1 has atomic number  6 and mass  12.00000

 Molecular mass:   267.15829 amu.
 Principal axes and moments of inertia in atomic units:
                           1         2         3
     Eigenvalues --  1982.48792********************
           X            0.99999   0.00530  -0.00016
           Y           -0.00530   0.99987  -0.01509
           Z            0.00008   0.01509   0.99989
 This molecule is an asymmetric top.
 Rotational symmetry number  1.
 Warning -- assumption of classical behavior for rotation
           may cause significant error
 Rotational temperatures (Kelvin)      0.04369     0.00737     0.00699
 Rotational constants (GHZ):           0.91034     0.15349     0.14562
 Zero-point vibrational energy     908649.7 (Joules/Mol)
                                  217.17248 (Kcal/Mol)
 Warning -- explicit consideration of  28 degrees of freedom as
           vibrations may cause significant error
 Vibrational temperatures:     28.39    44.44    71.44    93.33   122.99
          (Kelvin)            142.94   166.64   187.03   230.07   269.53
                              295.82   325.02   341.60   347.42   409.78
                              421.87   447.25   459.51   498.34   533.37
                              559.44   574.79   625.12   649.19   669.70
                              701.78   751.73   801.51   911.37   933.25
                              973.22  1041.35  1083.28  1120.09  1128.73
                             1143.67  1147.82  1175.09  1227.62  1258.36
                             1264.26  1284.68  1316.25  1371.44  1385.77
                             1401.39  1426.65  1498.72  1524.17  1540.44
                             1570.01  1588.38  1606.80  1621.48  1627.23
                             1665.76  1694.77  1715.15  1737.38  1743.17
                             1772.76  1775.96  1815.21  1877.53  1891.07
                             1922.20  1933.36  1938.71  1956.45  1968.38
                             2016.56  2023.29  2027.70  2030.03  2031.76
                             2046.49  2063.95  2070.54  2073.07  2100.55
                             2140.05  2161.32  2179.85  2180.74  2181.59
                             2186.44  2197.53  2209.77  2213.88  2275.32
                             2301.22  2424.28  2519.74  4303.82  4332.13
                             4363.04  4371.12  4373.30  4386.64  4403.91
                             4406.82  4417.45  4436.06  4449.85  4451.78
                             4463.92  4493.70  4498.51  4516.33  4545.09
                             4704.40  5026.78  5212.01  5409.15

 Zero-point correction=                           0.346086 (Hartree/Particle)
 Thermal correction to Energy=                    0.364898
 Thermal correction to Enthalpy=                  0.365842
 Thermal correction to Gibbs Free Energy=         0.297795
 Sum of electronic and zero-point Energies=           -897.690837
 Sum of electronic and thermal Energies=              -897.672025
 Sum of electronic and thermal Enthalpies=            -897.671081
 Sum of electronic and thermal Free Energies=         -897.739128

                     E (Thermal)             CV                S
                      KCal/Mol        Cal/Mol-Kelvin    Cal/Mol-Kelvin
 Total                  228.977             71.481            143.217
 Electronic               0.000              0.000              0.000
 Translational            0.889              2.981             42.647
 Rotational               0.889              2.981             34.023
 Vibrational            227.199             65.519             66.546
 Vibration     1          0.593              1.986              6.661
 Vibration     2          0.594              1.984              5.772
 Vibration     3          0.595              1.978              4.831
 Vibration     4          0.597              1.971              4.303
 Vibration     5          0.601              1.959              3.761
 Vibration     6          0.604              1.950              3.467
 Vibration     7          0.608              1.936              3.169
 Vibration     8          0.612              1.923              2.946
 Vibration     9          0.622              1.891              2.551
 Vibration    10          0.632              1.857              2.254
 Vibration    11          0.640              1.832              2.082
 Vibration    12          0.650              1.802              1.911
 Vibration    13          0.656              1.783              1.822
 Vibration    14          0.658              1.777              1.792
 Vibration    15          0.683              1.702              1.505
 Vibration    16          0.688              1.686              1.455
 Vibration    17          0.700              1.653              1.358
 Vibration    18          0.705              1.637              1.313
 Vibration    19          0.724              1.583              1.183
 Vibration    20          0.743              1.532              1.077
 Vibration    21          0.757              1.494              1.005
 Vibration    22          0.766              1.471              0.964
 Vibration    23          0.795              1.395              0.844
 Vibration    24          0.810              1.358              0.792
 Vibration    25          0.823              1.327              0.750
 Vibration    26          0.844              1.277              0.689
 Vibration    27          0.877              1.200              0.604
 Vibration    28          0.913              1.124              0.530

 Optimization completed.
    -- Stationary point found.
 Normal termination of Gaussian 16 at Mon Dec 14 19:17:52 2020.

 ----------------------------------------------------------------------
 # B3LYP/6-311++G(d,p) empiricaldispersion=gd3bj scf=xqc pop=npa geom=c
 heck
 ----------------------------------------------------------------------

 ---------------------------------------
 CID_118383513_JID_9623_Energie_neutraal
 ---------------------------------------
 Structure from the checkpoint file:  "JID_9623.chk"
 Charge =  0 Multiplicity = 1

 SCF Done:  E(RB3LYP) =  -898.301875614     A.U. after   15 cycles
 Normal termination of Gaussian 16 at Mon Dec 14 19:27:28 2020.

 ----------------------------------------------------------------------
 # B3LYP/6-311++G(d,p) empiricaldispersion=gd3bj scf=xqc pop=npa geom=c
 heck
 ----------------------------------------------------------------------

 -------------------------------------
 CID_118383513_JID_9623_Energie_kation
 -------------------------------------
 Structure from the checkpoint file:  "JID_9623.chk"
 Charge =  1 Multiplicity = 2

 SCF Done:  E(UB3LYP) =  -898.005101433     A.U. after   28 cycles
 Normal termination of Gaussian 16 at Mon Dec 14 19:53:20 2020.
 Gaussian 16:  ES64L-G16RevA.03 25-Dec-2016

 ----------------------------------------------------------------------
 # B3LYP/6-311++G(d,p) empiricaldispersion=gd3bj scf=xqc pop=npa geom=c
 heck
 ----------------------------------------------------------------------

 ------------------------------------
 CID_118383513_JID_9623_Energie_anion
 ------------------------------------
 Structure from the checkpoint file:  "JID_9623.chk"
 Charge = -1 Multiplicity = 2

                         Standard orientation:
 ---------------------------------------------------------------------
 Center     Atomic      Atomic             Coordinates (Angstroms)
 Number     Number       Type             X           Y           Z
 ---------------------------------------------------------------------
      1          6           0       -6.124721   -0.704281    0.592479
      2          6           0       -5.230115   -1.299555   -0.483354
      3          8           0       -3.837943   -1.230515   -0.104459
      4          6           0       -3.210887   -0.054252   -0.335758
      5          8           0       -3.762225    0.912127   -0.859473
      6          6           0       -1.828277   -0.065602    0.086909
      7          6           0       -0.959427    1.023908   -0.076705
      8          7           0        0.246693    0.636352    0.402165
      9          7           0        0.226271   -0.669241    0.853236
     10          6           0       -1.017698   -1.073782    0.670397
     11          6           0        1.458516    1.458320    0.414766
     12          6           0        2.379291    1.137912    1.603582
     13          6           0        3.212428   -0.141253    1.436606
     14          6           0        3.938874   -0.202232    0.084405
     15          6           0        2.942305    0.012603   -1.064733
     16          6           0        2.215084    1.352670   -0.922722
     17          6           0        4.694873   -1.526882   -0.053754
     18          8           0        5.470025   -1.620573   -1.244951
     19          7           0       -1.241975    2.286458   -0.543637
     20          1           0       -5.951133   -1.195662    1.555256
     21          1           0       -7.177810   -0.838740    0.320140
     22          1           0       -5.929329    0.365823    0.699942
     23          1           0       -5.419209   -2.367245   -0.617929
     24          1           0       -5.363288   -0.784028   -1.437436
     25          1           0       -1.311006   -2.075342    0.953415
     26          1           0        1.090800    2.483929    0.537760
     27          1           0        3.055505    1.997013    1.707378
     28          1           0        1.781276    1.087252    2.519174
     29          1           0        2.548867   -1.005664    1.528360
     30          1           0        3.943651   -0.197471    2.253502
     31          1           0        4.685770    0.605545    0.038473
     32          1           0        2.206681   -0.803252   -1.066318
     33          1           0        3.466067   -0.010635   -2.028447
     34          1           0        1.517467    1.503828   -1.756753
     35          1           0        2.945680    2.171805   -0.965012
     36          1           0        5.408654   -1.630844    0.770460
     37          1           0        3.982804   -2.365341    0.022675
     38          1           0        4.854417   -1.731348   -1.984412
     39          1           0       -2.186227    2.316537   -0.924758
     40          1           0       -0.546878    2.705106   -1.149469
 ---------------------------------------------------------------------

 SCF Done:  E(UB3LYP) =  -898.293264762     A.U. after   33 cycles
 SCF Done:  E(UB3LYP) =  -898.293264762     a.u. after    1 cycles

 The electronic state is 2-A.
 Alpha  occ. eigenvalues --  -19.07338 -19.04066 -19.01185 -14.29143 -14.23721
 Alpha  occ. eigenvalues --  -14.23377 -10.20725 -10.15955 -10.14191 -10.12974
 Alpha  occ. eigenvalues --  -10.12741 -10.10627 -10.08302 -10.08207 -10.08188
 Alpha  occ. eigenvalues --  -10.07843 -10.07762 -10.07484 -10.07364  -1.01141
 Alpha  occ. eigenvalues --   -0.95854  -0.94074  -0.92188  -0.83240  -0.77459
 Alpha  occ. eigenvalues --   -0.72912  -0.69980  -0.67755  -0.66195  -0.65797
 Alpha  occ. eigenvalues --   -0.59648  -0.58068  -0.53881  -0.53070  -0.52635
 Alpha  occ. eigenvalues --   -0.48734  -0.47267  -0.47184  -0.43876  -0.43008
 Alpha  occ. eigenvalues --   -0.41633  -0.40322  -0.39862  -0.38804  -0.38520
 Alpha  occ. eigenvalues --   -0.36949  -0.36441  -0.35934  -0.35263  -0.34428
 Alpha  occ. eigenvalues --   -0.33655  -0.32544  -0.31744  -0.31441  -0.30062
 Alpha  occ. eigenvalues --   -0.29377  -0.29199  -0.28686  -0.28319  -0.26005
 Alpha  occ. eigenvalues --   -0.25850  -0.25607  -0.24362  -0.24008  -0.23098
 Alpha  occ. eigenvalues --   -0.21973  -0.21507  -0.20535  -0.19010  -0.18721
 Alpha  occ. eigenvalues --   -0.16337  -0.13005   0.03894
 Alpha virt. eigenvalues --    0.05226   0.06342   0.06787   0.07098   0.07803
 Alpha virt. eigenvalues --    0.08032   0.08280   0.08897   0.09233   0.09691
 Alpha virt. eigenvalues --    0.09905   0.10701   0.10842   0.11422   0.11541

  Beta  occ. eigenvalues --  -19.07337 -19.04053 -19.01152 -14.29144 -14.23726
  Beta  occ. eigenvalues --  -14.23316 -10.20690 -10.15920 -10.14179 -10.12969
  Beta  occ. eigenvalues --  -10.12729 -10.10621 -10.08288 -10.08183 -10.08182
  Beta  occ. eigenvalues --  -10.07847 -10.07718 -10.07469 -10.07363  -1.01110
  Beta  occ. eigenvalues --   -0.95842  -0.94045  -0.92145  -0.83168  -0.77432
  Beta  occ. eigenvalues --   -0.72894  -0.69940  -0.67716  -0.66163  -0.65762
  Beta  occ. eigenvalues --   -0.59610  -0.58023  -0.53847  -0.53024  -0.52590
  Beta  occ. eigenvalues --   -0.48696  -0.47186  -0.47139  -0.43852  -0.42964
  Beta  occ. eigenvalues --   -0.41580  -0.40267  -0.39822  -0.38757  -0.38460
  Beta  occ. eigenvalues --   -0.36899  -0.36413  -0.35907  -0.35233  -0.34411
  Beta  occ. eigenvalues --   -0.33614  -0.32492  -0.31704  -0.31406  -0.29988
  Beta  occ. eigenvalues --   -0.29336  -0.29169  -0.28652  -0.28285  -0.25982
  Beta  occ. eigenvalues --   -0.25814  -0.25582  -0.24300  -0.23967  -0.23062
  Beta  occ. eigenvalues --   -0.21942  -0.21441  -0.20517  -0.18988  -0.18698
  Beta  occ. eigenvalues --   -0.16309  -0.12927
  Beta virt. eigenvalues --    0.05783   0.06217   0.06931   0.07257   0.07427
  Beta virt. eigenvalues --    0.08013   0.08190   0.08532   0.09175   0.09734
  Beta virt. eigenvalues --    0.09858   0.10090   0.10829   0.11018   0.11555

 Mulliken charges and spin densities:
               1          2
     1  C    0.181122  -0.507972
     2  C   -0.015855  -0.181707
     3  O   -0.037699   0.018478
     4  C   -1.444193   0.292215
     5  O   -0.314160   0.009497
     6  C    2.153811  -0.347596
     7  C   -0.410217  -0.795378
     8  N    0.419382  -0.040768
     9  N   -0.128993   0.008267
    10  C    0.125294  -0.245203
    11  C   -0.464052   0.583836
    12  C    0.033378  -0.829648
    13  C   -0.234531  -0.082547
    14  C    0.412308  -0.182048
    15  C   -0.310832  -0.018559
    16  C    0.742959  -1.094714
    17  C   -0.272984  -0.293193
    18  O   -0.247804   0.001121
    19  N   -0.412602   0.097963
    20  H    0.067029   0.068156
    21  H   -0.229935   0.367240
    22  H    0.009534   0.162485
    23  H   -0.166543   0.324176
    24  H    0.112315   0.061666
    25  H    0.131804   0.015210
    26  H   -0.397994   0.643708
    27  H   -0.141271   0.307911
    28  H    0.084488   0.100356
    29  H    0.174767   0.013190
    30  H    0.117465   0.033388
    31  H    0.075062   0.114680
    32  H    0.061359   0.119551
    33  H   -0.091478   0.228210
    34  H   -0.568070   0.728495
    35  H   -0.407488   0.584243
    36  H    0.105680   0.055466
    37  H    0.145712   0.005004
    38  H    0.137435   0.106404
    39  H    0.179481   0.136670
    40  H   -0.173680   0.431750
 Sum of Mulliken charges =  -1.00000   1.00000

 Dipole moment (field-independent basis, Debye):
    X=              0.0941    Y=             -4.7786    Z=              3.2198  Tot=              5.7629
 Quadrupole moment (field-independent basis, Debye-Ang):
   XX=           -227.4665   YY=           -162.1017   ZZ=           -147.1510
   XY=             -7.2734   XZ=              7.2974   YZ=              6.3909

 Summary of Natural Population Analysis:

                                       Natural Population
                Natural  -----------------------------------------------
    Atom  No    Charge         Core      Valence    Rydberg      Total
 -----------------------------------------------------------------------
      C    1   -0.29888      0.99966     2.29517    0.00405     3.29888
      C    2   -0.01530      0.99958     2.00526    0.01046     3.01530
      O    3   -0.28229      0.99986     3.27408    0.00834     4.28229
      C    4    0.40165      0.99960     1.57595    0.02281     2.59835
      O    5   -0.33197      0.99988     3.32675    0.00534     4.33197
      C    6   -0.16067      0.99942     2.15216    0.00909     3.16067
      C    7    0.22261      0.99950     1.76456    0.01333     2.77739
      N    8   -0.12784      0.99959     2.61452    0.01374     3.62784
      N    9   -0.16582      0.99973     2.65545    0.01065     3.66582
      C   10    0.01990      0.99961     1.96728    0.01321     2.98010
      C   11   -0.00581      0.99956     1.99135    0.01489     3.00581
      C   12   -0.18865      0.99961     2.17974    0.00930     3.18865
      C   13   -0.19506      0.99960     2.18649    0.00897     3.19506
      C   14   -0.12328      0.99958     2.11343    0.01027     3.12328
      C   15   -0.19764      0.99961     2.18687    0.01116     3.19764
      C   16   -0.19018      0.99960     2.18022    0.01035     3.19018
      C   17   -0.00241      0.99956     1.99144    0.01141     3.00241
      O   18   -0.36906      0.99990     3.36256    0.00660     4.36906
      N   19   -0.39607      0.99970     2.88782    0.00855     3.89607
      H   20    0.09842      0.00000     0.40026    0.00133     0.40158
      H   21    0.10082      0.00000     0.39761    0.00156     0.39918
      H   22    0.10685      0.00000     0.39186    0.00129     0.39315
      H   23    0.08811      0.00000     0.41030    0.00159     0.41189
      H   24    0.09505      0.00000     0.40343    0.00152     0.40495
      H   25    0.10079      0.00000     0.39825    0.00096     0.39921
      H   26    0.10984      0.00000     0.38754    0.00262     0.39016
      H   27    0.10174      0.00000     0.39722    0.00103     0.39826
      H   28    0.10527      0.00000     0.39377    0.00095     0.39473
      H   29    0.11039      0.00000     0.38789    0.00172     0.38961
      H   30    0.09534      0.00000     0.40371    0.00095     0.40466
      H   31    0.09507      0.00000     0.40318    0.00176     0.40493
      H   32    0.10055      0.00000     0.39768    0.00176     0.39945
      H   33    0.09957      0.00000     0.39913    0.00130     0.40043
      H   34    0.10393      0.00000     0.39367    0.00240     0.39607
      H   35    0.10325      0.00000     0.39394    0.00281     0.39675
      H   36    0.08404      0.00000     0.41479    0.00117     0.41596
      H   37    0.07497      0.00000     0.42379    0.00124     0.42503
      H   38    0.22756      0.00000     0.26946    0.00298     0.27244
      H   39    0.20861      0.00000     0.28964    0.00175     0.29139
      H   40    0.19659      0.00000     0.29868    0.00472     0.30341
 =======================================================================
   * Total *   -0.00000     18.99315    52.76690    0.23996    72.00000

 Normal termination of Gaussian 16 at Mon Dec 14 20:23:29 2020.
