 Gaussian 16, Revision A.03,

 -----------------------------------------------------------
 # opt freq B3LYP/6-31G(d) empiricaldispersion=gd3bj scf=xqc
 -----------------------------------------------------------

 -------------------------------
 CID_107215592_JID_7956_neutraal
 -------------------------------
 Symbolic Z-matrix:
 Charge =  0 Multiplicity = 1

 SCF Done:  E(RB3LYP) =  -1576.76032336     A.U. after   15 cycles
 SCF Done:  E(RB3LYP) =  -1576.77585072     A.U. after   12 cycles
 SCF Done:  E(RB3LYP) =  -1576.77786361     A.U. after   12 cycles
 SCF Done:  E(RB3LYP) =  -1576.77823044     A.U. after   12 cycles
 SCF Done:  E(RB3LYP) =  -1576.77820402     A.U. after   11 cycles
 SCF Done:  E(RB3LYP) =  -1576.77842877     A.U. after   11 cycles
 SCF Done:  E(RB3LYP) =  -1576.77844431     A.U. after   10 cycles
 SCF Done:  E(RB3LYP) =  -1576.77845066     A.U. after   10 cycles
 SCF Done:  E(RB3LYP) =  -1576.77845314     A.U. after   10 cycles
 SCF Done:  E(RB3LYP) =  -1576.77846332     A.U. after   11 cycles
 SCF Done:  E(RB3LYP) =  -1576.78385704     A.U. after   10 cycles
 SCF Done:  E(RB3LYP) =  -1576.78385794     A.U. after    9 cycles
 SCF Done:  E(RB3LYP) =  -1576.78385848     A.U. after   10 cycles
 SCF Done:  E(RB3LYP) =  -1576.78385858     A.U. after    8 cycles
 SCF Done:  E(RB3LYP) =  -1576.78385859     A.U. after    7 cycles
 Optimization completed.
    -- Stationary point found.
 Normal termination of Gaussian 16 at Fri Dec 11 13:45:56 2020.

 --------------------------------------------------------------------
 #N Geom=AllCheck Guess=TCheck SCRF=Check GenChk RB3LYP/6-31G(d) Freq
 --------------------------------------------------------------------

 Structure from the checkpoint file:  "JID_7956.chk"
 -------------------------------
 CID_107215592_JID_7956_neutraal
 -------------------------------
 Charge =  0 Multiplicity = 1

 SCF Done:  E(RB3LYP) =  -1576.78385859     A.U. after    1 cycles

  Exact polarizability: 190.603   6.081 128.788   9.701 -15.074 115.932
 Approx polarizability: 254.696  24.321 224.361  23.342 -42.322 200.253

                      1                      2                      3
                      A                      A                      A
 Frequencies --     13.2066                34.1898                56.1694
 Red. masses --      7.7803                 6.9566                 6.0400
 Frc consts  --      0.0008                 0.0048                 0.0112
 IR Inten    --      0.2712                 0.0986                 0.7477

                      4                      5                      6
                      A                      A                      A
 Frequencies --     75.1829               102.6377               108.8006
 Red. masses --      7.8798                 4.7446                 7.9366
 Frc consts  --      0.0262                 0.0294                 0.0554
 IR Inten    --      1.7828                 2.9724                 0.4812

                      7                      8                      9
                      A                      A                      A
 Frequencies --    144.5554               186.6979               199.0147
 Red. masses --      5.2123                 5.0235                 7.2193
 Frc consts  --      0.0642                 0.1032                 0.1685
 IR Inten    --      0.8145                 0.1955                 1.7751

                     10                     11                     12
                      A                      A                      A
 Frequencies --    221.6563               232.2470               249.6379
 Red. masses --      4.3392                 1.3332                 4.3678
 Frc consts  --      0.1256                 0.0424                 0.1604
 IR Inten    --     10.2353                 3.4943                 0.6537

                     13                     14                     15
                      A                      A                      A
 Frequencies --    283.5157               295.8065               351.0896
 Red. masses --      8.3788                 4.1810                 4.8883
 Frc consts  --      0.3968                 0.2155                 0.3550
 IR Inten    --      1.1166                 0.8481                 1.4952

                     16                     17                     18
                      A                      A                      A
 Frequencies --    385.5438               393.3315               414.1933
 Red. masses --      3.6582                 5.5687                 2.4034
 Frc consts  --      0.3204                 0.5076                 0.2429
 IR Inten    --      4.5954                11.5437                 2.7810

                     19                     20                     21
                      A                      A                      A
 Frequencies --    437.2248               461.8308               466.8262
 Red. masses --      4.1950                 3.7439                 5.6341
 Frc consts  --      0.4725                 0.4705                 0.7234
 IR Inten    --     10.1810                 2.9511                 3.5955

                     22                     23                     24
                      A                      A                      A
 Frequencies --    522.5846               528.8468               555.6969
 Red. masses --      5.1208                 4.5799                 2.6913
 Frc consts  --      0.8239                 0.7547                 0.4897
 IR Inten    --      6.3282                 2.6275                39.9344

                     25                     26                     27
                      A                      A                      A
 Frequencies --    576.7675               598.6753               628.3975
 Red. masses --      1.4109                 2.8282                 5.7876
 Frc consts  --      0.2765                 0.5972                 1.3465
 IR Inten    --     28.8998               137.5457               131.1410

                     28                     29                     30
                      A                      A                      A
 Frequencies --    641.9629               660.5938               701.8574
 Red. masses --      1.5154                 4.9413                 4.6938
 Frc consts  --      0.3680                 1.2705                 1.3623
 IR Inten    --     31.9919                35.4838                60.2029

                     31                     32                     33
                      A                      A                      A
 Frequencies --    716.7714               762.5028               836.7564
 Red. masses --      5.7566                 2.9687                 1.5533
 Frc consts  --      1.7425                 1.0169                 0.6408
 IR Inten    --     50.3070                85.0213                 4.1706

                     34                     35                     36
                      A                      A                      A
 Frequencies --    841.6961               863.1748               872.2721
 Red. masses --      1.7451                 4.1404                 4.4995
 Frc consts  --      0.7284                 1.8176                 2.0171
 IR Inten    --      1.0361                49.7640                21.1867

                     37                     38                     39
                      A                      A                      A
 Frequencies --    894.7085               937.0267               944.1299
 Red. masses --      1.5087                 6.6394                 2.2214
 Frc consts  --      0.7115                 3.4347                 1.1666
 IR Inten    --      7.2541                 9.2120                12.9970

                     40                     41                     42
                      A                      A                      A
 Frequencies --    963.0556               972.4549              1000.0440
 Red. masses --      3.2084                 1.7741                 1.9251
 Frc consts  --      1.7533                 0.9885                 1.1343
 IR Inten    --     83.9232                11.4143                84.2417

                     43                     44                     45
                      A                      A                      A
 Frequencies --   1015.7579              1035.5472              1103.9998
 Red. masses --      5.9690                 4.2242                 5.5883
 Frc consts  --      3.6285                 2.6689                 4.0130
 IR Inten    --     30.5207                76.0334               194.4528

                     46                     47                     48
                      A                      A                      A
 Frequencies --   1126.7222              1146.1317              1167.7862
 Red. masses --      2.3628                 1.0761                 2.0025
 Frc consts  --      1.7673                 0.8329                 1.6090
 IR Inten    --    101.3270                 2.8861                16.2658

                     49                     50                     51
                      A                      A                      A
 Frequencies --   1195.2120              1200.4515              1213.2207
 Red. masses --      2.3867                 1.8581                 1.7200
 Frc consts  --      2.0088                 1.5776                 1.4916
 IR Inten    --      7.0411               216.4123                20.5098

                     52                     53                     54
                      A                      A                      A
 Frequencies --   1224.0619              1281.4456              1290.6228
 Red. masses --      1.4370                 1.4032                 1.9388
 Frc consts  --      1.2686                 1.3576                 1.9028
 IR Inten    --     55.4408                 2.0986                92.4133

                     55                     56                     57
                      A                      A                      A
 Frequencies --   1301.7485              1333.2241              1363.4631
 Red. masses --      7.0847                 1.6850                 2.3731
 Frc consts  --      7.0734                 1.7647                 2.5993
 IR Inten    --    164.1112                21.3299                71.5260

                     58                     59                     60
                      A                      A                      A
 Frequencies --   1429.0914              1429.4132              1475.7519
 Red. masses --      5.3386                 1.2442                 7.1980
 Frc consts  --      6.4239                 1.4978                 9.2361
 IR Inten    --      6.9107                23.0675                52.3912

                     61                     62                     63
                      A                      A                      A
 Frequencies --   1482.6971              1508.4910              1514.6027
 Red. masses --      1.7219                 1.0684                 1.0591
 Frc consts  --      2.2304                 1.4324                 1.4315
 IR Inten    --     99.1389                 5.3501                 0.5445

                     64                     65                     66
                      A                      A                      A
 Frequencies --   1526.0560              1532.4798              1587.1157
 Red. masses --      1.0814                 1.0798                 6.3856
 Frc consts  --      1.4839                 1.4941                 9.4770
 IR Inten    --      3.5469                 0.7748                98.6063

                     67                     68                     69
                      A                      A                      A
 Frequencies --   1830.6236              3060.9959              3090.1864
 Red. masses --     10.1009                 1.0350                 1.0558
 Frc consts  --     19.9439                 5.7136                 5.9400
 IR Inten    --    340.2777                13.9732                24.2398

                     70                     71                     72
                      A                      A                      A
 Frequencies --   3096.1648              3135.7424              3135.9175
 Red. masses --      1.0586                 1.1036                 1.1028
 Frc consts  --      5.9789                 6.3937                 6.3898
 IR Inten    --     16.0983                16.4721                14.4835

                     73                     74                     75
                      A                      A                      A
 Frequencies --   3153.0839              3154.4318              3265.3386
 Red. masses --      1.1119                 1.1119                 1.0944
 Frc consts  --      6.5129                 6.5186                 6.8750
 IR Inten    --     14.3616                 6.6082                 4.2103

                     76                     77                     78
                      A                      A                      A
 Frequencies --   3280.2396              3624.8019              3697.6434
 Red. masses --      1.0938                 1.0663                 1.0642
 Frc consts  --      6.9341                 8.2547                 8.5726
 IR Inten    --      9.6092               129.3414                88.3014

 - Thermochemistry -
 -------------------
 Temperature   298.150 Kelvin.  Pressure   1.00000 Atm.
 Atom     1 has atomic number  6 and mass  12.00000

 Molecular mass:   277.00787 amu.
 Principal axes and moments of inertia in atomic units:
                           1         2         3
     Eigenvalues --  2243.883288888.347179162.82796
           X            0.99989  -0.01174  -0.00947
           Y            0.01200   0.99954   0.02773
           Z            0.00914  -0.02784   0.99957
 This molecule is an asymmetric top.
 Rotational symmetry number  1.
 Warning -- assumption of classical behavior for rotation
           may cause significant error
 Rotational temperatures (Kelvin)      0.03860     0.00974     0.00945
 Rotational constants (GHZ):           0.80429     0.20305     0.19696
 Zero-point vibrational energy     539178.5 (Joules/Mol)
                                  128.86674 (Kcal/Mol)
 Warning -- explicit consideration of  26 degrees of freedom as
           vibrations may cause significant error
 Vibrational temperatures:     19.00    49.19    80.82   108.17   147.67
          (Kelvin)            156.54   207.98   268.62   286.34   318.91
                              334.15   359.17   407.92   425.60   505.14
                              554.71   565.92   595.93   629.07   664.47
                              671.66   751.88   760.89   799.52   829.84
                              861.36   904.12   923.64   950.45  1009.82
                             1031.27  1097.07  1203.91  1211.01  1241.92
                             1255.00  1287.29  1348.17  1358.39  1385.62
                             1399.15  1438.84  1461.45  1489.92  1588.41
                             1621.10  1649.03  1680.18  1719.64  1727.18
                             1745.55  1761.15  1843.71  1856.92  1872.93
                             1918.21  1961.72  2056.14  2056.61  2123.28
                             2133.27  2170.38  2179.18  2195.65  2204.90
                             2283.51  2633.86  4404.09  4446.09  4454.69
                             4511.63  4511.89  4536.58  4538.52  4698.09
                             4719.53  5215.28  5320.08

 Zero-point correction=                           0.205362 (Hartree/Particle)
 Thermal correction to Energy=                    0.221791
 Thermal correction to Enthalpy=                  0.222735
 Thermal correction to Gibbs Free Energy=         0.159308
 Sum of electronic and zero-point Energies=          -1576.578496
 Sum of electronic and thermal Energies=             -1576.562068
 Sum of electronic and thermal Enthalpies=           -1576.561124
 Sum of electronic and thermal Free Energies=        -1576.624551

                     E (Thermal)             CV                S
                      KCal/Mol        Cal/Mol-Kelvin    Cal/Mol-Kelvin
 Total                  139.176             61.750            133.494
 Electronic               0.000              0.000              0.000
 Translational            0.889              2.981             42.755
 Rotational               0.889              2.981             33.568
 Vibrational            137.398             55.788             57.171
 Vibration     1          0.593              1.987              7.458
 Vibration     2          0.594              1.983              5.570
 Vibration     3          0.596              1.975              4.587
 Vibration     4          0.599              1.966              4.013
 Vibration     5          0.605              1.947              3.404
 Vibration     6          0.606              1.942              3.290
 Vibration     7          0.616              1.909              2.743
 Vibration     8          0.632              1.858              2.260
 Vibration     9          0.637              1.841              2.142
 Vibration    10          0.648              1.808              1.946
 Vibration    11          0.653              1.792              1.862
 Vibration    12          0.662              1.763              1.733
 Vibration    13          0.682              1.704              1.512
 Vibration    14          0.690              1.682              1.441
 Vibration    15          0.728              1.573              1.161
 Vibration    16          0.754              1.501              1.017
 Vibration    17          0.761              1.484              0.987
 Vibration    18          0.778              1.439              0.912
 Vibration    19          0.798              1.389              0.835
 Vibration    20          0.820              1.335              0.761
 Vibration    21          0.824              1.324              0.746
 Vibration    22          0.878              1.200              0.604
 Vibration    23          0.884              1.186              0.590
 Vibration    24          0.911              1.127              0.532
 Vibration    25          0.933              1.082              0.491
 Vibration    26          0.957              1.035              0.452

 Optimization completed.
    -- Stationary point found.
 Normal termination of Gaussian 16 at Fri Dec 11 13:56:00 2020.

 ----------------------------------------------------------------------
 # B3LYP/6-311++G(d,p) empiricaldispersion=gd3bj scf=xqc pop=npa geom=c
 heck
 ----------------------------------------------------------------------

 ---------------------------------------
 CID_107215592_JID_7956_Energie_neutraal
 ---------------------------------------
 Structure from the checkpoint file:  "JID_7956.chk"
 Charge =  0 Multiplicity = 1

 SCF Done:  E(RB3LYP) =  -1577.07630488     A.U. after   17 cycles
 Normal termination of Gaussian 16 at Fri Dec 11 14:01:24 2020.

 ----------------------------------------------------------------------
 # B3LYP/6-311++G(d,p) empiricaldispersion=gd3bj scf=xqc pop=npa geom=c
 heck
 ----------------------------------------------------------------------

 -------------------------------------
 CID_107215592_JID_7956_Energie_kation
 -------------------------------------
 Structure from the checkpoint file:  "JID_7956.chk"
 Charge =  1 Multiplicity = 2

 SCF Done:  E(UB3LYP) =  -1576.74080461     A.U. after   33 cycles
 SCF Done:  E(UB3LYP) =  -1576.74080461     a.u. after    1 cycles
 Normal termination of Gaussian 16 at Fri Dec 11 14:16:34 2020.
 Gaussian 16:  ES64L-G16RevA.03 25-Dec-2016

 ----------------------------------------------------------------------
 # B3LYP/6-311++G(d,p) empiricaldispersion=gd3bj scf=xqc pop=npa geom=c
 heck
 ----------------------------------------------------------------------

 ------------------------------------
 CID_107215592_JID_7956_Energie_anion
 ------------------------------------
 Structure from the checkpoint file:  "JID_7956.chk"
 Charge = -1 Multiplicity = 2

                         Standard orientation:
 ---------------------------------------------------------------------
 Center     Atomic      Atomic             Coordinates (Angstroms)
 Number     Number       Type             X           Y           Z
 ---------------------------------------------------------------------
      1          6           0       -4.406893    1.580361    1.355500
      2          6           0       -3.437517    0.649294    0.658109
      3          6           0       -2.975782    1.037617   -0.777440
      4          7           0       -1.528616    0.844682   -0.378880
      5          6           0       -1.937255    0.728401    1.068765
      6         16           0       -0.855298   -0.550707   -1.043314
      7          8           0       -1.516965   -1.767694   -0.517506
      8          8           0       -0.779108   -0.338706   -2.486472
      9          6           0        0.748945   -0.524700   -0.311946
     10          6           0        1.741028    0.387646   -0.547213
     11          6           0        2.913979    0.093062    0.209869
     12          6           0        2.771251   -1.034152    0.990123
     13         16           0        1.224203   -1.759390    0.824701
     14          6           0        4.173486    0.864837    0.202734
     15          8           0        5.158166    0.590864    0.856254
     16          8           0        4.109230    1.934287   -0.627423
     17          8           0       -3.963632   -0.655172    0.740807
     18          1           0       -4.526129    1.280403    2.401472
     19          1           0       -5.387954    1.526097    0.872916
     20          1           0       -4.053160    2.615693    1.321694
     21          1           0       -3.329564    0.383294   -1.577921
     22          1           0       -3.135249    2.081330   -1.058234
     23          1           0       -1.641250    1.635376    1.601704
     24          1           0       -1.557475   -0.153095    1.590645
     25          1           0        1.640838    1.225921   -1.224101
     26          1           0        3.523260   -1.455866    1.643162
     27          1           0        4.977358    2.374831   -0.568905
     28          1           0       -3.321815   -1.268035    0.331236
 ---------------------------------------------------------------------

 SCF Done:  E(UB3LYP) =  -1577.10178693     A.U. after   29 cycles

 The electronic state is 2-A.
 Alpha  occ. eigenvalues --  -88.94685 -88.73166 -19.04386 -19.02980 -19.00581
 Alpha  occ. eigenvalues --  -19.00258 -18.97467 -14.24105 -10.16316 -10.15125
 Alpha  occ. eigenvalues --  -10.11634 -10.11431 -10.08679 -10.07366 -10.05473
 Alpha  occ. eigenvalues --  -10.04155 -10.03507  -8.00832  -7.81813  -5.97131
 Alpha  occ. eigenvalues --   -5.97074  -5.96918  -5.78141  -5.77734  -5.77433
 Alpha  occ. eigenvalues --   -1.00610  -0.98053  -0.94259  -0.89463  -0.88779
 Alpha  occ. eigenvalues --   -0.84999  -0.75145  -0.68820  -0.64089  -0.61862
 Alpha  occ. eigenvalues --   -0.60711  -0.59455  -0.53203  -0.51044  -0.48154
 Alpha  occ. eigenvalues --   -0.44606  -0.42382  -0.42032  -0.40373  -0.39293
 Alpha  occ. eigenvalues --   -0.38441  -0.37527  -0.35884  -0.34954  -0.34293
 Alpha  occ. eigenvalues --   -0.32943  -0.32491  -0.31463  -0.30733  -0.29261
 Alpha  occ. eigenvalues --   -0.28565  -0.27016  -0.26974  -0.26321  -0.26122
 Alpha  occ. eigenvalues --   -0.25030  -0.23441  -0.22185  -0.21391  -0.20378
 Alpha  occ. eigenvalues --   -0.20065  -0.19568  -0.18260  -0.15939  -0.15318
 Alpha  occ. eigenvalues --   -0.12989  -0.12099   0.03457
 Alpha virt. eigenvalues --    0.06127   0.08389   0.08751   0.09132   0.09543
 Alpha virt. eigenvalues --    0.10217   0.10982   0.11410   0.11872   0.12215
 Alpha virt. eigenvalues --    0.12517   0.13721   0.13904   0.14671   0.15300

  Beta  occ. eigenvalues --  -88.94678 -88.73062 -19.04319 -19.02977 -19.00576
  Beta  occ. eigenvalues --  -19.00225 -18.97398 -14.24087 -10.16154 -10.15126
  Beta  occ. eigenvalues --  -10.11608 -10.11429 -10.08674 -10.07173 -10.05440
  Beta  occ. eigenvalues --  -10.04213 -10.02756  -8.00824  -7.81720  -5.97121
  Beta  occ. eigenvalues --   -5.97048  -5.96918  -5.78096  -5.77695  -5.77082
  Beta  occ. eigenvalues --   -1.00529  -0.97881  -0.94251  -0.89411  -0.88639
  Beta  occ. eigenvalues --   -0.84950  -0.74691  -0.68763  -0.63775  -0.61510
  Beta  occ. eigenvalues --   -0.60676  -0.59003  -0.53013  -0.50604  -0.47964
  Beta  occ. eigenvalues --   -0.44509  -0.42349  -0.41493  -0.40206  -0.39070
  Beta  occ. eigenvalues --   -0.38383  -0.37460  -0.35735  -0.34879  -0.34179
  Beta  occ. eigenvalues --   -0.32910  -0.31818  -0.31456  -0.30675  -0.29211
  Beta  occ. eigenvalues --   -0.28384  -0.26945  -0.26789  -0.26218  -0.25919
  Beta  occ. eigenvalues --   -0.23891  -0.23345  -0.22065  -0.20904  -0.20146
  Beta  occ. eigenvalues --   -0.19654  -0.19473  -0.18240  -0.15833  -0.15237
  Beta  occ. eigenvalues --   -0.11705  -0.09809
  Beta virt. eigenvalues --    0.06027   0.08353   0.08717   0.09048   0.09700
  Beta virt. eigenvalues --    0.10511   0.10862   0.11013   0.11328   0.11842
  Beta virt. eigenvalues --    0.12150   0.12435   0.13703   0.13910   0.14700

 Mulliken charges and spin densities:
               1          2
     1  C   -0.488421  -0.162031
     2  C   -0.106798   0.094557
     3  C   -0.173061  -0.060158
     4  N   -0.017186   0.035796
     5  C   -0.324854  -0.008383
     6  S    0.419859   0.071786
     7  O   -0.261258  -0.003990
     8  O   -0.077325  -0.008245
     9  C   -1.353572  -0.073556
    10  C    1.354387   0.205680
    11  C   -1.088106  -0.095229
    12  C    0.188606   0.545593
    13  S   -0.413840   0.145137
    14  C    0.004849   0.125236
    15  O   -0.380724   0.026930
    16  O   -0.202168   0.009669
    17  O   -0.154176   0.001376
    18  H    0.137012   0.021577
    19  H    0.123964   0.025057
    20  H    0.111552   0.023196
    21  H    0.211045   0.001564
    22  H    0.131164   0.054989
    23  H    0.156362   0.017863
    24  H    0.171995   0.032629
    25  H    0.240983   0.000814
    26  H    0.257234  -0.039357
    27  H    0.261597   0.000123
    28  H    0.270880   0.011377
 Sum of Mulliken charges =  -1.00000   1.00000

 Dipole moment (field-independent basis, Debye):
    X=             -5.6840    Y=              4.3193    Z=              0.8367  Tot=              7.1878
 Quadrupole moment (field-independent basis, Debye-Ang):
   XX=           -172.9889   YY=           -125.9510   ZZ=           -132.7565
   XY=             -4.7175   XZ=             -8.4926   YZ=             -0.9077

 Summary of Natural Population Analysis:

                                       Natural Population
                Natural  -----------------------------------------------
    Atom  No    Charge         Core      Valence    Rydberg      Total
 -----------------------------------------------------------------------
      C    1   -0.29165      0.99962     2.28625    0.00578     3.29165
      C    2    0.11936      0.99953     1.86700    0.01411     2.88064
      C    3   -0.09509      0.99961     2.08448    0.01100     3.09509
      N    4   -0.36776      0.99978     2.85370    0.01428     3.86776
      C    5   -0.09672      0.99960     2.08649    0.01063     3.09672
      S    6    1.11540      4.99903     1.78293    0.10263     6.88460
      O    7   -0.48746      0.99990     3.48221    0.00535     4.48746
      O    8   -0.45788      0.99990     3.45252    0.00546     4.45788
      C    9   -0.24245      0.99939     2.22728    0.01579     3.24245
      C   10   -0.08481      0.99943     2.07512    0.01026     3.08481
      C   11   -0.13673      0.99942     2.12613    0.01118     3.13673
      C   12   -0.00597      0.99952     1.99591    0.01054     3.00597
      S   13    0.26054      4.99937     2.71716    0.02292     7.73946
      C   14    0.41793      0.99964     1.55793    0.02450     2.58207
      O   15   -0.32550      0.99987     3.31799    0.00764     4.32550
      O   16   -0.34800      0.99988     3.34220    0.00592     4.34800
      O   17   -0.38320      0.99988     3.37616    0.00716     4.38320
      H   18    0.10362      0.00000     0.39523    0.00115     0.39638
      H   19    0.10248      0.00000     0.39634    0.00118     0.39752
      H   20    0.09840      0.00000     0.40068    0.00092     0.40160
      H   21    0.10434      0.00000     0.39306    0.00260     0.39566
      H   22    0.09742      0.00000     0.40117    0.00141     0.40258
      H   23    0.09906      0.00000     0.39964    0.00130     0.40094
      H   24    0.11152      0.00000     0.38572    0.00276     0.38848
      H   25    0.11316      0.00000     0.38561    0.00123     0.38684
      H   26    0.10223      0.00000     0.39678    0.00099     0.39777
      H   27    0.23095      0.00000     0.26596    0.00309     0.26905
      H   28    0.24681      0.00000     0.25013    0.00306     0.25319
 =======================================================================
   * Total *    0.00000     24.99338    46.70178    0.30484    72.00000

 Normal termination of Gaussian 16 at Fri Dec 11 14:29:13 2020.
