 Gaussian 16, Revision A.03,

 -----------------------------------------------------------
 # opt freq B3LYP/6-31G(d) empiricaldispersion=gd3bj scf=xqc
 -----------------------------------------------------------

 ------------------------------
 CID_20770517_JID_1854_neutraal
 ------------------------------
 Symbolic Z-matrix:
 Charge =  0 Multiplicity = 1

 SCF Done:  E(RB3LYP) =  -510.413029991     A.U. after   15 cycles
 SCF Done:  E(RB3LYP) =  -510.416962200     A.U. after   12 cycles
 SCF Done:  E(RB3LYP) =  -510.417497840     A.U. after   12 cycles
 SCF Done:  E(RB3LYP) =  -510.417631444     A.U. after   10 cycles
 SCF Done:  E(RB3LYP) =  -510.417641633     A.U. after    9 cycles
 SCF Done:  E(RB3LYP) =  -510.417645099     A.U. after    8 cycles
 SCF Done:  E(RB3LYP) =  -510.417646474     A.U. after    8 cycles
 SCF Done:  E(RB3LYP) =  -510.417648683     A.U. after    8 cycles
 SCF Done:  E(RB3LYP) =  -510.417651066     A.U. after    9 cycles
 SCF Done:  E(RB3LYP) =  -510.417652262     A.U. after    8 cycles
 SCF Done:  E(RB3LYP) =  -510.417652811     A.U. after    8 cycles
 Optimization completed.
    -- Stationary point found.
 Normal termination of Gaussian 16 at Tue Dec  8 21:18:43 2020.

 --------------------------------------------------------------------
 #N Geom=AllCheck Guess=TCheck SCRF=Check GenChk RB3LYP/6-31G(d) Freq
 --------------------------------------------------------------------

 Structure from the checkpoint file:  "JID_1854.chk"
 ------------------------------
 CID_20770517_JID_1854_neutraal
 ------------------------------
 Charge =  0 Multiplicity = 1

 SCF Done:  E(RB3LYP) =  -510.417652811     A.U. after    1 cycles

  Exact polarizability: 144.795  -3.796  95.004   0.001   0.000  40.285
 Approx polarizability: 207.135 -13.595 172.592   0.002   0.001  61.719

                      1                      2                      3
                      A                      A                      A
 Frequencies --     40.6183               107.4431               119.7007
 Red. masses --      4.5781                 2.6834                 4.7250
 Frc consts  --      0.0045                 0.0183                 0.0399
 IR Inten    --      0.0000                 1.5313                 0.7215

                      4                      5                      6
                      A                      A                      A
 Frequencies --    130.6372               234.0176               304.7488
 Red. masses --      1.3326                 3.6530                 3.2247
 Frc consts  --      0.0134                 0.1179                 0.1765
 IR Inten    --      0.9241                 1.8785                 0.2826

                      7                      8                      9
                      A                      A                      A
 Frequencies --    355.6403               393.8701               478.0729
 Red. masses --      6.6278                 6.7041                 1.6337
 Frc consts  --      0.4939                 0.6128                 0.2200
 IR Inten    --      0.2257                 0.6279                51.1711

                     10                     11                     12
                      A                      A                      A
 Frequencies --    486.3880               630.1262               664.5735
 Red. masses --      4.5276                 3.6560                 6.3357
 Frc consts  --      0.6311                 0.8553                 1.6487
 IR Inten    --      0.7938                 0.0063                 0.2848

                     13                     14                     15
                      A                      A                      A
 Frequencies --    675.5823               710.0703               728.7272
 Red. masses --      4.4221                 2.7664                 3.3916
 Frc consts  --      1.1892                 0.8218                 1.0612
 IR Inten    --      1.1461                40.8325                 0.3233

                     16                     17                     18
                      A                      A                      A
 Frequencies --    794.4155               845.1393               849.7916
 Red. masses --      1.2592                 1.3620                 1.3876
 Frc consts  --      0.4682                 0.5732                 0.5904
 IR Inten    --     40.7087                 0.0215                26.4497

                     19                     20                     21
                      A                      A                      A
 Frequencies --    935.0726               983.6384               996.5320
 Red. masses --      6.9896                 3.2329                 5.9159
 Frc consts  --      3.6007                 1.8430                 3.4614
 IR Inten    --     12.5670                10.0410                25.3650

                     22                     23                     24
                      A                      A                      A
 Frequencies --   1003.1346              1031.8048              1054.5740
 Red. masses --      2.8438                 2.4905                 1.3754
 Frc consts  --      1.6860                 1.5622                 0.9013
 IR Inten    --      9.6583                26.2938                31.6506

                     25                     26                     27
                      A                      A                      A
 Frequencies --   1080.6184              1136.2239              1182.0618
 Red. masses --      1.4627                 2.1408                 6.2860
 Frc consts  --      1.0064                 1.6284                 5.1750
 IR Inten    --      2.9803                 3.0135                18.1826

                     28                     29                     30
                      A                      A                      A
 Frequencies --   1223.3707              1238.8623              1261.9830
 Red. masses --      3.1814                 1.9898                 2.6871
 Frc consts  --      2.8053                 1.7993                 2.5214
 IR Inten    --     18.2532                 4.0692                 2.9779

                     31                     32                     33
                      A                      A                      A
 Frequencies --   1267.3970              1370.7880              1390.5252
 Red. masses --      4.2070                 4.2521                 4.2312
 Frc consts  --      3.9815                 4.7075                 4.8202
 IR Inten    --      5.5830                 0.9468                 8.2367

                     34                     35                     36
                      A                      A                      A
 Frequencies --   1426.9561              1445.0698              1489.8357
 Red. masses --      2.8237                 1.3056                 3.3778
 Frc consts  --      3.3876                 1.6064                 4.4174
 IR Inten    --      7.5984                 2.0296                20.8118

                     37                     38                     39
                      A                      A                      A
 Frequencies --   1501.9909              1522.0530              1541.6994
 Red. masses --      1.0427                 1.1506                 2.7992
 Frc consts  --      1.3860                 1.5705                 3.9200
 IR Inten    --      6.4849                 2.1620                 4.5364

                     40                     41                     42
                      A                      A                      A
 Frequencies --   1630.1971              1677.0639              3047.2007
 Red. masses --      6.8193                 7.2426                 1.0379
 Frc consts  --     10.6775                12.0018                 5.6780
 IR Inten    --     55.1785                 1.7871                33.2860

                     43                     44                     45
                      A                      A                      A
 Frequencies --   3097.8519              3143.8724              3262.7721
 Red. masses --      1.1015                 1.0998                 1.0929
 Frc consts  --      6.2282                 6.4044                 6.8547
 IR Inten    --     15.2053                10.9220                 9.0327

                     46                     47                     48
                      A                      A                      A
 Frequencies --   3275.8927              3288.1983              3672.6935
 Red. masses --      1.1011                 1.0976                 1.0823
 Frc consts  --      6.9619                 6.9920                 8.6014
 IR Inten    --      1.3974                 0.7884               131.7564

 - Thermochemistry -
 -------------------
 Temperature   298.150 Kelvin.  Pressure   1.00000 Atm.
 Atom     1 has atomic number  6 and mass  12.00000

 Molecular mass:   149.05891 amu.
 Principal axes and moments of inertia in atomic units:
                           1         2         3
     Eigenvalues --   507.894612816.742263313.38739
           X            0.99995   0.00950  -0.00000
           Y           -0.00950   0.99995  -0.00000
           Z            0.00000   0.00000   1.00000
 This molecule is an asymmetric top.
 Rotational symmetry number  1.
 Warning -- assumption of classical behavior for rotation
           may cause significant error
 Rotational temperatures (Kelvin)      0.17054     0.03075     0.02614
 Rotational constants (GHZ):           3.55338     0.64072     0.54468
 Zero-point vibrational energy     363243.1 (Joules/Mol)
                                   86.81717 (Kcal/Mol)
 Warning -- explicit consideration of  10 degrees of freedom as
           vibrations may cause significant error
 Vibrational temperatures:     58.44   154.59   172.22   187.96   336.70
          (Kelvin)            438.47   511.69   566.69   687.84   699.80
                              906.61   956.17   972.01  1021.63  1048.48
                             1142.99  1215.97  1222.66  1345.36  1415.24
                             1433.79  1443.29  1484.54  1517.30  1554.77
                             1634.77  1700.72  1760.16  1782.45  1815.71
                             1823.50  1972.26  2000.66  2053.07  2079.13
                             2143.54  2161.03  2189.89  2218.16  2345.49
                             2412.92  4384.24  4457.12  4523.33  4694.40
                             4713.28  4730.98  5284.19

 Zero-point correction=                           0.138352 (Hartree/Particle)
 Thermal correction to Energy=                    0.147418
 Thermal correction to Enthalpy=                  0.148362
 Thermal correction to Gibbs Free Energy=         0.103029
 Sum of electronic and zero-point Energies=           -510.279301
 Sum of electronic and thermal Energies=              -510.270235
 Sum of electronic and thermal Enthalpies=            -510.269291
 Sum of electronic and thermal Free Energies=         -510.314624

                     E (Thermal)             CV                S
                      KCal/Mol        Cal/Mol-Kelvin    Cal/Mol-Kelvin
 Total                   92.506             33.485             95.412
 Electronic               0.000              0.000              0.000
 Translational            0.889              2.981             40.908
 Rotational               0.889              2.981             29.940
 Vibrational             90.729             27.523             24.565
 Vibration     1          0.594              1.981              5.229
 Vibration     2          0.606              1.943              3.315
 Vibration     3          0.609              1.933              3.105
 Vibration     4          0.612              1.923              2.937
 Vibration     5          0.654              1.789              1.848
 Vibration     6          0.696              1.665              1.391
 Vibration     7          0.731              1.564              1.141
 Vibration     8          0.761              1.483              0.985
 Vibration     9          0.835              1.299              0.715
 Vibration    10          0.842              1.280              0.693

 Optimization completed.
    -- Stationary point found.
 Normal termination of Gaussian 16 at Tue Dec  8 21:21:45 2020.

 ----------------------------------------------------------------------
 # B3LYP/6-311++G(d,p) empiricaldispersion=gd3bj scf=xqc pop=npa geom=c
 heck
 ----------------------------------------------------------------------

 --------------------------------------
 CID_20770517_JID_1854_Energie_neutraal
 --------------------------------------
 Structure from the checkpoint file:  "JID_1854.chk"
 Charge =  0 Multiplicity = 1

 SCF Done:  E(RB3LYP) =  -510.556104501     A.U. after   15 cycles
 Normal termination of Gaussian 16 at Tue Dec  8 21:22:58 2020.

 ----------------------------------------------------------------------
 # B3LYP/6-311++G(d,p) empiricaldispersion=gd3bj scf=xqc pop=npa geom=c
 heck
 ----------------------------------------------------------------------

 ------------------------------------
 CID_20770517_JID_1854_Energie_kation
 ------------------------------------
 Structure from the checkpoint file:  "JID_1854.chk"
 Charge =  1 Multiplicity = 2

 SCF Done:  E(UB3LYP) =  -510.270151947     A.U. after   19 cycles
 Normal termination of Gaussian 16 at Tue Dec  8 21:26:44 2020.
 Gaussian 16:  ES64L-G16RevA.03 25-Dec-2016

 ----------------------------------------------------------------------
 # B3LYP/6-311++G(d,p) empiricaldispersion=gd3bj scf=xqc pop=npa geom=c
 heck
 ----------------------------------------------------------------------

 -----------------------------------
 CID_20770517_JID_1854_Energie_anion
 -----------------------------------
 Structure from the checkpoint file:  "JID_1854.chk"
 Charge = -1 Multiplicity = 2

                         Standard orientation:
 ---------------------------------------------------------------------
 Center     Atomic      Atomic             Coordinates (Angstroms)
 Number     Number       Type             X           Y           Z
 ---------------------------------------------------------------------
      1          6           0       -3.534567   -1.139063    0.000052
      2          6           0       -2.417311   -0.158827    0.000052
      3          6           0       -2.357625    1.205921    0.000007
      4          6           0       -0.971325    1.556765   -0.000109
      5          6           0       -0.273742    0.378635   -0.000003
      6          8           0       -1.150304   -0.674108   -0.000014
      7          6           0        1.140249    0.085459    0.000012
      8          7           0        1.637580   -1.162968   -0.000127
      9          7           0        2.952832   -0.959159   -0.000023
     10          7           0        3.369927    0.304267    0.000130
     11          6           0        2.228508    0.992693    0.000030
     12          1           0       -3.498316   -1.786972   -0.884166
     13          1           0       -3.497815   -1.787578    0.883803
     14          1           0       -4.491440   -0.610430    0.000498
     15          1           0       -3.202429    1.880242    0.000011
     16          1           0       -0.547949    2.551402   -0.000171
     17          1           0        3.603223   -1.730724   -0.000048
     18          1           0        2.229665    2.072441    0.000085
 ---------------------------------------------------------------------

 SCF Done:  E(UB3LYP) =  -510.540582275     A.U. after   33 cycles
 SCF Done:  E(UB3LYP) =  -510.540582276     a.u. after    2 cycles

 The electronic state is 2-A.
 Alpha  occ. eigenvalues --  -19.07671 -14.31205 -14.25088 -14.24034 -10.12326
 Alpha  occ. eigenvalues --  -10.12134 -10.10898 -10.10137 -10.07242 -10.06661
 Alpha  occ. eigenvalues --  -10.06231  -1.00636  -1.00077  -0.79446  -0.73461
 Alpha  occ. eigenvalues --   -0.69675  -0.67614  -0.60223  -0.53667  -0.52403
 Alpha  occ. eigenvalues --   -0.49370  -0.44851  -0.43716  -0.40360  -0.37547
 Alpha  occ. eigenvalues --   -0.35637  -0.35491  -0.34447  -0.30571  -0.30301
 Alpha  occ. eigenvalues --   -0.30128  -0.28528  -0.26528  -0.23217  -0.20469
 Alpha  occ. eigenvalues --   -0.19923  -0.19029  -0.17490  -0.10537   0.04716
 Alpha virt. eigenvalues --    0.06202   0.06906   0.07427   0.08749   0.09474
 Alpha virt. eigenvalues --    0.10465   0.10998   0.11979   0.13893   0.14048
 Alpha virt. eigenvalues --    0.14850   0.15634   0.16033   0.16977   0.17531

  Beta  occ. eigenvalues --  -19.07631 -14.31100 -14.25080 -14.23908 -10.12302
  Beta  occ. eigenvalues --  -10.12092 -10.10885 -10.10140 -10.07206 -10.06624
  Beta  occ. eigenvalues --  -10.06225  -1.00545  -0.99970  -0.79313  -0.73338
  Beta  occ. eigenvalues --   -0.69616  -0.67518  -0.60118  -0.53597  -0.52301
  Beta  occ. eigenvalues --   -0.49316  -0.44770  -0.43620  -0.40266  -0.37284
  Beta  occ. eigenvalues --   -0.35458  -0.35443  -0.34377  -0.30512  -0.30205
  Beta  occ. eigenvalues --   -0.30069  -0.28476  -0.26479  -0.23137  -0.20172
  Beta  occ. eigenvalues --   -0.19807  -0.18762  -0.17349  -0.10276
  Beta virt. eigenvalues --    0.07205   0.07611   0.07834   0.08291   0.09548
  Beta virt. eigenvalues --    0.09624   0.11148   0.11172   0.12468   0.14034
  Beta virt. eigenvalues --    0.14071   0.14973   0.15524   0.16056   0.17081

 Mulliken charges and spin densities:
               1          2
     1  C    3.126527  -3.615526
     2  C   -1.087709   1.402229
     3  C   -0.677255   0.367403
     4  C   -0.356672  -0.241086
     5  C    0.417919  -0.188038
     6  O   -0.043369   0.059267
     7  C    0.722524  -1.222707
     8  N   -0.223602   0.072217
     9  N    0.147596  -0.039401
    10  N    0.066253  -0.234013
    11  C   -0.312886   0.575629
    12  H   -0.209276   0.365410
    13  H    0.015934   0.131214
    14  H   -0.621890   0.795649
    15  H   -1.133095   1.301000
    16  H   -0.242970   0.363776
    17  H   -0.412287   0.750347
    18  H   -0.175741   0.356629
 Sum of Mulliken charges =  -1.00000   1.00000

 Dipole moment (field-independent basis, Debye):
    X=              2.5746    Y=              0.8697    Z=              0.5891  Tot=              2.7807
 Quadrupole moment (field-independent basis, Debye-Ang):
   XX=           -150.7910   YY=            -97.7166   ZZ=            -83.5558
   XY=             11.0837   XZ=             -2.3539   YZ=              0.0372

 Summary of Natural Population Analysis:

                                       Natural Population
                Natural  -----------------------------------------------
    Atom  No    Charge         Core      Valence    Rydberg      Total
 -----------------------------------------------------------------------
      C    1   -0.30677      0.99963     2.30118    0.00597     3.30677
      C    2    0.16411      0.99949     1.82214    0.01426     2.83589
      C    3   -0.15507      0.99950     2.14600    0.00957     3.15507
      C    4   -0.13011      0.99953     2.12170    0.00887     3.13011
      C    5    0.13320      0.99943     1.85370    0.01367     2.86680
      O    6   -0.22793      0.99985     3.22026    0.00782     4.22793
      C    7    0.02541      0.99955     1.96168    0.01336     2.97459
      N    8   -0.11319      0.99972     2.60102    0.01245     3.61319
      N    9   -0.06542      0.99975     2.54840    0.01726     3.56542
      N   10   -0.14119      0.99974     2.62741    0.01403     3.64119
      C   11   -0.02781      0.99960     2.01561    0.01260     3.02781
      H   12    0.10838      0.00000     0.38998    0.00164     0.39162
      H   13    0.10533      0.00000     0.39352    0.00115     0.39467
      H   14    0.11113      0.00000     0.38678    0.00209     0.38887
      H   15    0.11017      0.00000     0.38774    0.00209     0.38983
      H   16    0.10629      0.00000     0.39268    0.00103     0.39371
      H   17    0.20176      0.00000     0.28646    0.01178     0.29824
      H   18    0.10169      0.00000     0.39709    0.00122     0.39831
 =======================================================================
   * Total *   -0.00000     10.99577    27.85336    0.15087    39.00000

 Normal termination of Gaussian 16 at Tue Dec  8 21:40:17 2020.
