 Gaussian 16, Revision A.03,

 -----------------------------------------------------------
 # opt freq B3LYP/6-31G(d) empiricaldispersion=gd3bj scf=xqc
 -----------------------------------------------------------

 ------------------------------
 CID_151884537_JID_870_neutraal
 ------------------------------
 Symbolic Z-matrix:
 Charge =  0 Multiplicity = 1

 SCF Done:  E(RB3LYP) =  -499.646788760     A.U. after   14 cycles
 SCF Done:  E(RB3LYP) =  -499.650999085     A.U. after   12 cycles
 SCF Done:  E(RB3LYP) =  -499.650455377     A.U. after   12 cycles
 SCF Done:  E(RB3LYP) =  -499.651754187     A.U. after   12 cycles
 SCF Done:  E(RB3LYP) =  -499.651910431     A.U. after   12 cycles
 SCF Done:  E(RB3LYP) =  -499.651952432     A.U. after   11 cycles
 SCF Done:  E(RB3LYP) =  -499.651965380     A.U. after   10 cycles
 SCF Done:  E(RB3LYP) =  -499.651980872     A.U. after   10 cycles
 SCF Done:  E(RB3LYP) =  -499.651984131     A.U. after   10 cycles
 SCF Done:  E(RB3LYP) =  -499.651984665     A.U. after    8 cycles
 SCF Done:  E(RB3LYP) =  -499.651984711     A.U. after    7 cycles
 Optimization completed.
    -- Stationary point found.

 1\1\GINC-NODE374\FOpt\RB3LYP\6-31G(d)\C7H12O3\VSC10255\08-Dec-2020\0\\
 # opt freq B3LYP/6-31G(d) empiricaldispersion=gd3bj scf=xqc\\CID_15188
 4537_JID_870_neutraal\\0,1\C,0.8839249398,-0.2808755389,-0.1076640283\
 C,0.0828850116,-0.6486662713,1.114428172\C,-0.8947506522,0.1191750592,
 1.6014022068\C,0.4493585783,-1.9698798845,1.7680436775\C,0.3865501873,
 -3.089301314,0.7472812639\O,1.3374723803,-3.6670200975,0.2772433913\O,
 -0.9066363516,-3.3158177571,0.3793691965\C,-1.0993548339,-4.0070812926
 ,-0.8663364999\O,-1.0436210127,-3.1253382411,-1.9358001977\C,-2.097842

 Normal termination of Gaussian 16 at Tue Dec  8 13:09:19 2020.

 --------------------------------------------------------------------
 #N Geom=AllCheck Guess=TCheck SCRF=Check GenChk RB3LYP/6-31G(d) Freq
 --------------------------------------------------------------------

 Structure from the checkpoint file:  "JID_870.chk"
 ------------------------------
 CID_151884537_JID_870_neutraal
 ------------------------------
 Charge =  0 Multiplicity = 1

 SCF Done:  E(RB3LYP) =  -499.651984711     A.U. after    1 cycles

  Exact polarizability:  80.106  -4.949  86.223  -3.706   7.024  76.153
 Approx polarizability: 100.036  -9.625 123.099  -9.719  21.359 119.028

                      1                      2                      3
                      A                      A                      A
 Frequencies --     47.4336                50.9866                61.9620
 Red. masses --      3.6166                 4.6821                 3.1093
 Frc consts  --      0.0048                 0.0072                 0.0070
 IR Inten    --      0.7307                 0.3656                 1.3137

                      4                      5                      6
                      A                      A                      A
 Frequencies --     81.1572               140.2765               167.3333
 Red. masses --      3.8431                 2.1638                 2.3708
 Frc consts  --      0.0149                 0.0251                 0.0391
 IR Inten    --      0.8034                 4.3777                 1.2995

                      7                      8                      9
                      A                      A                      A
 Frequencies --    210.2277               222.3565               273.2647
 Red. masses --      1.6974                 1.0793                 4.1640
 Frc consts  --      0.0442                 0.0314                 0.1832
 IR Inten    --      2.6329                 0.7580                 7.5833

                     10                     11                     12
                      A                      A                      A
 Frequencies --    351.3010               387.9305               414.6829
 Red. masses --      4.0913                 2.1800                 2.3976
 Frc consts  --      0.2975                 0.1933                 0.2429
 IR Inten    --      1.6423                 2.2104                 1.0202

                     13                     14                     15
                      A                      A                      A
 Frequencies --    448.7407               489.8452               559.1777
 Red. masses --      2.2808                 2.5381                 4.5185
 Frc consts  --      0.2706                 0.3588                 0.8324
 IR Inten    --     22.2392                 3.2892                20.4583

                     16                     17                     18
                      A                      A                      A
 Frequencies --    666.1010               703.2255               765.6457
 Red. masses --      3.4675                 1.4608                 2.8643
 Frc consts  --      0.9064                 0.4256                 0.9893
 IR Inten    --      3.7784                 4.8145                 5.5376

                     19                     20                     21
                      A                      A                      A
 Frequencies --    852.9800               861.3234               925.3801
 Red. masses --      3.2742                 3.4311                 1.3419
 Frc consts  --      1.4036                 1.4997                 0.6770
 IR Inten    --      7.5991                 9.5874                37.0664

                     22                     23                     24
                      A                      A                      A
 Frequencies --    956.1363               959.7769               993.2006
 Red. masses --      2.0279                 4.2922                 1.9986
 Frc consts  --      1.0923                 2.3295                 1.1616
 IR Inten    --     28.0041                26.9876                32.7086

                     25                     26                     27
                      A                      A                      A
 Frequencies --   1001.0556              1066.0201              1090.7328
 Red. masses --      3.1762                 1.6391                 1.4719
 Frc consts  --      1.8753                 1.0974                 1.0318
 IR Inten    --    217.1372                32.5180                 9.0035

                     28                     29                     30
                      A                      A                      A
 Frequencies --   1127.8785              1170.5329              1192.7451
 Red. masses --      2.1750                 1.7130                 1.3071
 Frc consts  --      1.6302                 1.3829                 1.0956
 IR Inten    --     52.9897               169.3372                 1.2222

                     31                     32                     33
                      A                      A                      A
 Frequencies --   1206.0261              1243.3087              1271.1307
 Red. masses --      2.6122                 1.5519                 2.4747
 Frc consts  --      2.2385                 1.4134                 2.3558
 IR Inten    --     77.8919                14.6111               132.2200

                     34                     35                     36
                      A                      A                      A
 Frequencies --   1320.5263              1327.4430              1343.3282
 Red. masses --      2.1640                 1.5877                 1.1470
 Frc consts  --      2.2234                 1.6484                 1.2195
 IR Inten    --     27.2440                45.1959                 0.9543

                     37                     38                     39
                      A                      A                      A
 Frequencies --   1444.4996              1449.5239              1472.5741
 Red. masses --      1.2198                 1.2238                 1.1980
 Frc consts  --      1.4996                 1.5151                 1.5306
 IR Inten    --     14.2519                 6.1002                 1.0408

                     40                     41                     42
                      A                      A                      A
 Frequencies --   1492.1956              1496.4026              1514.4289
 Red. masses --      1.0996                 1.1308                 1.0487
 Frc consts  --      1.4426                 1.4919                 1.4171
 IR Inten    --      5.3659                 0.2787                10.4781

                     43                     44                     45
                      A                      A                      A
 Frequencies --   1517.5392              1526.0788              1530.3290
 Red. masses --      1.0499                 1.0611                 1.1099
 Frc consts  --      1.4246                 1.4560                 1.5314
 IR Inten    --      0.0423                 3.9033                 9.5105

                     46                     47                     48
                      A                      A                      A
 Frequencies --   1544.1085              1740.7000              1842.5139
 Red. masses --      1.0607                 5.1398                11.0321
 Frc consts  --      1.4900                 9.1759                22.0664
 IR Inten    --      5.9053                24.8381               225.6082

                     49                     50                     51
                      A                      A                      A
 Frequencies --   3019.1024              3040.2788              3060.5095
 Red. masses --      1.0429                 1.0377                 1.0663
 Frc consts  --      5.6009                 5.6514                 5.8847
 IR Inten    --     48.1408                15.2585                70.7685

                     52                     53                     54
                      A                      A                      A
 Frequencies --   3072.6850              3090.5308              3098.9264
 Red. masses --      1.0582                 1.0998                 1.0946
 Frc consts  --      5.8866                 6.1893                 6.1935
 IR Inten    --      9.7709                16.3751                22.4813

                     55                     56                     57
                      A                      A                      A
 Frequencies --   3126.2150              3134.1523              3157.7657
 Red. masses --      1.1058                 1.1011                 1.1024
 Frc consts  --      6.3675                 6.3728                 6.4768
 IR Inten    --      9.8536                18.4749                21.7370

                     58                     59                     60
                      A                      A                      A
 Frequencies --   3161.3990              3180.6433              3239.3542
 Red. masses --      1.0602                 1.1015                 1.1163
 Frc consts  --      6.2431                 6.5654                 6.9016
 IR Inten    --      8.0847                 8.4626                16.3367

 - Thermochemistry -
 -------------------
 Temperature   298.150 Kelvin.  Pressure   1.00000 Atm.
 Atom     1 has atomic number  6 and mass  12.00000

 Molecular mass:   144.07864 amu.
 Principal axes and moments of inertia in atomic units:
                           1         2         3
     Eigenvalues --  1078.873251744.704312222.29625
           X            0.99990   0.00788   0.01184
           Y           -0.00771   0.99988  -0.01374
           Z           -0.01194   0.01365   0.99984
 This molecule is an asymmetric top.
 Rotational symmetry number  1.
 Warning -- assumption of classical behavior for rotation
           may cause significant error
 Rotational temperatures (Kelvin)      0.08028     0.04964     0.03897
 Rotational constants (GHZ):           1.67280     1.03441     0.81211
 Zero-point vibrational energy     489892.5 (Joules/Mol)
                                  117.08712 (Kcal/Mol)
 Warning -- explicit consideration of  15 degrees of freedom as
           vibrations may cause significant error
 Vibrational temperatures:     68.25    73.36    89.15   116.77   201.83
          (Kelvin)            240.76   302.47   319.92   393.17   505.44
                              558.15   596.64   645.64   704.78   804.53
                              958.37  1011.78  1101.59  1227.25  1239.25
                             1331.42  1375.67  1380.90  1428.99  1440.30
                             1533.77  1569.32  1622.77  1684.14  1716.09
                             1735.20  1788.84  1828.87  1899.94  1909.89
                             1932.75  2078.31  2085.54  2118.71  2146.94
                             2152.99  2178.93  2183.40  2195.69  2201.80
                             2221.63  2504.48  2650.97  4343.81  4374.28
                             4403.39  4420.91  4446.58  4458.66  4497.93
                             4509.35  4543.32  4548.55  4576.24  4660.71

 Zero-point correction=                           0.186590 (Hartree/Particle)
 Thermal correction to Energy=                    0.198037
 Thermal correction to Enthalpy=                  0.198981
 Thermal correction to Gibbs Free Energy=         0.148222
 Sum of electronic and zero-point Energies=           -499.465395
 Sum of electronic and thermal Energies=              -499.453948
 Sum of electronic and thermal Enthalpies=            -499.453004
 Sum of electronic and thermal Free Energies=         -499.503762

                     E (Thermal)             CV                S
                      KCal/Mol        Cal/Mol-Kelvin    Cal/Mol-Kelvin
 Total                  124.270             39.938            106.831
 Electronic               0.000              0.000              0.000
 Translational            0.889              2.981             40.807
 Rotational               0.889              2.981             29.815
 Vibrational            122.493             33.977             36.209
 Vibration     1          0.595              1.979              4.922
 Vibration     2          0.595              1.977              4.779
 Vibration     3          0.597              1.972              4.394
 Vibration     4          0.600              1.962              3.863
 Vibration     5          0.615              1.913              2.800
 Vibration     6          0.624              1.883              2.465
 Vibration     7          0.642              1.825              2.042
 Vibration     8          0.648              1.807              1.940
 Vibration     9          0.676              1.723              1.575
 Vibration    10          0.728              1.573              1.160
 Vibration    11          0.756              1.496              1.008
 Vibration    12          0.778              1.438              0.910
 Vibration    13          0.808              1.364              0.800
 Vibration    14          0.846              1.273              0.684
 Vibration    15          0.915              1.120              0.525

                           ! Non-Optimized Parameters !

 1\1\GINC-NODE374\Freq\RB3LYP\6-31G(d)\C7H12O3\VSC10255\08-Dec-2020\0\\
 #N Geom=AllCheck Guess=TCheck SCRF=Check GenChk RB3LYP/6-31G(d) Freq\\
 CID_151884537_JID_870_neutraal\\0,1\C,0.8839249398,-0.2808755389,-0.10
 76640283\C,0.0828850116,-0.6486662713,1.114428172\C,-0.8947506522,0.11
 91750592,1.6014022068\C,0.4493585783,-1.9698798845,1.7680436775\C,0.38
 65501873,-3.089301314,0.7472812639\O,1.3374723803,-3.6670200975,0.2772
 433913\O,-0.9066363516,-3.3158177571,0.3793691965\C,-1.0993548339,-4.0
 070812926,-0.8663364999\O,-1.0436210127,-3.1253382411,-1.9358001977\C,

 Normal termination of Gaussian 16 at Tue Dec  8 13:17:05 2020.

 ----------------------------------------------------------------------
 # B3LYP/6-311++G(d,p) empiricaldispersion=gd3bj scf=xqc pop=npa geom=c
 heck
 ----------------------------------------------------------------------

 --------------------------------------
 CID_151884537_JID_870_Energie_neutraal
 --------------------------------------
 Structure from the checkpoint file:  "JID_870.chk"
 Charge =  0 Multiplicity = 1

 SCF Done:  E(RB3LYP) =  -499.803102814     A.U. after   14 cycles
 Normal termination of Gaussian 16 at Tue Dec  8 13:23:56 2020.

 ----------------------------------------------------------------------
 # B3LYP/6-311++G(d,p) empiricaldispersion=gd3bj scf=xqc pop=npa geom=c
 heck
 ----------------------------------------------------------------------

 ------------------------------------
 CID_151884537_JID_870_Energie_kation
 ------------------------------------
 Structure from the checkpoint file:  "JID_870.chk"
 Charge =  1 Multiplicity = 2

 SCF Done:  E(UB3LYP) =  -499.468832015     A.U. after   20 cycles
 Normal termination of Gaussian 16 at Tue Dec  8 13:31:08 2020.
 Gaussian 16:  ES64L-G16RevA.03 25-Dec-2016

 -----------------------------------
 CID_151884537_JID_870_Energie_anion
 -----------------------------------
 Structure from the checkpoint file:  "JID_870.chk"
 Charge = -1 Multiplicity = 2

                         Standard orientation:
 ---------------------------------------------------------------------
 Center     Atomic      Atomic             Coordinates (Angstroms)
 Number     Number       Type             X           Y           Z
 ---------------------------------------------------------------------
      1          6           0        1.638264   -0.697298    1.427601
      2          6           0        1.894555   -0.398056   -0.026776
      3          6           0        2.382973   -1.301320   -0.880039
      4          6           0        1.551324    1.010817   -0.478874
      5          6           0        0.112416    1.333372   -0.126019
      6          8           0       -0.245784    2.095136    0.740211
      7          8           0       -0.735735    0.587133   -0.889412
      8          6           0       -2.075830    0.441187   -0.389800
      9          8           0       -2.149207   -0.587522    0.537942
     10          6           0       -1.873480   -1.872125   -0.014598
     11          1           0        1.974667   -1.703381    1.693312
     12          1           0        0.568153   -0.619657    1.660640
     13          1           0        2.151189    0.024756    2.075816
     14          1           0        2.544202   -1.070301   -1.929495
     15          1           0        2.644854   -2.304580   -0.554049
     16          1           0        2.179710    1.746820    0.033762
     17          1           0        1.695443    1.106658   -1.559273
     18          1           0       -2.385018    1.355160    0.115279
     19          1           0       -2.677763    0.237409   -1.283727
     20          1           0       -2.551634   -2.092714   -0.852446
     21          1           0       -0.837433   -1.941899   -0.364031
     22          1           0       -2.041878   -2.595716    0.785316
 ---------------------------------------------------------------------

 SCF Done:  E(UB3LYP) =  -499.786007449     A.U. after   32 cycles

 The electronic state is 2-A.
 Alpha  occ. eigenvalues --  -19.06556 -19.04047 -19.01841 -10.20559 -10.17403
 Alpha  occ. eigenvalues --  -10.10891 -10.08695 -10.08439 -10.06184 -10.05530
 Alpha  occ. eigenvalues --   -1.01650  -0.95733  -0.91665  -0.72164  -0.65013
 Alpha  occ. eigenvalues --   -0.61575  -0.58652  -0.56087  -0.47295  -0.44072
 Alpha  occ. eigenvalues --   -0.41579  -0.40977  -0.39616  -0.36747  -0.36411
 Alpha  occ. eigenvalues --   -0.35007  -0.33487  -0.32338  -0.30516  -0.29793
 Alpha  occ. eigenvalues --   -0.28692  -0.27335  -0.27147  -0.24375  -0.23216
 Alpha  occ. eigenvalues --   -0.21770  -0.19133  -0.18480  -0.15111   0.04844
 Alpha virt. eigenvalues --    0.06981   0.07532   0.08644   0.08842   0.09549
 Alpha virt. eigenvalues --    0.09969   0.10741   0.10959   0.11419   0.12562
 Alpha virt. eigenvalues --    0.13253   0.14103   0.14526   0.15791   0.15930

  Beta  occ. eigenvalues --  -19.06549 -19.04034 -19.01829 -10.20541 -10.17382
  Beta  occ. eigenvalues --  -10.10848 -10.08693 -10.08415 -10.06151 -10.05485
  Beta  occ. eigenvalues --   -1.01627  -0.95706  -0.91643  -0.72130  -0.64969
  Beta  occ. eigenvalues --   -0.61521  -0.58588  -0.56023  -0.47239  -0.44001
  Beta  occ. eigenvalues --   -0.41530  -0.40926  -0.39574  -0.36686  -0.36374
  Beta  occ. eigenvalues --   -0.34964  -0.33446  -0.32293  -0.30468  -0.29749
  Beta  occ. eigenvalues --   -0.28656  -0.27297  -0.27106  -0.24330  -0.23168
  Beta  occ. eigenvalues --   -0.21722  -0.19110  -0.18448  -0.15050
  Beta virt. eigenvalues --    0.07328   0.07783   0.08537   0.09223   0.09377
  Beta virt. eigenvalues --    0.10303   0.10634   0.11121   0.11486   0.11715
  Beta virt. eigenvalues --    0.13112   0.13529   0.14509   0.14725   0.15975

 Mulliken charges and spin densities:
               1          2
     1  C    0.657371  -1.351158
     2  C   -2.770171   3.798638
     3  C    1.843942  -2.563515
     4  C    1.664759  -2.382116
     5  C   -0.474738   0.441152
     6  O   -0.241417   0.023048
     7  O   -0.035973   0.040741
     8  C    0.732747  -0.860378
     9  O   -0.233634   0.082045
    10  C    0.556209  -0.930895
    11  H   -0.461600   0.622243
    12  H    0.257589  -0.073481
    13  H   -0.079958   0.223639
    14  H   -0.383723   0.522920
    15  H   -0.367404   0.499995
    16  H   -0.026307   0.209128
    17  H   -0.503204   0.701583
    18  H    0.156643   0.045138
    19  H   -0.443874   0.604082
    20  H   -0.472913   0.613275
    21  H   -0.030879   0.241022
    22  H   -0.343468   0.492894
 Sum of Mulliken charges =  -1.00000   1.00000

 Dipole moment (field-independent basis, Debye):
    X=             -1.2557    Y=              3.6213    Z=              1.6818  Tot=              4.1856
 Quadrupole moment (field-independent basis, Debye-Ang):
   XX=           -112.6226   YY=           -105.1252   ZZ=            -99.3164
   XY=             -1.2294   XZ=             -0.3694   YZ=             -0.9733

 Summary of Natural Population Analysis:

                                       Natural Population
                Natural  -----------------------------------------------
    Atom  No    Charge         Core      Valence    Rydberg      Total
 -----------------------------------------------------------------------
      C    1   -0.30362      0.99961     2.29734    0.00667     3.30362
      C    2   -0.00354      0.99953     1.99238    0.01162     3.00354
      C    3   -0.18508      0.99947     2.17672    0.00890     3.18508
      C    4   -0.24739      0.99953     2.23749    0.01037     3.24739
      C    5    0.41822      0.99969     1.55549    0.02660     2.58178
      O    6   -0.30080      0.99986     3.29523    0.00570     4.30080
      O    7   -0.29389      0.99986     3.28401    0.01001     4.29389
      C    8    0.14019      0.99960     1.84295    0.01726     2.85981
      O    9   -0.29144      0.99989     3.28257    0.00899     4.29144
      C   10   -0.10455      0.99961     2.09548    0.00946     3.10455
      H   11    0.10616      0.00000     0.39256    0.00128     0.39384
      H   12    0.10787      0.00000     0.39068    0.00144     0.39213
      H   13    0.10289      0.00000     0.39592    0.00119     0.39711
      H   14    0.09595      0.00000     0.40215    0.00189     0.40405
      H   15    0.09572      0.00000     0.40271    0.00157     0.40428
      H   16    0.11147      0.00000     0.38726    0.00126     0.38853
      H   17    0.11806      0.00000     0.37962    0.00232     0.38194
      H   18    0.09136      0.00000     0.40712    0.00152     0.40864
      H   19    0.07763      0.00000     0.42048    0.00188     0.42237
      H   20    0.08182      0.00000     0.41572    0.00247     0.41818
      H   21    0.09128      0.00000     0.40673    0.00199     0.40872
      H   22    0.09167      0.00000     0.40684    0.00149     0.40833
 =======================================================================
   * Total *    0.00000      9.99664    28.86747    0.13589    39.00000

 Normal termination of Gaussian 16 at Tue Dec  8 13:45:40 2020.
