 Gaussian 16, Revision A.03,

 -----------------------------------------------------------
 # opt freq B3LYP/6-31G(d) empiricaldispersion=gd3bj scf=xqc
 -----------------------------------------------------------

 ------------------------------
 CID_71564965_JID_5923_neutraal
 ------------------------------
 Symbolic Z-matrix:
 Charge =  0 Multiplicity = 1

 SCF Done:  E(RB3LYP) =  -693.620385416     A.U. after   14 cycles
 SCF Done:  E(RB3LYP) =  -693.625010968     A.U. after   12 cycles
 SCF Done:  E(RB3LYP) =  -693.625835257     A.U. after   12 cycles
 SCF Done:  E(RB3LYP) =  -693.626153142     A.U. after   12 cycles
 SCF Done:  E(RB3LYP) =  -693.627380808     A.U. after   12 cycles
 SCF Done:  E(RB3LYP) =  -693.629190444     A.U. after   12 cycles
 SCF Done:  E(RB3LYP) =  -693.630855827     A.U. after   13 cycles
 SCF Done:  E(RB3LYP) =  -693.631050571     A.U. after   13 cycles
 SCF Done:  E(RB3LYP) =  -693.631626279     A.U. after   12 cycles
 SCF Done:  E(RB3LYP) =  -693.632254166     A.U. after   12 cycles
 SCF Done:  E(RB3LYP) =  -693.637256534     A.U. after   10 cycles
 SCF Done:  E(RB3LYP) =  -693.637256812     A.U. after    8 cycles
 SCF Done:  E(RB3LYP) =  -693.637256879     A.U. after    6 cycles
 SCF Done:  E(RB3LYP) =  -693.637256924     A.U. after    8 cycles
 SCF Done:  E(RB3LYP) =  -693.637256931     A.U. after    7 cycles
 Optimization completed.
    -- Stationary point found.
 Normal termination of Gaussian 16 at Thu Dec 10 18:01:20 2020.

 --------------------------------------------------------------------
 #N Geom=AllCheck Guess=TCheck SCRF=Check GenChk RB3LYP/6-31G(d) Freq
 --------------------------------------------------------------------

 Structure from the checkpoint file:  "JID_5923.chk"
 ------------------------------
 CID_71564965_JID_5923_neutraal
 ------------------------------
 Charge =  0 Multiplicity = 1

 SCF Done:  E(RB3LYP) =  -693.637256931     A.U. after    1 cycles

  Exact polarizability: 149.448   0.168 134.242  -1.684  -1.220 123.414
 Approx polarizability: 186.458   4.283 188.068  -6.073  -2.799 187.559

                      1                      2                      3
                      A                      A                      A
 Frequencies --     12.1658                27.2404                39.6753
 Red. masses --      3.6552                 3.1476                 2.6935
 Frc consts  --      0.0003                 0.0014                 0.0025
 IR Inten    --      0.3007                 0.0280                 0.2857

                      4                      5                      6
                      A                      A                      A
 Frequencies --     45.1573                72.7982               101.9955
 Red. masses --      6.2887                 2.8739                 3.7070
 Frc consts  --      0.0076                 0.0090                 0.0227
 IR Inten    --      1.6203                 0.9464                 0.6285

                      7                      8                      9
                      A                      A                      A
 Frequencies --    126.7715               146.2114               170.6759
 Red. masses --      3.0859                 3.1181                 2.8491
 Frc consts  --      0.0292                 0.0393                 0.0489
 IR Inten    --      1.1565                 0.6543                 0.2359

                     10                     11                     12
                      A                      A                      A
 Frequencies --    180.6184               235.9275               250.2279
 Red. masses --      2.4883                 1.7675                 1.2132
 Frc consts  --      0.0478                 0.0580                 0.0448
 IR Inten    --      0.1220                 2.9383                 0.5140

                     13                     14                     15
                      A                      A                      A
 Frequencies --    254.6314               270.3166               284.7595
 Red. masses --      1.3677                 1.3879                 2.3611
 Frc consts  --      0.0522                 0.0598                 0.1128
 IR Inten    --      0.2574                 0.9309                 0.3693

                     16                     17                     18
                      A                      A                      A
 Frequencies --    303.2394               310.7826               333.5738
 Red. masses --      1.9842                 2.0236                 1.5618
 Frc consts  --      0.1075                 0.1152                 0.1024
 IR Inten    --      1.0892                 1.1599                 0.4001

                     19                     20                     21
                      A                      A                      A
 Frequencies --    366.4766               384.6906               392.6826
 Red. masses --      2.8939                 2.2182                 1.9298
 Frc consts  --      0.2290                 0.1934                 0.1753
 IR Inten    --      9.3841                 4.1889                 3.1872

                     22                     23                     24
                      A                      A                      A
 Frequencies --    410.4173               426.4921               440.9442
 Red. masses --      2.1593                 2.1819                 2.1529
 Frc consts  --      0.2143                 0.2338                 0.2466
 IR Inten    --      6.8612                 0.4905                 0.3880

                     25                     26                     27
                      A                      A                      A
 Frequencies --    491.6888               513.1485               597.4221
 Red. masses --      3.2573                 2.6233                 2.6719
 Frc consts  --      0.4640                 0.4070                 0.5619
 IR Inten    --      4.6048                 4.1988                 8.4608

                     28                     29                     30
                      A                      A                      A
 Frequencies --    614.8808               641.9882               706.2200
 Red. masses --      2.8058                 1.5177                 2.9187
 Frc consts  --      0.6250                 0.3685                 0.8577
 IR Inten    --     13.9897                45.5592                84.9527

                     31                     32                     33
                      A                      A                      A
 Frequencies --    736.1124               758.1011               770.2279
 Red. masses --      1.3830                 1.7936                 2.4703
 Frc consts  --      0.4415                 0.6073                 0.8634
 IR Inten    --     72.5235                43.9095                17.5224

                     34                     35                     36
                      A                      A                      A
 Frequencies --    817.4237               830.4225               854.6587
 Red. masses --      1.5244                 2.5447                 2.6673
 Frc consts  --      0.6001                 1.0339                 1.1479
 IR Inten    --     16.2725                 0.3469                 3.6030

                     37                     38                     39
                      A                      A                      A
 Frequencies --    895.3314               911.6992               922.8242
 Red. masses --      2.4174                 1.4895                 2.3073
 Frc consts  --      1.1417                 0.7295                 1.1577
 IR Inten    --     26.3925                11.1503                 7.1776

                     40                     41                     42
                      A                      A                      A
 Frequencies --    962.1873              1002.3008              1018.8923
 Red. masses --      1.7767                 1.8265                 1.8038
 Frc consts  --      0.9691                 1.0811                 1.1033
 IR Inten    --      2.3267                14.5880                19.9011

                     43                     44                     45
                      A                      A                      A
 Frequencies --   1068.9989              1077.0530              1085.3207
 Red. masses --      1.8404                 1.6211                 1.8051
 Frc consts  --      1.2391                 1.1080                 1.2528
 IR Inten    --     10.2999                10.0831                27.8948

                     46                     47                     48
                      A                      A                      A
 Frequencies --   1090.7532              1098.1364              1100.7117
 Red. masses --      1.7667                 2.1030                 1.9463
 Frc consts  --      1.2384                 1.4941                 1.3894
 IR Inten    --      6.4069                 7.4057                 7.7853

                     49                     50                     51
                      A                      A                      A
 Frequencies --   1136.2550              1145.3818              1149.4746
 Red. masses --      1.2904                 2.5764                 2.6198
 Frc consts  --      0.9816                 1.9914                 2.0395
 IR Inten    --      8.7658                93.4337                70.5174

                     52                     53                     54
                      A                      A                      A
 Frequencies --   1188.5717              1202.3732              1209.4418
 Red. masses --      1.5255                 1.7823                 2.0247
 Frc consts  --      1.2697                 1.5181                 1.7450
 IR Inten    --      6.5820                41.7946                68.3875

                     55                     56                     57
                      A                      A                      A
 Frequencies --   1219.3143              1229.6965              1279.4001
 Red. masses --      2.2804                 2.0846                 1.4320
 Frc consts  --      1.9975                 1.8572                 1.3811
 IR Inten    --     38.9325                 9.6570                11.6717

                     58                     59                     60
                      A                      A                      A
 Frequencies --   1305.0212              1316.5814              1321.2145
 Red. masses --      1.5468                 1.8906                 1.6703
 Frc consts  --      1.5521                 1.9309                 1.7179
 IR Inten    --      3.4113                25.6148                10.2295

                     61                     62                     63
                      A                      A                      A
 Frequencies --   1340.2009              1357.8337              1369.3319
 Red. masses --      1.2553                 1.4823                 1.9002
 Frc consts  --      1.3284                 1.6102                 2.0993
 IR Inten    --     14.0280                 8.2559                10.7199

                     64                     65                     66
                      A                      A                      A
 Frequencies --   1398.4360              1401.5652              1405.7645
 Red. masses --      1.3914                 1.3774                 1.3850
 Frc consts  --      1.6032                 1.5942                 1.6126
 IR Inten    --      6.0934                 4.2905                 8.1960

                     67                     68                     69
                      A                      A                      A
 Frequencies --   1423.5611              1440.3909              1442.5409
 Red. masses --      1.2692                 1.2543                 1.2671
 Frc consts  --      1.5154                 1.5333                 1.5535
 IR Inten    --      4.3249                12.5907                 9.3840

                     70                     71                     72
                      A                      A                      A
 Frequencies --   1449.8454              1468.0210              1498.8975
 Red. masses --      1.3094                 1.1592                 1.1850
 Frc consts  --      1.6217                 1.4719                 1.5686
 IR Inten    --      4.6467                 0.7769                 1.6142

                     73                     74                     75
                      A                      A                      A
 Frequencies --   1501.1511              1504.8642              1511.6642
 Red. masses --      1.1392                 1.0842                 1.0577
 Frc consts  --      1.5125                 1.4467                 1.4240
 IR Inten    --     16.2833                 9.9838                 1.6267

                     76                     77                     78
                      A                      A                      A
 Frequencies --   1517.1046              1519.1082              1520.7029
 Red. masses --      1.0672                 1.0609                 1.0658
 Frc consts  --      1.4472                 1.4425                 1.4521
 IR Inten    --      5.5826                11.5738                 6.6158

                     79                     80                     81
                      A                      A                      A
 Frequencies --   1524.7229              1527.2011              1531.3699
 Red. masses --      1.0802                 1.0622                 1.0745
 Frc consts  --      1.4795                 1.4597                 1.4846
 IR Inten    --      9.6146                 7.6645                14.8371

                     82                     83                     84
                      A                      A                      A
 Frequencies --   1533.7642              1541.3737              1543.9151
 Red. masses --      1.0756                 1.0635                 1.0739
 Frc consts  --      1.4908                 1.4887                 1.5082
 IR Inten    --      8.7839                 8.2340                 0.9129

                     85                     86                     87
                      A                      A                      A
 Frequencies --   1547.6208              1548.4658              1814.0320
 Red. masses --      1.0869                 1.0839                 9.7591
 Frc consts  --      1.5339                 1.5313                18.9212
 IR Inten    --      6.9404                 7.4432               214.2704

                     88                     89                     90
                      A                      A                      A
 Frequencies --   2913.2197              2929.7611              2941.7604
 Red. masses --      1.0738                 1.0616                 1.0631
 Frc consts  --      5.3694                 5.3690                 5.4206
 IR Inten    --     48.7596                40.8209               202.1745

                     91                     92                     93
                      A                      A                      A
 Frequencies --   3026.2457              3037.0325              3039.6866
 Red. masses --      1.0653                 1.0626                 1.0595
 Frc consts  --      5.7483                 5.7743                 5.7677
 IR Inten    --     14.0075                33.8542                50.7112

                     94                     95                     96
                      A                      A                      A
 Frequencies --   3045.6874              3065.9852              3066.3479
 Red. masses --      1.0445                 1.0924                 1.0968
 Frc consts  --      5.7089                 6.0500                 6.0759
 IR Inten    --     31.2496                 7.2551                25.2470

                     97                     98                     99
                      A                      A                      A
 Frequencies --   3076.3535              3076.8244              3080.4011
 Red. masses --      1.0498                 1.0690                 1.0806
 Frc consts  --      5.8538                 5.9628                 6.0413
 IR Inten    --      5.9000                27.3553                24.8700

                    100                    101                    102
                      A                      A                      A
 Frequencies --   3083.0874              3085.3523              3102.1289
 Red. masses --      1.0728                 1.0700                 1.1009
 Frc consts  --      6.0079                 6.0015                 6.2420
 IR Inten    --     44.0933                48.8997                64.9336

                    103                    104                    105
                      A                      A                      A
 Frequencies --   3116.3258              3122.7269              3129.4330
 Red. masses --      1.1039                 1.1029                 1.1021
 Frc consts  --      6.3163                 6.3366                 6.3593
 IR Inten    --     45.2576                18.9635                34.4699

                    106                    107                    108
                      A                      A                      A
 Frequencies --   3133.8711              3149.7196              3153.6585
 Red. masses --      1.0879                 1.1024                 1.1033
 Frc consts  --      6.2952                 6.4434                 6.4649
 IR Inten    --     13.6447                19.2982                19.9174

                    109                    110                    111
                      A                      A                      A
 Frequencies --   3161.6472              3523.9331              3660.7546
 Red. masses --      1.0974                 1.0735                 1.0639
 Frc consts  --      6.4632                 7.8543                 8.4000
 IR Inten    --     15.8808                 3.5217                33.9212

 - Thermochemistry -
 -------------------
 Temperature   298.150 Kelvin.  Pressure   1.00000 Atm.
 Atom     1 has atomic number  6 and mass  12.00000

 Molecular mass:   216.18378 amu.
 Principal axes and moments of inertia in atomic units:
                           1         2         3
     Eigenvalues --  2307.129154953.057315713.25386
           X            0.99988  -0.01530  -0.00353
           Y            0.01518   0.99935  -0.03256
           Z            0.00403   0.03250   0.99946
 This molecule is an asymmetric top.
 Rotational symmetry number  1.
 Warning -- assumption of classical behavior for rotation
           may cause significant error
 Rotational temperatures (Kelvin)      0.03754     0.01749     0.01516
 Rotational constants (GHZ):           0.78225     0.36437     0.31589
 Zero-point vibrational energy     931670.2 (Joules/Mol)
                                  222.67452 (Kcal/Mol)
 Warning -- explicit consideration of  28 degrees of freedom as
           vibrations may cause significant error
 Vibrational temperatures:     17.50    39.19    57.08    64.97   104.74
          (Kelvin)            146.75   182.40   210.37   245.56   259.87
                              339.45   360.02   366.36   388.93   409.71
                              436.29   447.15   479.94   527.28   553.48
                              564.98   590.50   613.63   634.42   707.43
                              738.31   859.56   884.68   923.68  1016.09
                             1059.10  1090.74  1108.19  1176.09  1194.79
                             1229.66  1288.18  1311.73  1327.74  1384.37
                             1442.09  1465.96  1538.05  1549.64  1561.53
                             1569.35  1579.97  1583.68  1634.82  1647.95
                             1653.84  1710.09  1729.95  1740.12  1754.32
                             1769.26  1840.77  1877.63  1894.27  1900.93
                             1928.25  1953.62  1970.16  2012.04  2016.54
                             2022.58  2048.19  2072.40  2075.49  2086.00
                             2112.15  2156.58  2159.82  2165.16  2174.95
                             2182.78  2185.66  2187.95  2193.74  2197.30
                             2203.30  2206.74  2217.69  2221.35  2226.68
                             2227.90  2609.99  4191.47  4215.27  4232.54
                             4354.09  4369.61  4373.43  4382.06  4411.27
                             4411.79  4426.19  4426.86  4432.01  4435.88
                             4439.13  4463.27  4483.70  4492.91  4502.56
                             4508.94  4531.74  4537.41  4548.91  5070.15
                             5267.01

 Zero-point correction=                           0.354854 (Hartree/Particle)
 Thermal correction to Energy=                    0.372910
 Thermal correction to Enthalpy=                  0.373855
 Thermal correction to Gibbs Free Energy=         0.307052
 Sum of electronic and zero-point Energies=           -693.282402
 Sum of electronic and thermal Energies=              -693.264346
 Sum of electronic and thermal Enthalpies=            -693.263402
 Sum of electronic and thermal Free Energies=         -693.330205

                     E (Thermal)             CV                S
                      KCal/Mol        Cal/Mol-Kelvin    Cal/Mol-Kelvin
 Total                  234.005             66.950            140.597
 Electronic               0.000              0.000              0.000
 Translational            0.889              2.981             42.016
 Rotational               0.889              2.981             32.546
 Vibrational            232.227             60.989             66.035
 Vibration     1          0.593              1.987              7.622
 Vibration     2          0.593              1.984              6.021
 Vibration     3          0.594              1.981              5.275
 Vibration     4          0.595              1.979              5.019
 Vibration     5          0.599              1.967              4.076
 Vibration     6          0.604              1.948              3.416
 Vibration     7          0.611              1.926              2.994
 Vibration     8          0.617              1.907              2.721
 Vibration     9          0.626              1.879              2.428
 Vibration    10          0.630              1.866              2.322
 Vibration    11          0.655              1.786              1.833
 Vibration    12          0.663              1.762              1.729
 Vibration    13          0.665              1.755              1.698
 Vibration    14          0.674              1.728              1.594
 Vibration    15          0.683              1.702              1.505
 Vibration    16          0.695              1.668              1.399
 Vibration    17          0.700              1.653              1.358
 Vibration    18          0.715              1.608              1.243
 Vibration    19          0.739              1.541              1.095
 Vibration    20          0.754              1.503              1.021
 Vibration    21          0.760              1.486              0.990
 Vibration    22          0.775              1.448              0.925
 Vibration    23          0.788              1.413              0.870
 Vibration    24          0.801              1.381              0.824
 Vibration    25          0.847              1.268              0.679
 Vibration    26          0.868              1.221              0.626
 Vibration    27          0.955              1.037              0.454
 Vibration    28          0.974              1.000              0.425

 Optimization completed.
    -- Stationary point found.
 Normal termination of Gaussian 16 at Thu Dec 10 18:16:31 2020.

 ----------------------------------------------------------------------
 # B3LYP/6-311++G(d,p) empiricaldispersion=gd3bj scf=xqc pop=npa geom=c
 heck
 ----------------------------------------------------------------------

 --------------------------------------
 CID_71564965_JID_5923_Energie_neutraal
 --------------------------------------
 Structure from the checkpoint file:  "JID_5923.chk"
 Charge =  0 Multiplicity = 1

 SCF Done:  E(RB3LYP) =  -693.847099772     A.U. after   14 cycles
 Normal termination of Gaussian 16 at Thu Dec 10 18:24:06 2020.

 ----------------------------------------------------------------------
 # B3LYP/6-311++G(d,p) empiricaldispersion=gd3bj scf=xqc pop=npa geom=c
 heck
 ----------------------------------------------------------------------

 ------------------------------------
 CID_71564965_JID_5923_Energie_kation
 ------------------------------------
 Structure from the checkpoint file:  "JID_5923.chk"
 Charge =  1 Multiplicity = 2

 SCF Done:  E(UB3LYP) =  -693.567940694     A.U. after   18 cycles
 Normal termination of Gaussian 16 at Thu Dec 10 18:37:46 2020.
 Gaussian 16:  ES64L-G16RevA.03 25-Dec-2016

 ----------------------------------------------------------------------
 # B3LYP/6-311++G(d,p) empiricaldispersion=gd3bj scf=xqc pop=npa geom=c
 heck
 ----------------------------------------------------------------------

 -----------------------------------
 CID_71564965_JID_5923_Energie_anion
 -----------------------------------
 Structure from the checkpoint file:  "JID_5923.chk"
 Charge = -1 Multiplicity = 2

                         Standard orientation:
 ---------------------------------------------------------------------
 Center     Atomic      Atomic             Coordinates (Angstroms)
 Number     Number       Type             X           Y           Z
 ---------------------------------------------------------------------
      1          6           0       -2.631903    2.789430   -0.193494
      2          6           0       -3.378135    1.461902   -0.357225
      3          6           0       -2.529553    0.279353   -0.849592
      4          6           0       -1.506233   -0.335255    0.150305
      5          6           0       -2.188104   -0.712210    1.469228
      6          6           0       -0.971556   -1.575418   -0.595077
      7          8           0       -0.309079   -1.513332   -1.611989
      8          8           0       -1.321591   -2.765480   -0.049473
      9          7           0       -0.434209    0.636332    0.378614
     10          6           0        0.546753    0.404930    1.437804
     11          6           0        1.529164   -0.769375    1.277521
     12          6           0        2.381501   -0.697806    0.001862
     13          7           0        2.916986    0.637744   -0.261591
     14          6           0        3.926501    1.032155    0.709108
     15          6           0        3.435826    0.736047   -1.618062
     16          1           0       -1.857911    2.716268    0.572196
     17          1           0       -3.328614    3.593134    0.073364
     18          1           0       -2.137746    3.073630   -1.131073
     19          1           0       -3.876716    1.196866    0.583404
     20          1           0       -4.185888    1.597950   -1.089092
     21          1           0       -3.208294   -0.529220   -1.155299
     22          1           0       -1.976968    0.568751   -1.752321
     23          1           0       -3.102203   -1.279998    1.276892
     24          1           0       -1.545563   -1.328931    2.101471
     25          1           0       -2.446849    0.196380    2.018622
     26          1           0       -0.939325   -3.447729   -0.634943
     27          1           0        0.045047    0.834311   -0.496438
     28          1           0        1.125179    1.330423    1.510461
     29          1           0        0.011209    0.298132    2.386408
     30          1           0        2.171430   -0.791832    2.168435
     31          1           0        0.991609   -1.726842    1.276413
     32          1           0        3.190613   -1.454420    0.061015
     33          1           0        1.760227   -0.968489   -0.854410
     34          1           0        4.807552    0.359609    0.708526
     35          1           0        4.273252    2.047101    0.487630
     36          1           0        3.505021    1.034930    1.718577
     37          1           0        4.295825    0.062562   -1.804685
     38          1           0        2.646071    0.483837   -2.332995
     39          1           0        3.763397    1.763015   -1.813909
 ---------------------------------------------------------------------

 SCF Done:  E(UB3LYP) =  -693.833845817     A.U. after   33 cycles
 SCF Done:  E(UB3LYP) =  -693.833845817     a.u. after    1 cycles

 The electronic state is 2-A.
 Alpha  occ. eigenvalues --  -19.07145 -19.01709 -14.21155 -14.19766 -10.20402
 Alpha  occ. eigenvalues --  -10.12619 -10.09420 -10.09231 -10.08991 -10.08714
 Alpha  occ. eigenvalues --  -10.07515 -10.07297 -10.06504 -10.06466 -10.05826
 Alpha  occ. eigenvalues --   -1.01224  -0.92200  -0.83118  -0.81451  -0.70858
 Alpha  occ. eigenvalues --   -0.66992  -0.65103  -0.61392  -0.59798  -0.58197
 Alpha  occ. eigenvalues --   -0.55989  -0.52655  -0.50113  -0.47202  -0.45194
 Alpha  occ. eigenvalues --   -0.41802  -0.40028  -0.39215  -0.38237  -0.38059
 Alpha  occ. eigenvalues --   -0.36598  -0.35849  -0.34828  -0.33775  -0.33146
 Alpha  occ. eigenvalues --   -0.32734  -0.31068  -0.30665  -0.30158  -0.29748
 Alpha  occ. eigenvalues --   -0.29276  -0.28290  -0.27582  -0.27223  -0.26643
 Alpha  occ. eigenvalues --   -0.25894  -0.24787  -0.24542  -0.23646  -0.23152
 Alpha  occ. eigenvalues --   -0.22519  -0.22024  -0.18687  -0.13223  -0.12166
 Alpha  occ. eigenvalues --    0.04263
 Alpha virt. eigenvalues --    0.06043   0.06465   0.07243   0.08287   0.08356
 Alpha virt. eigenvalues --    0.08574   0.08939   0.09340   0.10336   0.10376
 Alpha virt. eigenvalues --    0.11034   0.11081   0.11296   0.11939   0.12233

  Beta  occ. eigenvalues --  -19.07089 -19.01692 -14.21145 -14.19764 -10.20398
  Beta  occ. eigenvalues --  -10.12611 -10.09407 -10.09204 -10.08983 -10.08705
  Beta  occ. eigenvalues --  -10.07503 -10.07284 -10.06479 -10.06446 -10.05815
  Beta  occ. eigenvalues --   -1.01153  -0.92139  -0.83100  -0.81438  -0.70830
  Beta  occ. eigenvalues --   -0.66964  -0.65073  -0.61354  -0.59764  -0.58166
  Beta  occ. eigenvalues --   -0.55918  -0.52597  -0.50055  -0.47152  -0.45149
  Beta  occ. eigenvalues --   -0.41761  -0.40001  -0.39173  -0.38214  -0.38028
  Beta  occ. eigenvalues --   -0.36565  -0.35819  -0.34791  -0.33748  -0.33109
  Beta  occ. eigenvalues --   -0.32708  -0.31030  -0.30638  -0.30134  -0.29728
  Beta  occ. eigenvalues --   -0.29252  -0.28262  -0.27556  -0.27196  -0.26618
  Beta  occ. eigenvalues --   -0.25871  -0.24761  -0.24514  -0.23622  -0.23126
  Beta  occ. eigenvalues --   -0.22490  -0.21983  -0.18636  -0.13187  -0.12132
  Beta virt. eigenvalues --    0.06176   0.06696   0.07467   0.07745   0.08603
  Beta virt. eigenvalues --    0.08669   0.08844   0.09218   0.09577   0.10557
  Beta virt. eigenvalues --    0.10622   0.11241   0.11400   0.11477   0.12138

 Mulliken charges and spin densities:
               1          2
     1  C   -0.093323  -0.509272
     2  C   -0.018430  -0.123654
     3  C   -0.172222   0.141692
     4  C   -0.861714   0.422475
     5  C    0.770425  -1.512453
     6  C    0.398025  -0.736203
     7  O   -0.219891   0.049998
     8  O   -0.103610   0.085856
     9  N    0.325251  -0.036784
    10  C   -0.266854  -0.130688
    11  C    0.514636  -0.666086
    12  C   -0.907173   0.177286
    13  N    0.123762   0.060849
    14  C    0.431220  -0.797381
    15  C    0.027538  -0.333869
    16  H    0.111659   0.092539
    17  H   -0.044243   0.169978
    18  H    0.025553   0.087546
    19  H    0.022842   0.101934
    20  H   -0.168905   0.335201
    21  H   -0.218794   0.402816
    22  H    0.127523   0.024152
    23  H   -0.049915   0.254367
    24  H    0.099267   0.087854
    25  H    0.010150   0.144677
    26  H   -0.608509   0.884638
    27  H    0.331482  -0.028112
    28  H    0.160633   0.029025
    29  H   -0.126404   0.267744
    30  H   -0.212027   0.418061
    31  H   -0.109689   0.278843
    32  H   -0.220702   0.309325
    33  H    0.231953  -0.006342
    34  H   -0.087129   0.204795
    35  H   -0.129639   0.265918
    36  H   -0.160667   0.275549
    37  H   -0.028923   0.139158
    38  H    0.080809   0.058836
    39  H    0.016036   0.109732
 Sum of Mulliken charges =  -1.00000   1.00000

 Dipole moment (field-independent basis, Debye):
    X=              0.0800    Y=              3.6928    Z=             -0.3322  Tot=              3.7086
 Quadrupole moment (field-independent basis, Debye-Ang):
   XX=           -165.3753   YY=           -153.8290   ZZ=           -131.6463
   XY=             -2.8207   XZ=             -6.2270   YZ=             -2.4635

 Summary of Natural Population Analysis:

                                       Natural Population
                Natural  -----------------------------------------------
    Atom  No    Charge         Core      Valence    Rydberg      Total
 -----------------------------------------------------------------------
      C    1   -0.28703      0.99966     2.28281    0.00456     3.28703
      C    2   -0.19007      0.99963     2.18242    0.00802     3.19007
      C    3   -0.18465      0.99959     2.17408    0.01098     3.18465
      C    4    0.02349      0.99951     1.96048    0.01652     2.97651
      C    5   -0.29504      0.99963     2.28751    0.00791     3.29504
      C    6    0.40956      0.99963     1.56324    0.02758     2.59044
      O    7   -0.31827      0.99987     3.31179    0.00662     4.31827
      O    8   -0.34283      0.99987     3.33516    0.00780     4.34283
      N    9   -0.34544      0.99973     2.83372    0.01199     3.84544
      C   10   -0.08852      0.99961     2.07631    0.01260     3.08852
      C   11   -0.20786      0.99962     2.19973    0.00851     3.20786
      C   12   -0.09210      0.99960     2.08066    0.01183     3.09210
      N   13   -0.28261      0.99973     2.77124    0.01164     3.78261
      C   14   -0.17902      0.99964     2.17051    0.00887     3.17902
      C   15   -0.17375      0.99965     2.16735    0.00676     3.17375
      H   16    0.10901      0.00000     0.38966    0.00133     0.39099
      H   17    0.09200      0.00000     0.40710    0.00091     0.40800
      H   18    0.09322      0.00000     0.40571    0.00107     0.40678
      H   19    0.09449      0.00000     0.40437    0.00114     0.40551
      H   20    0.09524      0.00000     0.40365    0.00111     0.40476
      H   21    0.10133      0.00000     0.39743    0.00123     0.39867
      H   22    0.10270      0.00000     0.39620    0.00110     0.39730
      H   23    0.10809      0.00000     0.39084    0.00106     0.39191
      H   24    0.10798      0.00000     0.39089    0.00113     0.39202
      H   25    0.10304      0.00000     0.39584    0.00112     0.39696
      H   26    0.24469      0.00000     0.23655    0.01876     0.25531
      H   27    0.18255      0.00000     0.31437    0.00308     0.31745
      H   28    0.09858      0.00000     0.40005    0.00138     0.40142
      H   29    0.09327      0.00000     0.40562    0.00111     0.40673
      H   30    0.09792      0.00000     0.40076    0.00132     0.40208
      H   31    0.10168      0.00000     0.39682    0.00150     0.39832
      H   32    0.08138      0.00000     0.41708    0.00154     0.41862
      H   33    0.10772      0.00000     0.39023    0.00204     0.39228
      H   34    0.08030      0.00000     0.41817    0.00153     0.41970
      H   35    0.09412      0.00000     0.40488    0.00100     0.40588
      H   36    0.09646      0.00000     0.40227    0.00127     0.40354
      H   37    0.07807      0.00000     0.42029    0.00164     0.42193
      H   38    0.09797      0.00000     0.40104    0.00099     0.40203
      H   39    0.09232      0.00000     0.40663    0.00105     0.40768
 =======================================================================
   * Total *    0.00000     14.99498    44.79345    0.21158    60.00000

 Normal termination of Gaussian 16 at Thu Dec 10 19:02:11 2020.
