 Gaussian 16, Revision A.03,

 -----------------------------------------------------------
 # opt freq B3LYP/6-31G(d) empiricaldispersion=gd3bj scf=xqc
 -----------------------------------------------------------

 -------------------------------
 CID_151826364_JID_2112_neutraal
 -------------------------------
 Symbolic Z-matrix:
 Charge =  0 Multiplicity = 1

 SCF Done:  E(RB3LYP) =  -590.359005548     A.U. after   15 cycles
 SCF Done:  E(RB3LYP) =  -590.362146824     A.U. after   14 cycles
 SCF Done:  E(RB3LYP) =  -590.363739114     A.U. after   14 cycles
 SCF Done:  E(RB3LYP) =  -590.364280814     A.U. after   14 cycles
 SCF Done:  E(RB3LYP) =  -590.364547368     A.U. after   13 cycles
 SCF Done:  E(RB3LYP) =  -590.364722042     A.U. after   12 cycles
 SCF Done:  E(RB3LYP) =  -590.365068410     A.U. after   14 cycles
 SCF Done:  E(RB3LYP) =  -590.365179457     A.U. after   14 cycles
 SCF Done:  E(RB3LYP) =  -590.365157816     A.U. after   12 cycles
 SCF Done:  E(RB3LYP) =  -590.365752953     A.U. after   15 cycles
 SCF Done:  E(RB3LYP) =  -590.369053638     A.U. after   12 cycles
 SCF Done:  E(RB3LYP) =  -590.369060903     A.U. after   11 cycles
 SCF Done:  E(RB3LYP) =  -590.369061566     A.U. after    9 cycles
 SCF Done:  E(RB3LYP) =  -590.369061711     A.U. after    8 cycles
 SCF Done:  E(RB3LYP) =  -590.369061733     A.U. after    7 cycles
 Optimization completed.
    -- Stationary point found.
 Normal termination of Gaussian 16 at Wed Dec  9 16:56:04 2020.

 --------------------------------------------------------------------
 #N Geom=AllCheck Guess=TCheck SCRF=Check GenChk RB3LYP/6-31G(d) Freq
 --------------------------------------------------------------------

 Structure from the checkpoint file:  "JID_2112.chk"
 -------------------------------
 CID_151826364_JID_2112_neutraal
 -------------------------------
 Charge =  0 Multiplicity = 1

 SCF Done:  E(RB3LYP) =  -590.369061733     A.U. after    1 cycles

  Exact polarizability: 108.000   8.281 113.577   1.023   4.965  84.124
 Approx polarizability: 126.819  17.864 198.191   4.983  20.795 130.527

                      1                      2                      3
                      A                      A                      A
 Frequencies --     33.1157                40.8763                42.8417
 Red. masses --      6.5234                 3.7937                 3.7057
 Frc consts  --      0.0042                 0.0037                 0.0040
 IR Inten    --      0.1059                 0.1088                 0.1842

                      4                      5                      6
                      A                      A                      A
 Frequencies --     55.0361                87.2403                97.5230
 Red. masses --      5.4092                 5.3890                 2.5238
 Frc consts  --      0.0097                 0.0242                 0.0141
 IR Inten    --      0.9622                 1.5066                 3.7109

                      7                      8                      9
                      A                      A                      A
 Frequencies --    151.5522               161.7104               226.3142
 Red. masses --      3.2226                 2.9454                 4.2764
 Frc consts  --      0.0436                 0.0454                 0.1290
 IR Inten    --      4.0980                 0.5931                 2.0063

                     10                     11                     12
                      A                      A                      A
 Frequencies --    237.7716               253.7331               297.7569
 Red. masses --      1.7031                 2.4951                 1.9812
 Frc consts  --      0.0567                 0.0946                 0.1035
 IR Inten    --      2.6574                 1.1536                 2.0473

                     13                     14                     15
                      A                      A                      A
 Frequencies --    333.0390               373.1545               404.8518
 Red. masses --      2.3810                 2.1614                 2.7184
 Frc consts  --      0.1556                 0.1773                 0.2625
 IR Inten    --      1.6759                 1.0659                 3.3249

                     16                     17                     18
                      A                      A                      A
 Frequencies --    453.8618               514.6660               525.7278
 Red. masses --      2.1967                 5.4048                 2.7584
 Frc consts  --      0.2666                 0.8435                 0.4492
 IR Inten    --      0.9774                 5.5596                 7.2635

                     19                     20                     21
                      A                      A                      A
 Frequencies --    583.8326               644.1540               720.6877
 Red. masses --      2.6280                 9.1611                 1.3196
 Frc consts  --      0.5278                 2.2396                 0.4038
 IR Inten    --      2.6911                 1.9692                11.4249

                     22                     23                     24
                      A                      A                      A
 Frequencies --    769.6459               826.5026               863.6157
 Red. masses --      1.9769                 2.4425                 2.9756
 Frc consts  --      0.6899                 0.9830                 1.3076
 IR Inten    --      0.7526                 1.0662                12.5099

                     25                     26                     27
                      A                      A                      A
 Frequencies --    877.0367               918.4478               957.3959
 Red. masses --      3.3467                 2.2733                 1.9422
 Frc consts  --      1.5167                 1.1298                 1.0489
 IR Inten    --     12.8882                 6.7652                18.9666

                     28                     29                     30
                      A                      A                      A
 Frequencies --    998.5350              1030.1878              1036.5163
 Red. masses --      2.3340                 1.8609                 1.7570
 Frc consts  --      1.3711                 1.1636                 1.1122
 IR Inten    --     39.2959                 4.0983                17.7333

                     31                     32                     33
                      A                      A                      A
 Frequencies --   1067.5965              1097.0107              1140.3146
 Red. masses --      2.1394                 2.1950                 2.3827
 Frc consts  --      1.4367                 1.5564                 1.8254
 IR Inten    --     11.1313                41.4288                 2.9471

                     34                     35                     36
                      A                      A                      A
 Frequencies --   1145.0494              1174.3047              1190.8994
 Red. masses --      2.2057                 4.9089                 1.2398
 Frc consts  --      1.7039                 3.9884                 1.0360
 IR Inten    --      1.0395               146.7206                 2.2617

                     37                     38                     39
                      A                      A                      A
 Frequencies --   1198.4415              1211.5053              1220.9953
 Red. masses --      1.7463                 2.3546                 1.6085
 Frc consts  --      1.4778                 2.0362                 1.4129
 IR Inten    --     12.6924                23.7060                12.8861

                     40                     41                     42
                      A                      A                      A
 Frequencies --   1256.2911              1277.4080              1303.1282
 Red. masses --      1.6036                 1.1945                 1.2369
 Frc consts  --      1.4912                 1.1484                 1.2375
 IR Inten    --     16.3938                 7.9713                 5.9830

                     43                     44                     45
                      A                      A                      A
 Frequencies --   1328.1429              1352.7103              1384.8332
 Red. masses --      1.1409                 1.0862                 1.3539
 Frc consts  --      1.1857                 1.1710                 1.5297
 IR Inten    --      3.5237                 1.2688                20.3931

                     46                     47                     48
                      A                      A                      A
 Frequencies --   1393.8699              1413.9284              1424.9953
 Red. masses --      1.5411                 1.3030                 1.4913
 Frc consts  --      1.7642                 1.5348                 1.7842
 IR Inten    --      1.3706                 4.9756                 0.2108

                     49                     50                     51
                      A                      A                      A
 Frequencies --   1431.8868              1446.7178              1498.4994
 Red. masses --      1.3293                 1.3753                 1.0850
 Frc consts  --      1.6058                 1.6960                 1.4354
 IR Inten    --     22.4316                21.1222                 3.3130

                     52                     53                     54
                      A                      A                      A
 Frequencies --   1504.1316              1505.8151              1514.7449
 Red. masses --      1.1435                 1.1180                 1.0482
 Frc consts  --      1.5242                 1.4936                 1.4170
 IR Inten    --      2.0947                 1.5915                 4.4611

                     55                     56                     57
                      A                      A                      A
 Frequencies --   1517.7442              1529.2670              1532.2890
 Red. masses --      1.0811                 1.0798                 1.0662
 Frc consts  --      1.4673                 1.4879                 1.4749
 IR Inten    --      4.2126                 5.9894                12.1668

                     58                     59                     60
                      A                      A                      A
 Frequencies --   1540.8133              1562.2076              2193.8430
 Red. masses --      1.0917                 1.0872                13.9794
 Frc consts  --      1.5270                 1.5633                39.6415
 IR Inten    --      3.4041                 4.2797               304.6647

                     61                     62                     63
                      A                      A                      A
 Frequencies --   2968.6015              2988.2008              2993.0081
 Red. masses --      1.0521                 1.0409                 1.1044
 Frc consts  --      5.4627                 5.4764                 5.8288
 IR Inten    --     33.3685                79.4377                87.0581

                     64                     65                     66
                      A                      A                      A
 Frequencies --   3027.8315              3034.2503              3045.2376
 Red. masses --      1.1048                 1.0637                 1.0634
 Frc consts  --      5.9675                 5.7698                 5.8102
 IR Inten    --     67.4745                16.0305                41.1345

                     67                     68                     69
                      A                      A                      A
 Frequencies --   3054.0767              3062.5317              3068.1163
 Red. masses --      1.0648                 1.0643                 1.0686
 Frc consts  --      5.8514                 5.8815                 5.9265
 IR Inten    --     12.0401                 8.5347                13.8530

                     70                     71                     72
                      A                      A                      A
 Frequencies --   3076.5965              3083.0388              3091.4609
 Red. masses --      1.0876                 1.0986                 1.0976
 Frc consts  --      6.0654                 6.1523                 6.1806
 IR Inten    --     34.3444                49.1960                58.7667

                     73                     74                     75
                      A                      A                      A
 Frequencies --   3107.1974              3119.1281              3136.3470
 Red. masses --      1.1027                 1.1083                 1.0962
 Frc consts  --      6.2727                 6.3527                 6.3532
 IR Inten    --     46.4360                24.6433                32.2162

 - Thermochemistry -
 -------------------
 Temperature   298.150 Kelvin.  Pressure   1.00000 Atm.
 Atom     1 has atomic number  6 and mass  12.00000

 Molecular mass:   173.11643 amu.
 Principal axes and moments of inertia in atomic units:
                           1         2         3
     Eigenvalues --  1035.761144729.659305188.62727
           X            0.99994  -0.01019  -0.00432
           Y            0.01022   0.99992   0.00727
           Z            0.00425  -0.00731   0.99996
 This molecule is an asymmetric top.
 Rotational symmetry number  1.
 Warning -- assumption of classical behavior for rotation
           may cause significant error
 Rotational temperatures (Kelvin)      0.08362     0.01831     0.01669
 Rotational constants (GHZ):           1.74243     0.38158     0.34783
 Zero-point vibrational energy     608494.5 (Joules/Mol)
                                  145.43368 (Kcal/Mol)
 Warning -- explicit consideration of  19 degrees of freedom as
           vibrations may cause significant error
 Vibrational temperatures:     47.65    58.81    61.64    79.18   125.52
          (Kelvin)            140.31   218.05   232.67   325.62   342.10
                              365.07   428.41   479.17   536.89   582.49
                              653.01   740.49   756.40   840.00   926.79
                             1036.91  1107.35  1189.15  1242.55  1261.86
                             1321.44  1377.48  1436.67  1482.21  1491.32
                             1536.03  1578.35  1640.66  1647.47  1689.56
                             1713.44  1724.29  1743.09  1756.74  1807.52
                             1837.91  1874.91  1910.90  1946.25  1992.47
                             2005.47  2034.33  2050.25  2060.17  2081.50
                             2156.01  2164.11  2166.53  2179.38  2183.70
                             2200.27  2204.62  2216.89  2247.67  3156.45
                             4271.16  4299.35  4306.27  4356.37  4365.61
                             4381.42  4394.14  4406.30  4414.34  4426.54
                             4435.81  4447.92  4470.56  4487.73  4512.50

 Zero-point correction=                           0.231763 (Hartree/Particle)
 Thermal correction to Energy=                    0.245592
 Thermal correction to Enthalpy=                  0.246536
 Thermal correction to Gibbs Free Energy=         0.188928
 Sum of electronic and zero-point Energies=           -590.137298
 Sum of electronic and thermal Energies=              -590.123470
 Sum of electronic and thermal Enthalpies=            -590.122526
 Sum of electronic and thermal Free Energies=         -590.180133

                     E (Thermal)             CV                S
                      KCal/Mol        Cal/Mol-Kelvin    Cal/Mol-Kelvin
 Total                  154.111             48.193            121.246
 Electronic               0.000              0.000              0.000
 Translational            0.889              2.981             41.354
 Rotational               0.889              2.981             31.608
 Vibrational            152.334             42.232             48.283
 Vibration     1          0.594              1.983              5.633
 Vibration     2          0.594              1.981              5.216
 Vibration     3          0.595              1.980              5.123
 Vibration     4          0.596              1.976              4.628
 Vibration     5          0.601              1.958              3.721
 Vibration     6          0.603              1.951              3.503
 Vibration     7          0.619              1.901              2.653
 Vibration     8          0.622              1.889              2.530
 Vibration     9          0.650              1.801              1.908
 Vibration    10          0.656              1.783              1.819
 Vibration    11          0.665              1.756              1.704
 Vibration    12          0.691              1.678              1.429
 Vibration    13          0.715              1.610              1.245
 Vibration    14          0.745              1.527              1.067
 Vibration    15          0.770              1.460              0.945
 Vibration    16          0.812              1.352              0.784
 Vibration    17          0.870              1.218              0.622
 Vibration    18          0.881              1.193              0.597
 Vibration    19          0.941              1.066              0.478

 Optimization completed.
    -- Stationary point found.
 Normal termination of Gaussian 16 at Wed Dec  9 17:01:32 2020.

 ----------------------------------------------------------------------
 # B3LYP/6-311++G(d,p) empiricaldispersion=gd3bj scf=xqc pop=npa geom=c
 heck
 ----------------------------------------------------------------------

 ---------------------------------------
 CID_151826364_JID_2112_Energie_neutraal
 ---------------------------------------
 Structure from the checkpoint file:  "JID_2112.chk"
 Charge =  0 Multiplicity = 1

 SCF Done:  E(RB3LYP) =  -590.541269872     A.U. after   14 cycles
 Normal termination of Gaussian 16 at Wed Dec  9 17:03:49 2020.

 ----------------------------------------------------------------------
 # B3LYP/6-311++G(d,p) empiricaldispersion=gd3bj scf=xqc pop=npa geom=c
 heck
 ----------------------------------------------------------------------

 -------------------------------------
 CID_151826364_JID_2112_Energie_kation
 -------------------------------------
 Structure from the checkpoint file:  "JID_2112.chk"
 Charge =  1 Multiplicity = 2

 SCF Done:  E(UB3LYP) =  -590.217520849     A.U. after   27 cycles
 Normal termination of Gaussian 16 at Wed Dec  9 17:09:52 2020.
 Gaussian 16:  ES64L-G16RevA.03 25-Dec-2016

 ----------------------------------------------------------------------
 # B3LYP/6-311++G(d,p) empiricaldispersion=gd3bj scf=xqc pop=npa geom=c
 heck
 ----------------------------------------------------------------------

 ------------------------------------
 CID_151826364_JID_2112_Energie_anion
 ------------------------------------
 Structure from the checkpoint file:  "JID_2112.chk"
 Charge = -1 Multiplicity = 2

                         Standard orientation:
 ---------------------------------------------------------------------
 Center     Atomic      Atomic             Coordinates (Angstroms)
 Number     Number       Type             X           Y           Z
 ---------------------------------------------------------------------
      1          6           0       -4.458612    0.799102    0.672773
      2          8           0       -3.337902    0.714534   -0.177429
      3          6           0       -2.826894   -0.601723   -0.275601
      4          6           0       -1.606476   -0.586531   -1.187529
      5          6           0       -0.511691    0.397207   -0.747258
      6          6           0        0.006788    0.196152    0.684431
      7          6           0        0.557934   -1.202585    1.003488
      8          6           0        1.689653   -1.709633    0.113335
      9          8           0        2.910884   -0.957993    0.249883
     10          7           0        2.924605    0.103528   -0.727613
     11          7           0        3.163878    1.172977   -0.123634
     12          7           0        3.407060    2.209567    0.290181
     13          1           0       -4.775141    1.845156    0.690777
     14          1           0       -4.215513    0.480753    1.699880
     15          1           0       -5.294036    0.178394    0.309710
     16          1           0       -2.562360   -0.977234    0.728203
     17          1           0       -3.596835   -1.281842   -0.678875
     18          1           0       -1.213412   -1.610647   -1.241991
     19          1           0       -1.931358   -0.324216   -2.201627
     20          1           0        0.323573    0.335320   -1.454321
     21          1           0       -0.911856    1.413517   -0.824630
     22          1           0        0.777500    0.948145    0.890551
     23          1           0       -0.803412    0.411012    1.392231
     24          1           0        0.908255   -1.222888    2.043152
     25          1           0       -0.251058   -1.943908    0.939679
     26          1           0        1.980163   -2.720851    0.417798
     27          1           0        1.408612   -1.737480   -0.944543
 ---------------------------------------------------------------------

 SCF Done:  E(UB3LYP) =  -590.549187196     A.U. after   33 cycles
 SCF Done:  E(UB3LYP) =  -590.549187249     a.u. after    2 cycles

 The electronic state is 2-A.
 Alpha  occ. eigenvalues --  -19.02974 -19.00872 -14.27547 -14.22636 -14.19485
 Alpha  occ. eigenvalues --  -10.11696 -10.11658 -10.09551 -10.06568 -10.05674
 Alpha  occ. eigenvalues --  -10.05063 -10.04908  -0.97797  -0.94353  -0.90563
 Alpha  occ. eigenvalues --   -0.76416  -0.70099  -0.65758  -0.60715  -0.57276
 Alpha  occ. eigenvalues --   -0.53720  -0.49270  -0.44439  -0.42151  -0.39754
 Alpha  occ. eigenvalues --   -0.39208  -0.36687  -0.35973  -0.35331  -0.34541
 Alpha  occ. eigenvalues --   -0.32820  -0.31062  -0.30641  -0.29749  -0.28504
 Alpha  occ. eigenvalues --   -0.27446  -0.26646  -0.26111  -0.24478  -0.23346
 Alpha  occ. eigenvalues --   -0.21732  -0.21261  -0.20587  -0.18921  -0.16688
 Alpha  occ. eigenvalues --   -0.14442  -0.07923   0.04429
 Alpha virt. eigenvalues --    0.05688   0.07753   0.08430   0.09270   0.10067
 Alpha virt. eigenvalues --    0.10707   0.11042   0.12478   0.12496   0.12863
 Alpha virt. eigenvalues --    0.13474   0.13986   0.15400   0.15752   0.16473

  Beta  occ. eigenvalues --  -19.02966 -19.00556 -14.27117 -14.22655 -14.18712
  Beta  occ. eigenvalues --  -10.11661 -10.11642 -10.09537 -10.06564 -10.05674
  Beta  occ. eigenvalues --  -10.05060 -10.04905  -0.96939  -0.94340  -0.89754
  Beta  occ. eigenvalues --   -0.75786  -0.70070  -0.65690  -0.60631  -0.57182
  Beta  occ. eigenvalues --   -0.53603  -0.49137  -0.44278  -0.41752  -0.39685
  Beta  occ. eigenvalues --   -0.39178  -0.36617  -0.35859  -0.34517  -0.33771
  Beta  occ. eigenvalues --   -0.32498  -0.30907  -0.30357  -0.29453  -0.27337
  Beta  occ. eigenvalues --   -0.27038  -0.26389  -0.25879  -0.23963  -0.23291
  Beta  occ. eigenvalues --   -0.21632  -0.21226  -0.20560  -0.17823  -0.16668
  Beta  occ. eigenvalues --   -0.14011  -0.07613
  Beta virt. eigenvalues --    0.06519   0.07879   0.08589   0.09393   0.10128
  Beta virt. eigenvalues --    0.10817   0.11098   0.11836   0.12395   0.12556
  Beta virt. eigenvalues --    0.12891   0.13477   0.14152   0.15349   0.15780

 Mulliken charges and spin densities:
               1          2
     1  C    0.722632  -0.958118
     2  O   -0.165305   0.054927
     3  C   -0.217630  -0.277090
     4  C   -0.387227   0.087771
     5  C   -0.463347   0.095302
     6  C    0.340690  -0.197310
     7  C   -0.327820   0.027138
     8  C   -0.455620  -0.053776
     9  O   -0.040783   0.018143
    10  N   -0.707162   0.082645
    11  N    0.318631   0.084560
    12  N   -0.132748   0.427941
    13  H   -0.073649   0.208266
    14  H   -0.228321   0.346946
    15  H   -0.375175   0.502221
    16  H    0.170637  -0.017938
    17  H   -0.172477   0.297959
    18  H    0.089355   0.042589
    19  H    0.137953   0.031100
    20  H    0.124330   0.048876
    21  H    0.133715   0.031557
    22  H    0.196141  -0.033815
    23  H    0.139072   0.011329
    24  H    0.135820   0.037572
    25  H    0.039595   0.030370
    26  H    0.122688   0.019430
    27  H    0.076003   0.051404
 Sum of Mulliken charges =  -1.00000   1.00000

 Dipole moment (field-independent basis, Debye):
    X=             -2.5286    Y=             -3.5718    Z=             -0.2827  Tot=              4.3854
 Quadrupole moment (field-independent basis, Debye-Ang):
   XX=           -162.8013   YY=            -97.5699   ZZ=            -89.4388
   XY=             -9.6669   XZ=              2.1552   YZ=             -1.6115

 Summary of Natural Population Analysis:

                                       Natural Population
                Natural  -----------------------------------------------
    Atom  No    Charge         Core      Valence    Rydberg      Total
 -----------------------------------------------------------------------
      C    1   -0.09618      0.99962     2.08722    0.00933     3.09618
      O    2   -0.30111      0.99988     3.29054    0.01070     4.30111
      C    3   -0.01111      0.99959     1.99761    0.01391     3.01111
      C    4   -0.19846      0.99962     2.19076    0.00807     3.19846
      C    5   -0.19741      0.99962     2.18948    0.00831     3.19741
      C    6   -0.19661      0.99963     2.18837    0.00861     3.19661
      C    7   -0.20448      0.99962     2.19676    0.00809     3.20448
      C    8   -0.01146      0.99959     1.99855    0.01332     3.01146
      O    9   -0.21146      0.99990     3.20132    0.01025     4.21146
      N   10   -0.10572      0.99973     2.58818    0.01781     3.60572
      N   11    0.12308      0.99972     2.36059    0.01661     3.37692
      N   12    0.05346      0.99982     2.43365    0.01306     3.44654
      H   13    0.08895      0.00000     0.40998    0.00106     0.41105
      H   14    0.07750      0.00000     0.42096    0.00154     0.42250
      H   15    0.07794      0.00000     0.41975    0.00230     0.42206
      H   16    0.07723      0.00000     0.42125    0.00152     0.42277
      H   17    0.07820      0.00000     0.42033    0.00147     0.42180
      H   18    0.09549      0.00000     0.40331    0.00120     0.40451
      H   19    0.09750      0.00000     0.40127    0.00122     0.40250
      H   20    0.10677      0.00000     0.39165    0.00157     0.39323
      H   21    0.10213      0.00000     0.39658    0.00129     0.39787
      H   22    0.10624      0.00000     0.39148    0.00228     0.39376
      H   23    0.09369      0.00000     0.40498    0.00133     0.40631
      H   24    0.09820      0.00000     0.40050    0.00130     0.40180
      H   25    0.09011      0.00000     0.40828    0.00161     0.40989
      H   26    0.08309      0.00000     0.41559    0.00132     0.41691
      H   27    0.08440      0.00000     0.41375    0.00185     0.41560
 =======================================================================
   * Total *   -0.00000     11.99634    34.84270    0.16096    47.00000

 Normal termination of Gaussian 16 at Wed Dec  9 17:21:10 2020.
