 Gaussian 16, Revision A.03,

 -----------------------------------------------------------
 # opt freq B3LYP/6-31G(d) empiricaldispersion=gd3bj scf=xqc
 -----------------------------------------------------------

 ------------------------------
 CID_84073645_JID_4408_neutraal
 ------------------------------
 Symbolic Z-matrix:
 Charge =  0 Multiplicity = 1

 SCF Done:  E(RB3LYP) =  -633.247880399     A.U. after   14 cycles
 SCF Done:  E(RB3LYP) =  -633.251035470     A.U. after   12 cycles
 SCF Done:  E(RB3LYP) =  -633.251091042     A.U. after   12 cycles
 SCF Done:  E(RB3LYP) =  -633.251971561     A.U. after   12 cycles
 SCF Done:  E(RB3LYP) =  -633.252207732     A.U. after   12 cycles
 SCF Done:  E(RB3LYP) =  -633.252499177     A.U. after   12 cycles
 SCF Done:  E(RB3LYP) =  -633.252658553     A.U. after   11 cycles
 SCF Done:  E(RB3LYP) =  -633.252800065     A.U. after   11 cycles
 SCF Done:  E(RB3LYP) =  -633.252968279     A.U. after   12 cycles
 SCF Done:  E(RB3LYP) =  -633.253017663     A.U. after   10 cycles
 SCF Done:  E(RB3LYP) =  -633.253104041     A.U. after    9 cycles
 SCF Done:  E(RB3LYP) =  -633.253112238     A.U. after    9 cycles
 SCF Done:  E(RB3LYP) =  -633.253122503     A.U. after   10 cycles
 SCF Done:  E(RB3LYP) =  -633.253124008     A.U. after    9 cycles
 SCF Done:  E(RB3LYP) =  -633.253124160     A.U. after    7 cycles
 Optimization completed.
    -- Stationary point found.
 Normal termination of Gaussian 16 at Thu Dec 10 09:46:12 2020.

 --------------------------------------------------------------------
 #N Geom=AllCheck Guess=TCheck SCRF=Check GenChk RB3LYP/6-31G(d) Freq
 --------------------------------------------------------------------

 Structure from the checkpoint file:  "JID_4408.chk"
 ------------------------------
 CID_84073645_JID_4408_neutraal
 ------------------------------
 Charge =  0 Multiplicity = 1

 SCF Done:  E(RB3LYP) =  -633.253124160     A.U. after    1 cycles

  Exact polarizability: 140.221  -3.683 126.661  -2.325   2.560 105.876
 Approx polarizability: 174.842  -3.023 173.540 -11.312   4.427 175.923

                      1                      2                      3
                      A                      A                      A
 Frequencies --     20.8006                33.1383                73.4693
 Red. masses --      3.9641                 5.3817                 4.7153
 Frc consts  --      0.0010                 0.0035                 0.0150
 IR Inten    --      1.1089                 4.6039                 4.8737

                      4                      5                      6
                      A                      A                      A
 Frequencies --     91.6319               125.2798               138.8296
 Red. masses --      3.0882                 4.0792                 3.7405
 Frc consts  --      0.0153                 0.0377                 0.0425
 IR Inten    --      0.2655                 0.3708                 0.4891

                      7                      8                      9
                      A                      A                      A
 Frequencies --    173.9736               232.5312               254.6154
 Red. masses --      2.4695                 1.2194                 2.4631
 Frc consts  --      0.0440                 0.0388                 0.0941
 IR Inten    --      1.3636               289.7878                 2.0411

                     10                     11                     12
                      A                      A                      A
 Frequencies --    268.1558               269.0133               280.8276
 Red. masses --      3.3537                 1.7869                 1.1647
 Frc consts  --      0.1421                 0.0762                 0.0541
 IR Inten    --      6.0876                37.6197                 4.3004

                     13                     14                     15
                      A                      A                      A
 Frequencies --    304.7493               319.2155               328.1393
 Red. masses --      2.0676                 1.7821                 1.5470
 Frc consts  --      0.1131                 0.1070                 0.0981
 IR Inten    --      3.2323                 3.5575                37.1957

                     16                     17                     18
                      A                      A                      A
 Frequencies --    366.5764               409.7510               417.6375
 Red. masses --      1.9877                 2.2533                 2.5192
 Frc consts  --      0.1574                 0.2229                 0.2589
 IR Inten    --      0.7897                 1.7331                 1.6340

                     19                     20                     21
                      A                      A                      A
 Frequencies --    427.0968               490.7811               499.3272
 Red. masses --      3.1971                 2.4371                 3.2692
 Frc consts  --      0.3436                 0.3459                 0.4802
 IR Inten    --      0.1115                 1.7083                11.0182

                     22                     23                     24
                      A                      A                      A
 Frequencies --    545.0222               596.4990               624.4211
 Red. masses --      2.0652                 1.2194                 2.7567
 Frc consts  --      0.3615                 0.2556                 0.6333
 IR Inten    --      2.8976                 7.1738                 7.7293

                     25                     26                     27
                      A                      A                      A
 Frequencies --    642.0848               734.9203               770.1966
 Red. masses --      2.6637                 2.1662                 4.1751
 Frc consts  --      0.6470                 0.6893                 1.4592
 IR Inten    --      3.5403                 4.8614                 5.8207

                     28                     29                     30
                      A                      A                      A
 Frequencies --    784.9334               835.0620               852.6448
 Red. masses --      2.9349                 1.7502                 1.9641
 Frc consts  --      1.0654                 0.7191                 0.8413
 IR Inten    --      5.5483                 2.8166                17.4269

                     31                     32                     33
                      A                      A                      A
 Frequencies --    866.4136               892.1262               930.5277
 Red. masses --      2.4653                 1.9967                 1.7904
 Frc consts  --      1.0904                 0.9363                 0.9134
 IR Inten    --      4.3154                 4.5181                 5.4344

                     34                     35                     36
                      A                      A                      A
 Frequencies --    942.1081               960.7916              1007.6340
 Red. masses --      1.8632                 1.7647                 2.1390
 Frc consts  --      0.9744                 0.9598                 1.2795
 IR Inten    --      1.5684               136.6872                 2.4886

                     37                     38                     39
                      A                      A                      A
 Frequencies --   1025.0401              1027.5241              1060.2580
 Red. masses --      2.0659                 1.8195                 1.7119
 Frc consts  --      1.2789                 1.1319                 1.1338
 IR Inten    --     33.9859                 2.0930                14.2509

                     40                     41                     42
                      A                      A                      A
 Frequencies --   1072.1117              1083.1637              1096.5530
 Red. masses --      2.0482                 2.1491                 1.9444
 Frc consts  --      1.3871                 1.4856                 1.3775
 IR Inten    --     10.4038                 4.1820                 3.0463

                     43                     44                     45
                      A                      A                      A
 Frequencies --   1123.3255              1138.0966              1146.4686
 Red. masses --      1.6368                 1.7421                 1.8726
 Frc consts  --      1.2169                 1.3295                 1.4501
 IR Inten    --      1.9837                15.3436                 8.3095

                     46                     47                     48
                      A                      A                      A
 Frequencies --   1160.8204              1178.9817              1183.1863
 Red. masses --      1.4652                 1.4897                 2.1261
 Frc consts  --      1.1632                 1.2200                 1.7536
 IR Inten    --     17.5286                 5.3354                16.9117

                     49                     50                     51
                      A                      A                      A
 Frequencies --   1203.6538              1219.9221              1239.2871
 Red. masses --      1.6437                 1.3448                 1.3939
 Frc consts  --      1.4030                 1.1791                 1.2613
 IR Inten    --      5.0824                 1.2249                 2.2201

                     52                     53                     54
                      A                      A                      A
 Frequencies --   1285.3770              1297.3071              1310.5088
 Red. masses --      1.6757                 1.5629                 1.3739
 Frc consts  --      1.6312                 1.5498                 1.3903
 IR Inten    --     41.3738                40.7014                18.0744

                     55                     56                     57
                      A                      A                      A
 Frequencies --   1325.6514              1332.6945              1341.9263
 Red. masses --      1.4149                 1.4677                 1.3416
 Frc consts  --      1.4650                 1.5358                 1.4234
 IR Inten    --      9.1088                12.9434                16.6539

                     58                     59                     60
                      A                      A                      A
 Frequencies --   1376.7823              1386.3156              1396.9646
 Red. masses --      1.3274                 1.5044                 1.5189
 Frc consts  --      1.4825                 1.7035                 1.7465
 IR Inten    --      4.8785                12.4575                 0.6391

                     61                     62                     63
                      A                      A                      A
 Frequencies --   1401.0606              1404.2504              1411.8458
 Red. masses --      1.5740                 1.4473                 1.4399
 Frc consts  --      1.8204                 1.6815                 1.6910
 IR Inten    --      6.5888                 0.1507                 1.8158

                     64                     65                     66
                      A                      A                      A
 Frequencies --   1421.8544              1436.5564              1443.7782
 Red. masses --      1.3421                 1.4353                 1.4775
 Frc consts  --      1.5986                 1.7452                 1.8146
 IR Inten    --      5.1464                21.3478                 3.8633

                     67                     68                     69
                      A                      A                      A
 Frequencies --   1485.7994              1503.4927              1509.1216
 Red. masses --      1.1819                 1.0903                 1.0757
 Frc consts  --      1.5373                 1.4521                 1.4434
 IR Inten    --      1.0777                 1.1700                 2.5871

                     70                     71                     72
                      A                      A                      A
 Frequencies --   1513.6445              1517.9721              1524.6371
 Red. masses --      1.0858                 1.0755                 1.0926
 Frc consts  --      1.4657                 1.4601                 1.4964
 IR Inten    --     11.7446                 9.9127                 8.5591

                     73                     74                     75
                      A                      A                      A
 Frequencies --   1529.7621              1537.4983              1548.9360
 Red. masses --      1.0872                 1.0794                 1.0648
 Frc consts  --      1.4990                 1.5034                 1.5052
 IR Inten    --      2.0274                 1.7297                 6.1366

                     76                     77                     78
                      A                      A                      A
 Frequencies --   1645.0052              1706.3023              1797.7126
 Red. masses --      1.2384                 1.0865                 8.8003
 Frc consts  --      1.9745                 1.8637                16.7566
 IR Inten    --     78.5538                27.6798               252.9782

                     79                     80                     81
                      A                      A                      A
 Frequencies --   2912.0425              2950.8844              3023.4531
 Red. masses --      1.0732                 1.0607                 1.0808
 Frc consts  --      5.3618                 5.4416                 5.8210
 IR Inten    --     54.9159                83.7274                22.9111

                     82                     83                     84
                      A                      A                      A
 Frequencies --   3035.6298              3043.3782              3044.3948
 Red. masses --      1.0642                 1.0621                 1.0652
 Frc consts  --      5.7779                 5.7958                 5.8166
 IR Inten    --     15.0179                23.9183                39.7239

                     85                     86                     87
                      A                      A                      A
 Frequencies --   3048.6208              3054.1852              3058.8150
 Red. masses --      1.0718                 1.0686                 1.0713
 Frc consts  --      5.8693                 5.8730                 5.9055
 IR Inten    --     25.1374                10.5302                44.6687

                     88                     89                     90
                      A                      A                      A
 Frequencies --   3066.7872              3069.9743              3077.8443
 Red. masses --      1.0778                 1.0797                 1.0957
 Frc consts  --      5.9725                 5.9953                 6.1154
 IR Inten    --     17.9511                87.6752                31.8237

                     91                     92                     93
                      A                      A                      A
 Frequencies --   3083.7096              3088.0678              3092.2776
 Red. masses --      1.1022                 1.0998                 1.1051
 Frc consts  --      6.1750                 6.1791                 6.2258
 IR Inten    --     36.6215                39.0967                75.0077

                     94                     95                     96
                      A                      A                      A
 Frequencies --   3111.2780              3115.0865              3445.7675
 Red. masses --      1.1015                 1.1011                 1.0499
 Frc consts  --      6.2825                 6.2952                 7.3450
 IR Inten    --     52.4590                19.9116                 1.9575

                     97                     98                     99
                      A                      A                      A
 Frequencies --   3528.0129              3584.3202              3713.3806
 Red. masses --      1.0911                 1.0454                 1.1042
 Frc consts  --      8.0014                 7.9131                 8.9711
 IR Inten    --      2.0253                24.5379                29.6271

 - Thermochemistry -
 -------------------
 Temperature   298.150 Kelvin.  Pressure   1.00000 Atm.
 Atom     1 has atomic number  6 and mass  12.00000

 Molecular mass:   199.16846 amu.
 Principal axes and moments of inertia in atomic units:
                           1         2         3
     Eigenvalues --  1540.300564683.692695612.70361
           X            0.99992  -0.00842   0.00917
           Y            0.00828   0.99985   0.01530
           Z           -0.00929  -0.01522   0.99984
 This molecule is an asymmetric top.
 Rotational symmetry number  1.
 Warning -- assumption of classical behavior for rotation
           may cause significant error
 Rotational temperatures (Kelvin)      0.05623     0.01849     0.01543
 Rotational constants (GHZ):           1.17168     0.38532     0.32155
 Zero-point vibrational energy     837445.7 (Joules/Mol)
                                  200.15432 (Kcal/Mol)
 Warning -- explicit consideration of  23 degrees of freedom as
           vibrations may cause significant error
 Vibrational temperatures:     29.93    47.68   105.71   131.84   180.25
          (Kelvin)            199.74   250.31   334.56   366.33   385.82
                              387.05   404.05   438.47   459.28   472.12
                              527.42   589.54   600.89   614.50   706.12
                              718.42   784.17   858.23   898.40   923.82
                             1057.39  1108.14  1129.34  1201.47  1226.77
                             1246.58  1283.57  1338.82  1355.48  1382.36
                             1449.76  1474.80  1478.38  1525.47  1542.53
                             1558.43  1577.70  1616.21  1637.47  1649.51
                             1670.16  1696.29  1702.34  1731.79  1755.20
                             1783.06  1849.37  1866.54  1885.53  1907.32
                             1917.45  1930.73  1980.88  1994.60  2009.92
                             2015.81  2020.40  2031.33  2045.73  2066.88
                             2077.27  2137.73  2163.19  2171.29  2177.80
                             2184.02  2193.61  2200.99  2212.12  2228.57
                             2366.80  2454.99  2586.51  4189.78  4245.66
                             4350.07  4367.59  4378.74  4380.21  4386.29
                             4394.29  4400.95  4412.42  4417.01  4428.33
                             4436.77  4443.04  4449.10  4476.44  4481.91
                             4957.69  5076.02  5157.04  5342.73

 Zero-point correction=                           0.318966 (Hartree/Particle)
 Thermal correction to Energy=                    0.334138
 Thermal correction to Enthalpy=                  0.335083
 Thermal correction to Gibbs Free Energy=         0.276052
 Sum of electronic and zero-point Energies=           -632.934158
 Sum of electronic and thermal Energies=              -632.918986
 Sum of electronic and thermal Enthalpies=            -632.918042
 Sum of electronic and thermal Free Energies=         -632.977073

                     E (Thermal)             CV                S
                      KCal/Mol        Cal/Mol-Kelvin    Cal/Mol-Kelvin
 Total                  209.675             58.137            124.241
 Electronic               0.000              0.000              0.000
 Translational            0.889              2.981             41.772
 Rotational               0.889              2.981             32.071
 Vibrational            207.898             52.176             50.398
 Vibration     1          0.593              1.986              6.556
 Vibration     2          0.594              1.983              5.632
 Vibration     3          0.599              1.967              4.058
 Vibration     4          0.602              1.955              3.625
 Vibration     5          0.610              1.928              3.017
 Vibration     6          0.614              1.915              2.820
 Vibration     7          0.627              1.874              2.392
 Vibration     8          0.653              1.791              1.859
 Vibration     9          0.665              1.755              1.698
 Vibration    10          0.673              1.732              1.608
 Vibration    11          0.673              1.730              1.603
 Vibration    12          0.681              1.709              1.529
 Vibration    13          0.696              1.665              1.391
 Vibration    14          0.705              1.637              1.314
 Vibration    15          0.711              1.619              1.269
 Vibration    16          0.739              1.541              1.094
 Vibration    17          0.774              1.449              0.927
 Vibration    18          0.781              1.432              0.900
 Vibration    19          0.789              1.411              0.868
 Vibration    20          0.847              1.270              0.682
 Vibration    21          0.855              1.252              0.660
 Vibration    22          0.900              1.151              0.555
 Vibration    23          0.954              1.039              0.456

 Optimization completed.
    -- Stationary point found.
 Normal termination of Gaussian 16 at Thu Dec 10 09:56:44 2020.

 ----------------------------------------------------------------------
 # B3LYP/6-311++G(d,p) empiricaldispersion=gd3bj scf=xqc pop=npa geom=c
 heck
 ----------------------------------------------------------------------

 --------------------------------------
 CID_84073645_JID_4408_Energie_neutraal
 --------------------------------------
 Structure from the checkpoint file:  "JID_4408.chk"
 Charge =  0 Multiplicity = 1

 SCF Done:  E(RB3LYP) =  -633.447652733     A.U. after   15 cycles
 Normal termination of Gaussian 16 at Thu Dec 10 10:01:25 2020.

 ----------------------------------------------------------------------
 # B3LYP/6-311++G(d,p) empiricaldispersion=gd3bj scf=xqc pop=npa geom=c
 heck
 ----------------------------------------------------------------------

 ------------------------------------
 CID_84073645_JID_4408_Energie_kation
 ------------------------------------
 Structure from the checkpoint file:  "JID_4408.chk"
 Charge =  1 Multiplicity = 2

 SCF Done:  E(UB3LYP) =  -633.160199435     A.U. after   23 cycles
 Normal termination of Gaussian 16 at Thu Dec 10 10:13:28 2020.
 Gaussian 16:  ES64L-G16RevA.03 25-Dec-2016

 ----------------------------------------------------------------------
 # B3LYP/6-311++G(d,p) empiricaldispersion=gd3bj scf=xqc pop=npa geom=c
 heck
 ----------------------------------------------------------------------

 -----------------------------------
 CID_84073645_JID_4408_Energie_anion
 -----------------------------------
 Structure from the checkpoint file:  "JID_4408.chk"
 Charge = -1 Multiplicity = 2

                         Standard orientation:
 ---------------------------------------------------------------------
 Center     Atomic      Atomic             Coordinates (Angstroms)
 Number     Number       Type             X           Y           Z
 ---------------------------------------------------------------------
      1          6           0        1.889135    2.363856   -0.306367
      2          7           0        2.160770    0.943306   -0.437271
      3          6           0        3.146509    0.485831    0.538272
      4          6           0        3.576037   -0.954599    0.256587
      5          6           0        2.357477   -1.879954    0.190325
      6          6           0        1.349673   -1.329434   -0.823979
      7          6           0        0.942396    0.115734   -0.491139
      8          6           0        0.033276    0.195823    0.772088
      9          6           0       -1.195101    1.103668    0.617384
     10          6           0       -2.257701    0.602105   -0.375121
     11          6           0       -2.808120   -0.751271    0.101448
     12          8           0       -3.546312   -0.828919    1.075452
     13          7           0       -2.448015   -1.843135   -0.636584
     14          7           0       -3.320855    1.606469   -0.471861
     15          1           0        1.475535    2.656151    0.677275
     16          1           0        2.818476    2.926002   -0.453527
     17          1           0        1.176040    2.675378   -1.077600
     18          1           0        4.012613    1.155053    0.471996
     19          1           0        2.774633    0.562858    1.580614
     20          1           0        4.279299   -1.286629    1.029793
     21          1           0        4.105114   -0.981697   -0.704698
     22          1           0        1.889658   -1.944863    1.182528
     23          1           0        2.658415   -2.898279   -0.083359
     24          1           0        0.453858   -1.962145   -0.855747
     25          1           0        1.802320   -1.342405   -1.823331
     26          1           0        0.371943    0.503477   -1.345996
     27          1           0       -0.299630   -0.809405    1.058591
     28          1           0        0.622488    0.557585    1.622209
     29          1           0       -1.688649    1.212244    1.591531
     30          1           0       -0.901836    2.106928    0.292465
     31          1           0       -1.811337    0.494535   -1.371762
     32          1           0       -1.761593   -1.784888   -1.373379
     33          1           0       -2.722584   -2.758974   -0.307506
     34          1           0       -3.993990    1.315262   -1.181129
     35          1           0       -3.835075    1.578127    0.410433
 ---------------------------------------------------------------------

 SCF Done:  E(UB3LYP) =  -633.437626175     A.U. after   33 cycles
 SCF Done:  E(UB3LYP) =  -633.437626175     a.u. after    1 cycles

 The electronic state is 2-A.
 Alpha  occ. eigenvalues --  -18.99285 -14.23248 -14.20680 -14.20434 -10.17330
 Alpha  occ. eigenvalues --  -10.11082 -10.09853 -10.09547 -10.09474 -10.07399
 Alpha  occ. eigenvalues --  -10.06865 -10.06722 -10.06465 -10.05995  -0.94225
 Alpha  occ. eigenvalues --   -0.83276  -0.80743  -0.79704  -0.70258  -0.69204
 Alpha  occ. eigenvalues --   -0.64926  -0.60269  -0.58343  -0.53269  -0.52376
 Alpha  occ. eigenvalues --   -0.50917  -0.47312  -0.44394  -0.42869  -0.41555
 Alpha  occ. eigenvalues --   -0.40061  -0.37799  -0.37515  -0.35944  -0.34914
 Alpha  occ. eigenvalues --   -0.34829  -0.33193  -0.32469  -0.32041  -0.30555
 Alpha  occ. eigenvalues --   -0.29899  -0.29110  -0.28744  -0.27583  -0.27132
 Alpha  occ. eigenvalues --   -0.25031  -0.24539  -0.24020  -0.22151  -0.21527
 Alpha  occ. eigenvalues --   -0.21205  -0.18266  -0.17383  -0.15001  -0.11889
 Alpha  occ. eigenvalues --    0.04277
 Alpha virt. eigenvalues --    0.06245   0.07046   0.07818   0.08156   0.08827
 Alpha virt. eigenvalues --    0.09156   0.09974   0.10315   0.10772   0.11106
 Alpha virt. eigenvalues --    0.11775   0.12102   0.12186   0.13015   0.13527

  Beta  occ. eigenvalues --  -18.99279 -14.23163 -14.20678 -14.20423 -10.17327
  Beta  occ. eigenvalues --  -10.11058 -10.09844 -10.09534 -10.09463 -10.07396
  Beta  occ. eigenvalues --  -10.06859 -10.06708 -10.06451 -10.05963  -0.94206
  Beta  occ. eigenvalues --   -0.83262  -0.80654  -0.79656  -0.70228  -0.69181
  Beta  occ. eigenvalues --   -0.64892  -0.60236  -0.58295  -0.53213  -0.52327
  Beta  occ. eigenvalues --   -0.50870  -0.47204  -0.44338  -0.42816  -0.41509
  Beta  occ. eigenvalues --   -0.40021  -0.37764  -0.37471  -0.35926  -0.34889
  Beta  occ. eigenvalues --   -0.34802  -0.33174  -0.32442  -0.32019  -0.30510
  Beta  occ. eigenvalues --   -0.29873  -0.29084  -0.28714  -0.27553  -0.27106
  Beta  occ. eigenvalues --   -0.25007  -0.24516  -0.23993  -0.22121  -0.21489
  Beta  occ. eigenvalues --   -0.21164  -0.18228  -0.17338  -0.14978  -0.11874
  Beta virt. eigenvalues --    0.06405   0.07374   0.07518   0.08034   0.08769
  Beta virt. eigenvalues --    0.09355   0.09774   0.10081   0.10501   0.11068
  Beta virt. eigenvalues --    0.11249   0.12028   0.12412   0.12618   0.13264

 Mulliken charges and spin densities:
               1          2
     1  C    0.017146  -0.276226
     2  N    0.157246   0.032482
     3  C   -0.080472  -0.055977
     4  C    0.731310  -1.287801
     5  C   -0.791568   0.543497
     6  C    0.762174  -1.238271
     7  C   -0.743808   0.400277
     8  C   -0.658319   0.485154
     9  C    0.503482  -0.862760
    10  C    0.596829  -0.921224
    11  C    0.234473  -0.466322
    12  O   -0.357610   0.024608
    13  N   -0.182594  -0.075361
    14  N   -0.302393   0.071974
    15  H    0.061343   0.056511
    16  H   -0.005267   0.136802
    17  H    0.009424   0.129224
    18  H   -0.183061   0.342550
    19  H    0.088061   0.001291
    20  H   -0.266262   0.424434
    21  H    0.195909  -0.059932
    22  H    0.044170   0.070941
    23  H   -0.506847   0.700925
    24  H   -0.013376   0.117556
    25  H   -0.455731   0.615819
    26  H    0.204478   0.038895
    27  H    0.117868   0.085016
    28  H    0.094678   0.077072
    29  H    0.103120   0.075217
    30  H    0.315861  -0.112441
    31  H   -0.419949   0.634109
    32  H   -0.217531   0.479307
    33  H   -0.345683   0.648036
    34  H    0.052792   0.175444
    35  H    0.240110  -0.010830
 Sum of Mulliken charges =  -1.00000   1.00000

 Dipole moment (field-independent basis, Debye):
    X=              1.1332    Y=              5.5989    Z=              3.0926  Tot=              6.4958
 Quadrupole moment (field-independent basis, Debye-Ang):
   XX=           -158.4798   YY=           -139.0567   ZZ=           -124.7362
   XY=             -2.7777   XZ=             -0.2104   YZ=             -3.8053

 Summary of Natural Population Analysis:

                                       Natural Population
                Natural  -----------------------------------------------
    Atom  No    Charge         Core      Valence    Rydberg      Total
 -----------------------------------------------------------------------
      C    1   -0.17444      0.99965     2.16807    0.00672     3.17444
      N    2   -0.28060      0.99971     2.76962    0.01127     3.78060
      C    3   -0.08303      0.99961     2.07196    0.01146     3.08303
      C    4   -0.19206      0.99962     2.18424    0.00819     3.19206
      C    5   -0.19025      0.99962     2.18220    0.00844     3.19025
      C    6   -0.19066      0.99960     2.17980    0.01126     3.19066
      C    7   -0.00446      0.99957     1.98967    0.01521     3.00446
      C    8   -0.20806      0.99960     2.20062    0.00784     3.20806
      C    9   -0.18834      0.99961     2.18004    0.00869     3.18834
      C   10   -0.05134      0.99956     2.03832    0.01347     3.05134
      C   11    0.33020      0.99967     1.64485    0.02528     2.66980
      O   12   -0.33286      0.99988     3.32679    0.00619     4.33286
      N   13   -0.39661      0.99970     2.88792    0.00899     3.89661
      N   14   -0.41517      0.99978     2.90571    0.00969     3.91517
      H   15    0.07792      0.00000     0.42071    0.00137     0.42208
      H   16    0.09303      0.00000     0.40599    0.00098     0.40697
      H   17    0.09638      0.00000     0.40259    0.00102     0.40362
      H   18    0.09539      0.00000     0.40339    0.00122     0.40461
      H   19    0.07576      0.00000     0.42273    0.00151     0.42424
      H   20    0.09742      0.00000     0.40156    0.00102     0.40258
      H   21    0.09614      0.00000     0.40234    0.00152     0.40386
      H   22    0.09228      0.00000     0.40642    0.00130     0.40772
      H   23    0.10214      0.00000     0.39660    0.00126     0.39786
      H   24    0.10057      0.00000     0.39714    0.00229     0.39943
      H   25    0.09979      0.00000     0.39823    0.00198     0.40021
      H   26    0.09533      0.00000     0.40188    0.00279     0.40467
      H   27    0.10243      0.00000     0.39607    0.00150     0.39757
      H   28    0.10049      0.00000     0.39820    0.00131     0.39951
      H   29    0.10075      0.00000     0.39821    0.00104     0.39925
      H   30    0.10223      0.00000     0.39628    0.00149     0.39777
      H   31    0.09692      0.00000     0.40069    0.00239     0.40308
      H   32    0.20203      0.00000     0.28655    0.01142     0.29797
      H   33    0.19826      0.00000     0.29782    0.00392     0.30174
      H   34    0.17485      0.00000     0.32373    0.00142     0.32515
      H   35    0.17758      0.00000     0.32048    0.00194     0.32242
 =======================================================================
   * Total *    0.00000     13.99517    40.80741    0.19742    55.00000

 Normal termination of Gaussian 16 at Thu Dec 10 10:28:35 2020.
