 Gaussian 16, Revision A.03,

 -----------------------------------------------------------
 # opt freq B3LYP/6-31G(d) empiricaldispersion=gd3bj scf=xqc
 -----------------------------------------------------------

 ------------------------------
 CID_53164837_JID_8022_neutraal
 ------------------------------
 Symbolic Z-matrix:
 Charge =  0 Multiplicity = 1

 SCF Done:  E(RB3LYP) =  -873.509840253     A.U. after   15 cycles
 SCF Done:  E(RB3LYP) =  -873.518769181     A.U. after   13 cycles
 SCF Done:  E(RB3LYP) =  -873.518331373     A.U. after   14 cycles
 SCF Done:  E(RB3LYP) =  -873.520898941     A.U. after   12 cycles
 SCF Done:  E(RB3LYP) =  -873.522363988     A.U. after   13 cycles
 SCF Done:  E(RB3LYP) =  -873.523677901     A.U. after   13 cycles
 SCF Done:  E(RB3LYP) =  -873.524173783     A.U. after   13 cycles
 SCF Done:  E(RB3LYP) =  -873.524768328     A.U. after   12 cycles
 SCF Done:  E(RB3LYP) =  -873.524983180     A.U. after   12 cycles
 SCF Done:  E(RB3LYP) =  -873.525038944     A.U. after   11 cycles
 SCF Done:  E(RB3LYP) =  -873.525230328     A.U. after   10 cycles
 SCF Done:  E(RB3LYP) =  -873.525232472     A.U. after   10 cycles
 SCF Done:  E(RB3LYP) =  -873.525232806     A.U. after    8 cycles
 SCF Done:  E(RB3LYP) =  -873.525232825     A.U. after    7 cycles
 SCF Done:  E(RB3LYP) =  -873.525232838     A.U. after    6 cycles
 Optimization completed.
    -- Stationary point found.
 Normal termination of Gaussian 16 at Fri Dec 11 18:47:21 2020.

 --------------------------------------------------------------------
 #N Geom=AllCheck Guess=TCheck SCRF=Check GenChk RB3LYP/6-31G(d) Freq
 --------------------------------------------------------------------

 Structure from the checkpoint file:  "JID_8022.chk"
 ------------------------------
 CID_53164837_JID_8022_neutraal
 ------------------------------
 Charge =  0 Multiplicity = 1

 SCF Done:  E(RB3LYP) =  -873.525232838     A.U. after    1 cycles

  Exact polarizability: 240.942   5.804 142.834  -9.310   1.045  96.398
 Approx polarizability: 313.820  14.393 226.901 -21.965   2.300 146.169

                      1                      2                      3
                      A                      A                      A
 Frequencies --     18.6862                27.2625                52.3428
 Red. masses --      5.4432                 3.8899                 7.0355
 Frc consts  --      0.0011                 0.0017                 0.0114
 IR Inten    --      0.1923                 0.6895                 0.8522

                      4                      5                      6
                      A                      A                      A
 Frequencies --     57.6025                66.7676                91.0617
 Red. masses --      5.3335                 3.3754                 4.5023
 Frc consts  --      0.0104                 0.0089                 0.0220
 IR Inten    --      0.2202                 1.6069                 1.0810

                      7                      8                      9
                      A                      A                      A
 Frequencies --    115.0822               147.4715               168.7820
 Red. masses --      2.1255                 5.0602                 4.6460
 Frc consts  --      0.0166                 0.0648                 0.0780
 IR Inten    --      5.4815                 2.7404                 2.1352

                     10                     11                     12
                      A                      A                      A
 Frequencies --    186.9315               242.8859               254.9268
 Red. masses --      1.7743                 2.5843                 3.2615
 Frc consts  --      0.0365                 0.0898                 0.1249
 IR Inten    --      1.7305                 5.0797                 5.9763

                     13                     14                     15
                      A                      A                      A
 Frequencies --    272.6308               281.5564               350.3900
 Red. masses --      2.7732                 4.4634                 3.7137
 Frc consts  --      0.1214                 0.2085                 0.2686
 IR Inten    --      5.8109                10.8246                 5.0597

                     16                     17                     18
                      A                      A                      A
 Frequencies --    380.6552               413.7001               422.4954
 Red. masses --      5.8639                 2.3095                 2.2952
 Frc consts  --      0.5006                 0.2329                 0.2414
 IR Inten    --      1.6094                 8.6678                 7.9443

                     19                     20                     21
                      A                      A                      A
 Frequencies --    427.2966               437.5855               477.4731
 Red. masses --      4.5362                 5.9486                 2.7247
 Frc consts  --      0.4880                 0.6711                 0.3660
 IR Inten    --      0.2883                 2.4094                 4.1469

                     22                     23                     24
                      A                      A                      A
 Frequencies --    500.6053               522.0600               536.7929
 Red. masses --      2.8160                 3.7764                 2.5877
 Frc consts  --      0.4158                 0.6064                 0.4393
 IR Inten    --      8.7797                11.2077                 9.3687

                     25                     26                     27
                      A                      A                      A
 Frequencies --    570.3444               583.8241               648.5543
 Red. masses --      2.9318                 1.4967                 2.4248
 Frc consts  --      0.5619                 0.3006                 0.6009
 IR Inten    --      1.0565                85.6473                22.0833

                     28                     29                     30
                      A                      A                      A
 Frequencies --    669.2804               706.4662               770.8938
 Red. masses --      8.6705                 4.2484                 5.3396
 Frc consts  --      2.2883                 1.2493                 1.8696
 IR Inten    --      4.4521                20.2089                19.5851

                     31                     32                     33
                      A                      A                      A
 Frequencies --    804.9988               856.2253               871.0658
 Red. masses --     10.3817                 6.7019                 1.6225
 Frc consts  --      3.9638                 2.8948                 0.7253
 IR Inten    --     19.6253                13.3983                 0.5519

                     34                     35                     36
                      A                      A                      A
 Frequencies --    871.7134               923.8709               938.4738
 Red. masses --      3.5187                 4.8953                 2.5138
 Frc consts  --      1.5754                 2.4618                 1.3044
 IR Inten    --     11.5373                18.2518                 6.4459

                     37                     38                     39
                      A                      A                      A
 Frequencies --    938.6870               966.5704               987.6342
 Red. masses --      3.4146                 1.5623                 3.2723
 Frc consts  --      1.7727                 0.8600                 1.8806
 IR Inten    --     13.6005                 6.7263                83.8217

                     40                     41                     42
                      A                      A                      A
 Frequencies --   1009.7514              1039.9191              1040.7355
 Red. masses --      1.3771                 2.0680                 2.0247
 Frc consts  --      0.8272                 1.3176                 1.2921
 IR Inten    --      4.6784                46.6208                 7.2678

                     43                     44                     45
                      A                      A                      A
 Frequencies --   1059.5707              1086.9315              1106.0280
 Red. masses --      3.1256                 2.4388                 1.7319
 Frc consts  --      2.0675                 1.6976                 1.2482
 IR Inten    --      0.7804                 4.3724                 6.2758

                     46                     47                     48
                      A                      A                      A
 Frequencies --   1134.8649              1153.1133              1154.1596
 Red. masses --      3.9077                 6.2166                 2.1708
 Frc consts  --      2.9653                 4.8702                 1.7037
 IR Inten    --    184.9368                95.0466                 3.4344

                     49                     50                     51
                      A                      A                      A
 Frequencies --   1194.6037              1217.2428              1221.4370
 Red. masses --      1.2842                 3.8971                 1.7301
 Frc consts  --      1.0797                 3.4021                 1.5208
 IR Inten    --      5.0412                 2.4296                16.7366

                     52                     53                     54
                      A                      A                      A
 Frequencies --   1246.3908              1258.1890              1286.1584
 Red. masses --      1.2550                 2.4390                 1.6940
 Frc consts  --      1.1487                 2.2749                 1.6510
 IR Inten    --     10.2737                26.9301                15.1468

                     55                     56                     57
                      A                      A                      A
 Frequencies --   1299.1458              1308.8970              1315.7555
 Red. masses --      1.8782                 1.4046                 1.4850
 Frc consts  --      1.8677                 1.4178                 1.5147
 IR Inten    --     51.5262               184.9882                13.1222

                     58                     59                     60
                      A                      A                      A
 Frequencies --   1342.6948              1347.9340              1368.3315
 Red. masses --      1.2199                 1.6392                 1.5887
 Frc consts  --      1.2957                 1.7548                 1.7525
 IR Inten    --     20.7121                32.0866               141.8809

                     61                     62                     63
                      A                      A                      A
 Frequencies --   1374.3855              1409.4326              1409.8739
 Red. masses --      1.2432                 1.3533                 1.3729
 Frc consts  --      1.3836                 1.5839                 1.6079
 IR Inten    --      0.7367                84.6369               103.8372

                     64                     65                     66
                      A                      A                      A
 Frequencies --   1422.8543              1429.4184              1442.1091
 Red. masses --      1.7430                 2.1348                 1.3647
 Frc consts  --      2.0791                 2.5699                 1.6722
 IR Inten    --     75.6231                 2.2380                 7.0114

                     67                     68                     69
                      A                      A                      A
 Frequencies --   1460.0102              1498.4342              1501.7089
 Red. masses --      2.8538                 1.3254                 1.9363
 Frc consts  --      3.5841                 1.7533                 2.5727
 IR Inten    --     89.4873                44.1461                46.6168

                     70                     71                     72
                      A                      A                      A
 Frequencies --   1510.6778              1513.7532              1514.5159
 Red. masses --      1.0806                 1.0893                 1.1493
 Frc consts  --      1.4530                 1.4706                 1.5533
 IR Inten    --      1.9393                 1.6136               137.9292

                     73                     74                     75
                      A                      A                      A
 Frequencies --   1516.0430              1516.5761              1527.4342
 Red. masses --      1.0731                 1.0937                 1.1172
 Frc consts  --      1.4532                 1.4820                 1.5357
 IR Inten    --      9.2360                 0.5942                11.8907

                     76                     77                     78
                      A                      A                      A
 Frequencies --   1540.2636              1571.2440              1580.7081
 Red. masses --      1.0599                 4.2904                 6.1885
 Frc consts  --      1.4815                 6.2408                 9.1104
 IR Inten    --     11.5010               750.5637                62.2894

                     79                     80                     81
                      A                      A                      A
 Frequencies --   1674.3079              1782.8115              2993.1812
 Red. masses --      5.8285                 8.0585                 1.0710
 Frc consts  --      9.6266                15.0910                 5.6531
 IR Inten    --    269.0238               458.3441                30.7070

                     82                     83                     84
                      A                      A                      A
 Frequencies --   2999.4016              3016.8077              3020.7937
 Red. masses --      1.0713                 1.0719                 1.0723
 Frc consts  --      5.6784                 5.7478                 5.7651
 IR Inten    --     49.8051                 4.3349               144.3743

                     85                     86                     87
                      A                      A                      A
 Frequencies --   3022.8042              3048.2437              3092.0648
 Red. masses --      1.0395                 1.0646                 1.0981
 Frc consts  --      5.5962                 5.8281                 6.1857
 IR Inten    --     57.5602                40.4162                32.6771

                     88                     89                     90
                      A                      A                      A
 Frequencies --   3116.6930              3118.5016              3130.6421
 Red. masses --      1.0940                 1.0957                 1.1007
 Frc consts  --      6.2612                 6.2783                 6.3561
 IR Inten    --     43.7640                51.4420                23.8640

                     91                     92                     93
                      A                      A                      A
 Frequencies --   3150.6955              3155.3014              3170.9150
 Red. masses --      1.1027                 1.0913                 1.0911
 Frc consts  --      6.4492                 6.4016                 6.4639
 IR Inten    --     23.3544                30.0771                 5.0253

                     94                     95                     96
                      A                      A                      A
 Frequencies --   3172.0643              3200.0906              3565.0772
 Red. masses --      1.0909                 1.0930                 1.0752
 Frc consts  --      6.4674                 6.5945                 8.0515
 IR Inten    --      4.2025                 1.0933                23.2759

 - Thermochemistry -
 -------------------
 Temperature   298.150 Kelvin.  Pressure   1.00000 Atm.
 Atom     1 has atomic number  6 and mass  12.00000

 Molecular mass:   252.12224 amu.
 Principal axes and moments of inertia in atomic units:
                           1         2         3
     Eigenvalues --  1521.26190********************
           X            0.99996  -0.00876   0.00101
           Y            0.00875   0.99993   0.00810
           Z           -0.00108  -0.00809   0.99997
 This molecule is an asymmetric top.
 Rotational symmetry number  1.
 Warning -- assumption of classical behavior for rotation
           may cause significant error
 Rotational temperatures (Kelvin)      0.05694     0.00802     0.00725
 Rotational constants (GHZ):           1.18634     0.16708     0.15105
 Zero-point vibrational energy     741226.2 (Joules/Mol)
                                  177.15731 (Kcal/Mol)
 Warning -- explicit consideration of  26 degrees of freedom as
           vibrations may cause significant error
 Vibrational temperatures:     26.89    39.22    75.31    82.88    96.06
          (Kelvin)            131.02   165.58   212.18   242.84   268.95
                              349.46   366.78   392.25   405.10   504.13
                              547.68   595.22   607.88   614.78   629.59
                              686.98   720.26   751.13   772.33   820.60
                              839.99   933.13   962.95  1016.45  1109.14
                             1158.21  1231.92  1253.27  1254.20  1329.24
                             1350.25  1350.56  1390.68  1420.99  1452.81
                             1496.21  1497.39  1524.49  1563.85  1591.33
                             1632.82  1659.07  1660.58  1718.77  1751.34
                             1757.38  1793.28  1810.25  1850.50  1869.18
                             1883.21  1893.08  1931.84  1939.38  1968.72
                             1977.43  2027.86  2028.49  2047.17  2056.61
                             2074.87  2100.63  2155.91  2160.62  2173.53
                             2177.95  2179.05  2181.25  2182.01  2197.64
                             2216.10  2260.67  2274.29  2408.96  2565.07
                             4306.52  4315.47  4340.51  4346.25  4349.14
                             4385.74  4448.79  4484.23  4486.83  4504.30
                             4533.15  4539.77  4562.24  4563.89  4604.22
                             5129.35

 Zero-point correction=                           0.282318 (Hartree/Particle)
 Thermal correction to Energy=                    0.299039
 Thermal correction to Enthalpy=                  0.299983
 Thermal correction to Gibbs Free Energy=         0.235287
 Sum of electronic and zero-point Energies=           -873.242915
 Sum of electronic and thermal Energies=              -873.226194
 Sum of electronic and thermal Enthalpies=            -873.225250
 Sum of electronic and thermal Free Energies=         -873.289946

                     E (Thermal)             CV                S
                      KCal/Mol        Cal/Mol-Kelvin    Cal/Mol-Kelvin
 Total                  187.650             62.033            136.164
 Electronic               0.000              0.000              0.000
 Translational            0.889              2.981             42.474
 Rotational               0.889              2.981             33.640
 Vibrational            185.872             56.071             60.050
 Vibration     1          0.593              1.986              6.769
 Vibration     2          0.593              1.984              6.019
 Vibration     3          0.596              1.977              4.727
 Vibration     4          0.596              1.974              4.538
 Vibration     5          0.598              1.970              4.246
 Vibration     6          0.602              1.956              3.637
 Vibration     7          0.608              1.937              3.181
 Vibration     8          0.617              1.905              2.705
 Vibration     9          0.625              1.881              2.449
 Vibration    10          0.632              1.858              2.258
 Vibration    11          0.659              1.775              1.782
 Vibration    12          0.665              1.754              1.696
 Vibration    13          0.676              1.724              1.579
 Vibration    14          0.681              1.708              1.524
 Vibration    15          0.727              1.574              1.164
 Vibration    16          0.750              1.511              1.037
 Vibration    17          0.777              1.440              0.914
 Vibration    18          0.785              1.421              0.884
 Vibration    19          0.789              1.411              0.868
 Vibration    20          0.798              1.388              0.834
 Vibration    21          0.834              1.300              0.717
 Vibration    22          0.856              1.249              0.657
 Vibration    23          0.877              1.201              0.605
 Vibration    24          0.892              1.169              0.572
 Vibration    25          0.926              1.095              0.504
 Vibration    26          0.941              1.066              0.478

 Optimization completed.
    -- Stationary point found.
 Normal termination of Gaussian 16 at Fri Dec 11 18:59:18 2020.

 ----------------------------------------------------------------------
 # B3LYP/6-311++G(d,p) empiricaldispersion=gd3bj scf=xqc pop=npa geom=c
 heck
 ----------------------------------------------------------------------

 --------------------------------------
 CID_53164837_JID_8022_Energie_neutraal
 --------------------------------------
 Structure from the checkpoint file:  "JID_8022.chk"
 Charge =  0 Multiplicity = 1

 SCF Done:  E(RB3LYP) =  -873.771644606     A.U. after   15 cycles
 Normal termination of Gaussian 16 at Fri Dec 11 19:04:12 2020.

 ----------------------------------------------------------------------
 # B3LYP/6-311++G(d,p) empiricaldispersion=gd3bj scf=xqc pop=npa geom=c
 heck
 ----------------------------------------------------------------------

 ------------------------------------
 CID_53164837_JID_8022_Energie_kation
 ------------------------------------
 Structure from the checkpoint file:  "JID_8022.chk"
 Charge =  1 Multiplicity = 2

 SCF Done:  E(UB3LYP) =  -873.494228247     A.U. after   22 cycles
 Normal termination of Gaussian 16 at Fri Dec 11 19:13:58 2020.
 Gaussian 16:  ES64L-G16RevA.03 25-Dec-2016

 ----------------------------------------------------------------------
 # B3LYP/6-311++G(d,p) empiricaldispersion=gd3bj scf=xqc pop=npa geom=c
 heck
 ----------------------------------------------------------------------

 -----------------------------------
 CID_53164837_JID_8022_Energie_anion
 -----------------------------------
 Structure from the checkpoint file:  "JID_8022.chk"
 Charge = -1 Multiplicity = 2

                         Standard orientation:
 ---------------------------------------------------------------------
 Center     Atomic      Atomic             Coordinates (Angstroms)
 Number     Number       Type             X           Y           Z
 ---------------------------------------------------------------------
      1          6           0       -4.881444    2.001514    0.296683
      2          8           0       -3.651505    1.637775   -0.319245
      3          6           0       -3.702960    0.392656   -0.999124
      4          6           0       -3.825136   -0.774609   -0.017350
      5          8           0       -4.917914   -1.203682    0.332331
      6          7           0       -2.664486   -1.303968    0.498622
      7          6           0       -1.319506   -0.926695    0.274817
      8          6           0       -0.857915    0.393459    0.360671
      9          7           0        0.414604    0.721376    0.162954
     10          6           0        1.276833   -0.288283   -0.093160
     11          7           0        0.939591   -1.596331   -0.178323
     12          6           0       -0.343308   -1.888415   -0.004320
     13          7           0        2.592126    0.034511   -0.263769
     14          6           0        3.600395   -0.953128   -0.629953
     15          6           0        4.851877   -0.732440    0.217615
     16          8           0        5.324889    0.603052    0.108604
     17          6           0        4.337056    1.527804    0.543678
     18          6           0        3.061628    1.415142   -0.288771
     19          1           0       -4.723709    2.990271    0.733183
     20          1           0       -5.176325    1.293278    1.079825
     21          1           0       -5.690327    2.054376   -0.446427
     22          1           0       -4.577917    0.342110   -1.660436
     23          1           0       -2.789764    0.332228   -1.596221
     24          1           0       -2.838934   -2.075601    1.133757
     25          1           0       -1.551989    1.204000    0.570000
     26          1           0       -0.619166   -2.940541   -0.082187
     27          1           0        3.856905   -0.838418   -1.694131
     28          1           0        3.188667   -1.949978   -0.476527
     29          1           0        4.627822   -0.969442    1.270817
     30          1           0        5.665015   -1.379095   -0.124273
     31          1           0        4.776358    2.523870    0.438777
     32          1           0        4.098553    1.354231    1.605964
     33          1           0        3.277932    1.709679   -1.326971
     34          1           0        2.275159    2.060722    0.100229
 ---------------------------------------------------------------------

 SCF Done:  E(UB3LYP) =  -873.769674376     A.U. after   33 cycles
 SCF Done:  E(UB3LYP) =  -873.769674376     a.u. after    1 cycles

 The electronic state is 2-A.
 Alpha  occ. eigenvalues --  -19.03317 -19.03087 -18.97711 -14.22764 -14.21282
 Alpha  occ. eigenvalues --  -14.14866 -14.14442 -10.15608 -10.12573 -10.12118
 Alpha  occ. eigenvalues --  -10.11833 -10.11819 -10.11805 -10.09210 -10.08963
 Alpha  occ. eigenvalues --  -10.06710 -10.05558 -10.04485  -0.94753  -0.94703
 Alpha  occ. eigenvalues --   -0.92317  -0.86332  -0.81531  -0.79040  -0.73498
 Alpha  occ. eigenvalues --   -0.67535  -0.64583  -0.63867  -0.59130  -0.56403
 Alpha  occ. eigenvalues --   -0.56153  -0.51892  -0.50977  -0.47330  -0.45801
 Alpha  occ. eigenvalues --   -0.42455  -0.40659  -0.40189  -0.39137  -0.38373
 Alpha  occ. eigenvalues --   -0.37922  -0.37003  -0.36790  -0.35724  -0.33843
 Alpha  occ. eigenvalues --   -0.33363  -0.33070  -0.30157  -0.29840  -0.29246
 Alpha  occ. eigenvalues --   -0.28939  -0.27914  -0.27836  -0.26367  -0.26155
 Alpha  occ. eigenvalues --   -0.25631  -0.23526  -0.22068  -0.20044  -0.18498
 Alpha  occ. eigenvalues --   -0.17703  -0.17347  -0.16705  -0.14815  -0.13919
 Alpha  occ. eigenvalues --   -0.09783  -0.07777   0.05306
 Alpha virt. eigenvalues --    0.07181   0.07465   0.08095   0.08841   0.09154
 Alpha virt. eigenvalues --    0.09499   0.10047   0.10675   0.11274   0.11451
 Alpha virt. eigenvalues --    0.11594   0.11957   0.12656   0.13194   0.13474

  Beta  occ. eigenvalues --  -19.03292 -19.03085 -18.97658 -14.22759 -14.21296
  Beta  occ. eigenvalues --  -14.14625 -14.14067 -10.15547 -10.12596 -10.12115
  Beta  occ. eigenvalues --  -10.11829 -10.11813 -10.11790 -10.09207 -10.08961
  Beta  occ. eigenvalues --  -10.06817 -10.05333 -10.03998  -0.94749  -0.94640
  Beta  occ. eigenvalues --   -0.92230  -0.86094  -0.81453  -0.78789  -0.72778
  Beta  occ. eigenvalues --   -0.67512  -0.64411  -0.63729  -0.59010  -0.56316
  Beta  occ. eigenvalues --   -0.56078  -0.51829  -0.50301  -0.47098  -0.45722
  Beta  occ. eigenvalues --   -0.42329  -0.40543  -0.40087  -0.39055  -0.38319
  Beta  occ. eigenvalues --   -0.37791  -0.36975  -0.36738  -0.35659  -0.33735
  Beta  occ. eigenvalues --   -0.33256  -0.32990  -0.30082  -0.29784  -0.29121
  Beta  occ. eigenvalues --   -0.28580  -0.27787  -0.26942  -0.26296  -0.26113
  Beta  occ. eigenvalues --   -0.25447  -0.23485  -0.22031  -0.19710  -0.18416
  Beta  occ. eigenvalues --   -0.17452  -0.16407  -0.15053  -0.14447  -0.13760
  Beta  occ. eigenvalues --   -0.09428  -0.07050
  Beta virt. eigenvalues --    0.07253   0.07432   0.08264   0.08777   0.09166
  Beta virt. eigenvalues --    0.09597   0.10142   0.10621   0.11224   0.11268
  Beta virt. eigenvalues --    0.11461   0.11833   0.11889   0.12782   0.13176

 Mulliken charges and spin densities:
               1          2
     1  C   -0.288272  -0.004868
     2  O   -0.068143  -0.008491
     3  C   -0.219443  -0.093190
     4  C   -0.112839   0.097218
     5  O   -0.346113   0.020480
     6  N   -0.189660   0.006580
     7  C   -0.429620  -0.214733
     8  C    0.222674   0.133936
     9  N   -0.225473   0.178738
    10  C   -0.465489  -0.097760
    11  N   -0.201690   0.085405
    12  C   -0.050540   0.530408
    13  N    0.062048   0.009903
    14  C   -0.095592   0.022530
    15  C   -0.176094  -0.144415
    16  O   -0.159137   0.024273
    17  C    0.031742  -0.368091
    18  C   -0.141896   0.042121
    19  H    0.112886   0.012387
    20  H    0.175634  -0.004939
    21  H    0.099341   0.013785
    22  H    0.074731   0.073006
    23  H    0.209152   0.008962
    24  H    0.196849   0.088795
    25  H    0.278938  -0.015350
    26  H    0.108799   0.015228
    27  H    0.067546   0.064457
    28  H    0.171518  -0.002077
    29  H    0.105689   0.021092
    30  H    0.100835   0.054584
    31  H   -0.134632   0.298896
    32  H    0.072722   0.056064
    33  H    0.078450   0.055803
    34  H    0.135082   0.039262
 Sum of Mulliken charges =  -1.00000   1.00000

 Dipole moment (field-independent basis, Debye):
    X=              0.5469    Y=              1.2095    Z=             -0.3059  Tot=              1.3622
 Quadrupole moment (field-independent basis, Debye-Ang):
   XX=           -185.7116   YY=           -129.9371   ZZ=           -116.1824
   XY=            -17.4307   XZ=              2.9918   YZ=              1.7103

 Summary of Natural Population Analysis:

                                       Natural Population
                Natural  -----------------------------------------------
    Atom  No    Charge         Core      Valence    Rydberg      Total
 -----------------------------------------------------------------------
      C    1   -0.09999      0.99962     2.09211    0.00826     3.09999
      O    2   -0.29106      0.99989     3.28126    0.00991     4.29106
      C    3   -0.04987      0.99955     2.03942    0.01089     3.04987
      C    4    0.33058      0.99970     1.64756    0.02217     2.66942
      O    5   -0.33194      0.99988     3.32570    0.00636     4.33194
      N    6   -0.30317      0.99965     2.79256    0.01096     3.80317
      C    7   -0.01951      0.99944     2.00953    0.01054     3.01951
      C    8    0.07547      0.99956     1.91150    0.01347     2.92453
      N    9   -0.23681      0.99967     2.72736    0.00978     3.73681
      C   10    0.30140      0.99957     1.68229    0.01674     2.69860
      N   11   -0.25515      0.99967     2.74463    0.01084     3.75515
      C   12    0.12817      0.99956     1.85666    0.01561     2.87183
      N   13   -0.25836      0.99962     2.74744    0.01130     3.75836
      C   14   -0.09863      0.99962     2.08986    0.00915     3.09863
      C   15   -0.01445      0.99958     2.00324    0.01163     3.01445
      O   16   -0.30302      0.99989     3.29317    0.00996     4.30302
      C   17   -0.01798      0.99958     2.00373    0.01467     3.01798
      C   18   -0.10134      0.99962     2.08989    0.01183     3.10134
      H   19    0.08537      0.00000     0.41381    0.00082     0.41463
      H   20    0.08764      0.00000     0.41105    0.00131     0.41236
      H   21    0.07506      0.00000     0.42328    0.00166     0.42494
      H   22    0.08424      0.00000     0.41360    0.00216     0.41576
      H   23    0.10427      0.00000     0.39470    0.00103     0.39573
      H   24    0.19320      0.00000     0.30418    0.00262     0.30680
      H   25    0.09333      0.00000     0.40500    0.00167     0.40667
      H   26    0.07615      0.00000     0.42266    0.00119     0.42385
      H   27    0.08381      0.00000     0.41407    0.00213     0.41619
      H   28    0.12205      0.00000     0.37608    0.00187     0.37795
      H   29    0.07789      0.00000     0.42047    0.00164     0.42211
      H   30    0.08690      0.00000     0.41170    0.00139     0.41310
      H   31    0.08933      0.00000     0.40919    0.00148     0.41067
      H   32    0.07831      0.00000     0.42010    0.00158     0.42169
      H   33    0.08467      0.00000     0.41363    0.00169     0.41533
      H   34    0.12344      0.00000     0.37453    0.00203     0.37656
 =======================================================================
   * Total *    0.00000     17.99368    48.76598    0.24034    67.00000

 Normal termination of Gaussian 16 at Fri Dec 11 19:28:57 2020.
