 Gaussian 16, Revision A.03,

 -----------------------------------------------------------
 # opt freq B3LYP/6-31G(d) empiricaldispersion=gd3bj scf=xqc
 -----------------------------------------------------------

 -----------------------------
 CID_20038998_JID_340_neutraal
 -----------------------------
 Symbolic Z-matrix:
 Charge =  0 Multiplicity = 1

 SCF Done:  E(RB3LYP) =  -820.201220958     A.U. after   15 cycles
 SCF Done:  E(RB3LYP) =  -820.203681794     A.U. after   13 cycles
 SCF Done:  E(RB3LYP) =  -820.202086903     A.U. after   13 cycles
 SCF Done:  E(RB3LYP) =  -820.204536885     A.U. after   11 cycles
 SCF Done:  E(RB3LYP) =  -820.204573796     A.U. after   11 cycles
 SCF Done:  E(RB3LYP) =  -820.204587100     A.U. after   10 cycles
 SCF Done:  E(RB3LYP) =  -820.204595872     A.U. after   11 cycles
 SCF Done:  E(RB3LYP) =  -820.204603702     A.U. after   12 cycles
 SCF Done:  E(RB3LYP) =  -820.204606957     A.U. after   11 cycles
 SCF Done:  E(RB3LYP) =  -820.204609232     A.U. after   10 cycles
 SCF Done:  E(RB3LYP) =  -820.204609799     A.U. after    8 cycles
 SCF Done:  E(RB3LYP) =  -820.204610038     A.U. after    8 cycles
 SCF Done:  E(RB3LYP) =  -820.204610216     A.U. after    8 cycles
 SCF Done:  E(RB3LYP) =  -820.204610336     A.U. after    8 cycles
 SCF Done:  E(RB3LYP) =  -820.204610393     A.U. after    7 cycles
 Optimization completed.
    -- Stationary point found.
 Normal termination of Gaussian 16 at Tue Dec  8 10:24:50 2020.

 --------------------------------------------------------------------
 #N Geom=AllCheck Guess=TCheck SCRF=Check GenChk RB3LYP/6-31G(d) Freq
 --------------------------------------------------------------------

 Structure from the checkpoint file:  "JID_340.chk"
 -----------------------------
 CID_20038998_JID_340_neutraal
 -----------------------------
 Charge =  0 Multiplicity = 1

 SCF Done:  E(RB3LYP) =  -820.204610393     A.U. after    1 cycles

  Exact polarizability:  94.614  -1.401  82.783  -2.654  -3.947  83.554
 Approx polarizability: 123.685  -6.532 132.716   0.116 -12.242 151.691

                      1                      2                      3
                      A                      A                      A
 Frequencies --     21.7471                36.2495                82.9732
 Red. masses --      8.5999                 4.5077                 7.4421
 Frc consts  --      0.0024                 0.0035                 0.0302
 IR Inten    --      0.1578                 0.0616                 0.8689

                      4                      5                      6
                      A                      A                      A
 Frequencies --    150.6502               210.5607               278.3459
 Red. masses --      3.2237                 5.0023                 4.0715
 Frc consts  --      0.0431                 0.1307                 0.1859
 IR Inten    --      0.4184                 1.0638                 3.8870

                      7                      8                      9
                      A                      A                      A
 Frequencies --    341.8117               370.8648               424.7764
 Red. masses --      2.1014                 1.1240                 4.1074
 Frc consts  --      0.1447                 0.0911                 0.4367
 IR Inten    --      1.9895                19.6412                18.2598

                     10                     11                     12
                      A                      A                      A
 Frequencies --    455.2683               520.2552               622.3359
 Red. masses --      6.8262                 2.8449                 3.9961
 Frc consts  --      0.8336                 0.4537                 0.9119
 IR Inten    --      9.8877                 8.3716                16.7703

                     13                     14                     15
                      A                      A                      A
 Frequencies --    628.4275               673.8092               712.2321
 Red. masses --      3.8954                 2.7507                 2.8095
 Frc consts  --      0.9064                 0.7358                 0.8397
 IR Inten    --      1.3948                24.3479                13.4392

                     16                     17                     18
                      A                      A                      A
 Frequencies --    726.5753               792.8676               839.6152
 Red. masses --      1.3525                 1.4250                 1.3090
 Frc consts  --      0.4207                 0.5278                 0.5437
 IR Inten    --     10.5139                29.3838                 3.2939

                     19                     20                     21
                      A                      A                      A
 Frequencies --    847.9466               895.6998               925.2432
 Red. masses --      1.4715                 5.7028                 2.7360
 Frc consts  --      0.6234                 2.6957                 1.3800
 IR Inten    --     72.4245                26.8334                14.9855

                     22                     23                     24
                      A                      A                      A
 Frequencies --    954.5260              1003.6067              1032.7572
 Red. masses --      2.0617                 2.6394                 2.2938
 Frc consts  --      1.1068                 1.5664                 1.4415
 IR Inten    --     11.4429                 1.5832                63.1952

                     25                     26                     27
                      A                      A                      A
 Frequencies --   1066.7085              1074.6517              1106.2558
 Red. masses --      2.0919                 2.6913                 1.7805
 Frc consts  --      1.4024                 1.8313                 1.2838
 IR Inten    --     52.2958                92.9286                13.4629

                     28                     29                     30
                      A                      A                      A
 Frequencies --   1188.5827              1213.0198              1236.9271
 Red. masses --      1.5766                 2.1178                 1.3262
 Frc consts  --      1.3123                 1.8360                 1.1955
 IR Inten    --      7.0175                22.1490                 9.1758

                     31                     32                     33
                      A                      A                      A
 Frequencies --   1281.7489              1298.7903              1387.1327
 Red. masses --      1.5333                 1.5453                 1.5040
 Frc consts  --      1.4842                 1.5358                 1.7051
 IR Inten    --      1.7123                 3.1014                 4.8200

                     34                     35                     36
                      A                      A                      A
 Frequencies --   1391.5251              1435.9859              1483.4298
 Red. masses --      1.5356                 3.0330                 1.0886
 Frc consts  --      1.7519                 3.6848                 1.4114
 IR Inten    --      7.9186                 2.7781                14.5546

                     37                     38                     39
                      A                      A                      A
 Frequencies --   1513.6247              1549.0202              1647.3758
 Red. masses --      1.0999                 3.9749                 5.7573
 Frc consts  --      1.4847                 5.6194                 9.2056
 IR Inten    --     11.6397                14.2402                 0.2979

                     40                     41                     42
                      A                      A                      A
 Frequencies --   1815.6325              2700.6606              3044.4920
 Red. masses --     11.1616                 1.0383                 1.0649
 Frc consts  --     21.6788                 4.4618                 5.8154
 IR Inten    --    220.8505                 3.2971                13.3446

                     43                     44                     45
                      A                      A                      A
 Frequencies --   3070.0309              3099.2754              3121.4768
 Red. masses --      1.0633                 1.0983                 1.1000
 Frc consts  --      5.9044                 6.2158                 6.3151
 IR Inten    --     28.0907                 5.8920                12.2453

                     46                     47                     48
                      A                      A                      A
 Frequencies --   3258.2711              3301.0793              3307.8226
 Red. masses --      1.0927                 1.1007                 1.1011
 Frc consts  --      6.8346                 7.0672                 7.0985
 IR Inten    --      2.4828                 1.5341                 0.4349

 - Thermochemistry -
 -------------------
 Temperature   298.150 Kelvin.  Pressure   1.00000 Atm.
 Atom     1 has atomic number  6 and mass  12.00000

 Molecular mass:   156.02450 amu.
 Principal axes and moments of inertia in atomic units:
                           1         2         3
     Eigenvalues --   854.839032887.026253006.35072
           X            0.99995  -0.00088  -0.00953
           Y            0.00018   0.99730  -0.07349
           Z            0.00957   0.07348   0.99725
 This molecule is an asymmetric top.
 Rotational symmetry number  1.
 Warning -- assumption of classical behavior for rotation
           may cause significant error
 Rotational temperatures (Kelvin)      0.10132     0.03000     0.02881
 Rotational constants (GHZ):           2.11121     0.62512     0.60031
 Zero-point vibrational energy     359733.0 (Joules/Mol)
                                   85.97826 (Kcal/Mol)
 Warning -- explicit consideration of  11 degrees of freedom as
           vibrations may cause significant error
 Vibrational temperatures:     31.29    52.15   119.38   216.75   302.95
          (Kelvin)            400.48   491.79   533.59   611.16   655.03
                              748.53   895.40   904.17   969.46  1024.74
                             1045.38  1140.76  1208.02  1220.01  1288.71
                             1331.22  1373.35  1443.97  1485.91  1534.76
                             1546.18  1591.66  1710.11  1745.26  1779.66
                             1844.15  1868.67  1995.77  2002.09  2066.06
                             2134.32  2177.77  2228.69  2370.21  2612.29
                             3885.65  4380.34  4417.09  4459.17  4491.11
                             4687.93  4749.52  4759.22

 Zero-point correction=                           0.137015 (Hartree/Particle)
 Thermal correction to Energy=                    0.146722
 Thermal correction to Enthalpy=                  0.147666
 Thermal correction to Gibbs Free Energy=         0.099548
 Sum of electronic and zero-point Energies=           -820.067595
 Sum of electronic and thermal Energies=              -820.057888
 Sum of electronic and thermal Enthalpies=            -820.056944
 Sum of electronic and thermal Free Energies=         -820.105062

                     E (Thermal)             CV                S
                      KCal/Mol        Cal/Mol-Kelvin    Cal/Mol-Kelvin
 Total                   92.070             35.171            101.274
 Electronic               0.000              0.000              0.000
 Translational            0.889              2.981             41.044
 Rotational               0.889              2.981             30.385
 Vibrational             90.292             29.209             29.845
 Vibration     1          0.593              1.985              6.468
 Vibration     2          0.594              1.982              5.454
 Vibration     3          0.600              1.961              3.819
 Vibration     4          0.618              1.902              2.664
 Vibration     5          0.643              1.825              2.039
 Vibration     6          0.679              1.714              1.544
 Vibration     7          0.721              1.592              1.204
 Vibration     8          0.743              1.532              1.076
 Vibration     9          0.787              1.416              0.876
 Vibration    10          0.814              1.349              0.780
 Vibration    11          0.875              1.205              0.609

 Optimization completed.
    -- Stationary point found.
 Normal termination of Gaussian 16 at Tue Dec  8 10:27:32 2020.

 ----------------------------------------------------------------------
 # B3LYP/6-311++G(d,p) empiricaldispersion=gd3bj scf=xqc pop=npa geom=c
 heck
 ----------------------------------------------------------------------

 -------------------------------------
 CID_20038998_JID_340_Energie_neutraal
 -------------------------------------
 Structure from the checkpoint file:  "JID_340.chk"
 Charge =  0 Multiplicity = 1

 SCF Done:  E(RB3LYP) =  -820.356255461     A.U. after   15 cycles
 Normal termination of Gaussian 16 at Tue Dec  8 10:28:19 2020.

 ----------------------------------------------------------------------
 # B3LYP/6-311++G(d,p) empiricaldispersion=gd3bj scf=xqc pop=npa geom=c
 heck
 ----------------------------------------------------------------------

 -----------------------------------
 CID_20038998_JID_340_Energie_kation
 -----------------------------------
 Structure from the checkpoint file:  "JID_340.chk"
 Charge =  1 Multiplicity = 2

 SCF Done:  E(UB3LYP) =  -820.044605142     A.U. after   29 cycles
 Normal termination of Gaussian 16 at Tue Dec  8 10:30:38 2020.
 Gaussian 16:  ES64L-G16RevA.03 25-Dec-2016

 ----------------------------------------------------------------------
 # B3LYP/6-311++G(d,p) empiricaldispersion=gd3bj scf=xqc pop=npa geom=c
 heck
 ----------------------------------------------------------------------

 ----------------------------------
 CID_20038998_JID_340_Energie_anion
 ----------------------------------
 Structure from the checkpoint file:  "JID_340.chk"
 Charge = -1 Multiplicity = 2

                         Standard orientation:
 ---------------------------------------------------------------------
 Center     Atomic      Atomic             Coordinates (Angstroms)
 Number     Number       Type             X           Y           Z
 ---------------------------------------------------------------------
      1          6           0        2.257818    0.453038   -0.988699
      2          6           0        2.980242   -0.672920   -0.743265
      3          8           0        2.592351   -1.237215    0.436466
      4          6           0        1.601706   -0.448256    0.945955
      5          6           0        1.352175    0.609019    0.121010
      6          6           0        0.309384    1.674560    0.297533
      7          6           0       -1.025870    1.303551   -0.369024
      8          6           0       -1.707522    0.147952    0.345359
      9          8           0       -1.566159   -0.109091    1.516191
     10         16           0       -2.814332   -0.803563   -0.735306
     11          1           0        2.352725    1.107650   -1.844643
     12          1           0        3.770897   -1.184586   -1.269976
     13          1           0        1.168784   -0.768994    1.880332
     14          1           0        0.127046    1.853188    1.361091
     15          1           0        0.662637    2.617819   -0.133830
     16          1           0       -1.724273    2.151366   -0.328079
     17          1           0       -0.886732    1.056268   -1.427035
     18          1           0       -3.258898   -1.606907    0.252577
 ---------------------------------------------------------------------

 SCF Done:  E(UB3LYP) =  -820.344079231     A.U. after   33 cycles
 SCF Done:  E(UB3LYP) =  -820.344079231     a.u. after    1 cycles

 The electronic state is 2-A.
 Alpha  occ. eigenvalues --  -88.74056 -19.08317 -18.99215 -10.14647 -10.11533
 Alpha  occ. eigenvalues --  -10.10684 -10.06788 -10.06605 -10.06431 -10.06402
 Alpha  occ. eigenvalues --   -7.82807  -5.79154  -5.78750  -5.78285  -1.00595
 Alpha  occ. eigenvalues --   -0.93227  -0.71385  -0.66949  -0.64687  -0.62762
 Alpha  occ. eigenvalues --   -0.54789  -0.48251  -0.46167  -0.42504  -0.40386
 Alpha  occ. eigenvalues --   -0.35836  -0.35333  -0.33899  -0.33725  -0.32997
 Alpha  occ. eigenvalues --   -0.30250  -0.28611  -0.27880  -0.26647  -0.26159
 Alpha  occ. eigenvalues --   -0.24233  -0.23536  -0.16826  -0.15322  -0.14087
 Alpha  occ. eigenvalues --   -0.12262   0.05103
 Alpha virt. eigenvalues --    0.07048   0.08490   0.08505   0.09650   0.10392
 Alpha virt. eigenvalues --    0.10518   0.11126   0.11682   0.12237   0.13111
 Alpha virt. eigenvalues --    0.14531   0.14720   0.15615   0.15949   0.16408

  Beta  occ. eigenvalues --  -88.74056 -19.08317 -18.99025 -10.14339 -10.11525
  Beta  occ. eigenvalues --  -10.10674 -10.06790 -10.06603 -10.06398 -10.06383
  Beta  occ. eigenvalues --   -7.82805  -5.79156  -5.78756  -5.78280  -1.00590
  Beta  occ. eigenvalues --   -0.92819  -0.71341  -0.66771  -0.64610  -0.62717
  Beta  occ. eigenvalues --   -0.54635  -0.48189  -0.46133  -0.42259  -0.40137
  Beta  occ. eigenvalues --   -0.35711  -0.35172  -0.33840  -0.33433  -0.32767
  Beta  occ. eigenvalues --   -0.30161  -0.28524  -0.27420  -0.26540  -0.25916
  Beta  occ. eigenvalues --   -0.24009  -0.23261  -0.16800  -0.15067  -0.13951
  Beta  occ. eigenvalues --   -0.12227
  Beta virt. eigenvalues --    0.07661   0.08403   0.09173   0.09848   0.10101
  Beta virt. eigenvalues --    0.10597   0.11186   0.11604   0.12063   0.12851
  Beta virt. eigenvalues --    0.13447   0.14569   0.14840   0.15602   0.16008

 Mulliken charges and spin densities:
               1          2
     1  C   -0.303036   0.414145
     2  C    1.046640  -1.401901
     3  O   -0.050169   0.014995
     4  C   -1.252508   0.888141
     5  C    0.154779   0.130943
     6  C    1.400937  -1.813664
     7  C    1.085316  -1.421764
     8  C   -0.302201   0.580807
     9  O   -0.304410   0.066237
    10  S   -0.039902  -0.172446
    11  H   -1.061038   1.245396
    12  H   -0.291364   0.449119
    13  H    0.174518   0.027362
    14  H    0.033390   0.152232
    15  H   -0.499002   0.677261
    16  H   -0.786216   1.002484
    17  H    0.043989   0.056359
    18  H   -0.049722   0.104293
 Sum of Mulliken charges =  -1.00000   1.00000

 Dipole moment (field-independent basis, Debye):
    X=              0.2836    Y=             -5.6396    Z=              2.0520  Tot=              6.0081
 Quadrupole moment (field-independent basis, Debye-Ang):
   XX=           -113.7119   YY=           -105.8313   ZZ=            -93.5775
   XY=              3.2431   XZ=              6.5559   YZ=              4.6009

 Summary of Natural Population Analysis:

                                       Natural Population
                Natural  -----------------------------------------------
    Atom  No    Charge         Core      Valence    Rydberg      Total
 -----------------------------------------------------------------------
      C    1   -0.14521      0.99952     2.13597    0.00972     3.14521
      C    2    0.05500      0.99952     1.93046    0.01501     2.94500
      O    3   -0.23546      0.99987     3.22818    0.00740     4.23546
      C    4    0.06252      0.99943     1.92366    0.01439     2.93748
      C    5   -0.06017      0.99952     2.04904    0.01160     3.06017
      C    6   -0.19931      0.99959     2.18728    0.01244     3.19931
      C    7   -0.23550      0.99956     2.22578    0.01016     3.23550
      C    8    0.26500      0.99969     1.70972    0.02559     2.73500
      O    9   -0.27964      0.99986     3.27145    0.00833     4.27964
      S   10   -0.04493      4.99958     3.03154    0.01381     8.04493
      H   11    0.11170      0.00000     0.38642    0.00188     0.38830
      H   12    0.09307      0.00000     0.40580    0.00113     0.40693
      H   13    0.10055      0.00000     0.39840    0.00105     0.39945
      H   14    0.10991      0.00000     0.38877    0.00132     0.39009
      H   15    0.10879      0.00000     0.38821    0.00300     0.39121
      H   16    0.12492      0.00000     0.36593    0.00915     0.37508
      H   17    0.10494      0.00000     0.39376    0.00129     0.39506
      H   18    0.06381      0.00000     0.43288    0.00331     0.43619
 =======================================================================
   * Total *    0.00000     13.99615    26.85325    0.15060    41.00000

 Normal termination of Gaussian 16 at Tue Dec  8 10:35:09 2020.
