 Gaussian 16, Revision A.03,

 -----------------------------------------------------------
 # opt freq B3LYP/6-31G(d) empiricaldispersion=gd3bj scf=xqc
 -----------------------------------------------------------

 ------------------------------
 CID_67428703_JID_5001_neutraal
 ------------------------------
 Symbolic Z-matrix:
 Charge =  0 Multiplicity = 1

 SCF Done:  E(RB3LYP) =  -657.876480130     A.U. after   14 cycles
 SCF Done:  E(RB3LYP) =  -657.880820727     A.U. after   14 cycles
 SCF Done:  E(RB3LYP) =  -657.881023168     A.U. after   13 cycles
 SCF Done:  E(RB3LYP) =  -657.883251765     A.U. after   13 cycles
 SCF Done:  E(RB3LYP) =  -657.883596609     A.U. after   12 cycles
 SCF Done:  E(RB3LYP) =  -657.884253992     A.U. after   11 cycles
 SCF Done:  E(RB3LYP) =  -657.884481347     A.U. after   12 cycles
 SCF Done:  E(RB3LYP) =  -657.884584817     A.U. after   12 cycles
 SCF Done:  E(RB3LYP) =  -657.884657064     A.U. after   10 cycles
 SCF Done:  E(RB3LYP) =  -657.884779929     A.U. after   11 cycles
 SCF Done:  E(RB3LYP) =  -657.886709063     A.U. after    8 cycles
 SCF Done:  E(RB3LYP) =  -657.886709418     A.U. after    9 cycles
 SCF Done:  E(RB3LYP) =  -657.886709663     A.U. after    8 cycles
 SCF Done:  E(RB3LYP) =  -657.886709867     A.U. after    8 cycles
 SCF Done:  E(RB3LYP) =  -657.886709885     A.U. after    6 cycles
 Optimization completed.
    -- Stationary point found.
 Normal termination of Gaussian 16 at Thu Dec 10 14:59:19 2020.

 --------------------------------------------------------------------
 #N Geom=AllCheck Guess=TCheck SCRF=Check GenChk RB3LYP/6-31G(d) Freq
 --------------------------------------------------------------------

 Structure from the checkpoint file:  "JID_5001.chk"
 ------------------------------
 CID_67428703_JID_5001_neutraal
 ------------------------------
 Charge =  0 Multiplicity = 1

 SCF Done:  E(RB3LYP) =  -657.886709885     A.U. after    1 cycles

  Exact polarizability: 160.354  13.774 134.001 -15.492  -2.711 114.482
 Approx polarizability: 193.570  24.244 209.326 -28.600  -6.149 179.631

                      1                      2                      3
                      A                      A                      A
 Frequencies --     13.1193                29.8021                32.4306
 Red. masses --      4.4632                 2.9041                 4.3212
 Frc consts  --      0.0005                 0.0015                 0.0027
 IR Inten    --      0.1046                 0.9329                 0.5394

                      4                      5                      6
                      A                      A                      A
 Frequencies --     51.0336                64.7250                97.4248
 Red. masses --      3.4386                 3.9574                 2.8423
 Frc consts  --      0.0053                 0.0098                 0.0159
 IR Inten    --      0.2395                 0.8203                 0.3602

                      7                      8                      9
                      A                      A                      A
 Frequencies --    105.7169               146.5500               183.1871
 Red. masses --      3.4333                 3.4939                 2.9979
 Frc consts  --      0.0226                 0.0442                 0.0593
 IR Inten    --      2.6354                 2.0171                 3.8799

                     10                     11                     12
                      A                      A                      A
 Frequencies --    233.4058               247.5569               259.5184
 Red. masses --      1.0383                 3.1103                 1.2752
 Frc consts  --      0.0333                 0.1123                 0.0506
 IR Inten    --      0.0727                 7.2045                 0.2979

                     13                     14                     15
                      A                      A                      A
 Frequencies --    263.3055               334.8254               356.3340
 Red. masses --      2.3474                 2.5943                 2.3544
 Frc consts  --      0.0959                 0.1714                 0.1761
 IR Inten    --      2.1355                 0.2168                 0.7001

                     16                     17                     18
                      A                      A                      A
 Frequencies --    387.5444               410.3074               422.2173
 Red. masses --      2.3985                 2.4128                 2.1843
 Frc consts  --      0.2122                 0.2393                 0.2294
 IR Inten    --     11.9497                 4.4717                 0.0165

                     19                     20                     21
                      A                      A                      A
 Frequencies --    434.3776               454.9250               513.9092
 Red. masses --      2.3178                 2.8028                 4.9848
 Frc consts  --      0.2577                 0.3418                 0.7757
 IR Inten    --      0.1101                 1.7592                 5.0991

                     22                     23                     24
                      A                      A                      A
 Frequencies --    529.0045               584.5128               593.3584
 Red. masses --      4.9864                 6.2717                 3.1058
 Frc consts  --      0.8222                 1.2625                 0.6443
 IR Inten    --      3.1788                 0.8573                26.9536

                     25                     26                     27
                      A                      A                      A
 Frequencies --    614.0450               737.9480               739.6092
 Red. masses --      1.5991                 2.6762                 1.3794
 Frc consts  --      0.3552                 0.8587                 0.4446
 IR Inten    --     17.2456                15.0163                 1.8929

                     28                     29                     30
                      A                      A                      A
 Frequencies --    801.4114               833.1724               851.2532
 Red. masses --      2.1489                 2.7707                 2.4548
 Frc consts  --      0.8132                 1.1332                 1.0481
 IR Inten    --      2.1418                 0.9737                45.8165

                     31                     32                     33
                      A                      A                      A
 Frequencies --    853.9340               890.2864               931.2211
 Red. masses --      2.5262                 3.3076                 2.1131
 Frc consts  --      1.0853                 1.5446                 1.0796
 IR Inten    --     11.2825                 2.0050                 4.6349

                     34                     35                     36
                      A                      A                      A
 Frequencies --    939.7425               944.4219               970.3697
 Red. masses --      2.9834                 1.2054                 2.3218
 Frc consts  --      1.5523                 0.6334                 1.2881
 IR Inten    --     13.4159                 1.6190                 2.5687

                     37                     38                     39
                      A                      A                      A
 Frequencies --    981.3085               984.9798               989.6074
 Red. masses --      1.4878                 1.9114                 1.7270
 Frc consts  --      0.8441                 1.0926                 0.9965
 IR Inten    --      0.9454                 3.6970                12.9297

                     40                     41                     42
                      A                      A                      A
 Frequencies --    998.1518              1001.5938              1017.4393
 Red. masses --      1.6350                 1.3553                 1.5166
 Frc consts  --      0.9598                 0.8011                 0.9250
 IR Inten    --      1.8825                 0.2587                 1.7724

                     43                     44                     45
                      A                      A                      A
 Frequencies --   1023.8068              1058.2823              1111.8362
 Red. masses --      1.7247                 2.8893                 2.2021
 Frc consts  --      1.0651                 1.9065                 1.6038
 IR Inten    --      3.4777                 7.0508                82.2029

                     46                     47                     48
                      A                      A                      A
 Frequencies --   1126.3849              1147.8629              1161.0410
 Red. masses --      2.0339                 1.8623                 2.6257
 Frc consts  --      1.5204                 1.4457                 2.0854
 IR Inten    --     11.3147                24.5566                81.3566

                     49                     50                     51
                      A                      A                      A
 Frequencies --   1196.7798              1198.6562              1210.8430
 Red. masses --      1.5365                 1.4054                 1.7812
 Frc consts  --      1.2966                 1.1897                 1.5387
 IR Inten    --     11.9366                12.9908                 2.6522

                     52                     53                     54
                      A                      A                      A
 Frequencies --   1228.6488              1238.5188              1258.9476
 Red. masses --      1.0967                 1.0732                 1.3653
 Frc consts  --      0.9754                 0.9699                 1.2750
 IR Inten    --      0.0264                 0.3641                 7.5515

                     55                     56                     57
                      A                      A                      A
 Frequencies --   1284.5866              1300.8997              1329.0068
 Red. masses --      1.3037                 1.3474                 1.2742
 Frc consts  --      1.2675                 1.3434                 1.3260
 IR Inten    --     11.8400                12.3960                 5.3942

                     58                     59                     60
                      A                      A                      A
 Frequencies --   1338.7721              1370.6683              1378.7519
 Red. masses --      1.4779                 1.2857                 1.3034
 Frc consts  --      1.5606                 1.4232                 1.4598
 IR Inten    --     12.7414                14.1972                 0.9810

                     61                     62                     63
                      A                      A                      A
 Frequencies --   1383.4583              1405.6352              1413.5390
 Red. masses --      1.4080                 1.6887                 1.6695
 Frc consts  --      1.5877                 1.9659                 1.9654
 IR Inten    --      4.6563                 1.4016                39.6861

                     64                     65                     66
                      A                      A                      A
 Frequencies --   1421.2096              1424.6922              1428.8847
 Red. masses --      2.1023                 1.3199                 1.2733
 Frc consts  --      2.5019                 1.5784                 1.5317
 IR Inten    --      0.9839                10.3197                 7.4262

                     67                     68                     69
                      A                      A                      A
 Frequencies --   1447.5259              1462.8487              1471.1077
 Red. masses --      1.2331                 1.4619                 1.0890
 Frc consts  --      1.5223                 1.8432                 1.3886
 IR Inten    --      1.9734                 2.1260                10.2275

                     70                     71                     72
                      A                      A                      A
 Frequencies --   1494.0274              1499.3924              1519.9320
 Red. masses --      1.0800                 1.0874                 1.0500
 Frc consts  --      1.4203                 1.4404                 1.4292
 IR Inten    --      2.0123                 1.8436                 2.1731

                     73                     74                     75
                      A                      A                      A
 Frequencies --   1522.1794              1524.5867              1535.3981
 Red. masses --      1.0895                 1.0501                 1.0558
 Frc consts  --      1.4874                 1.4381                 1.4664
 IR Inten    --      1.7775                 3.5798                 2.3326

                     76                     77                     78
                      A                      A                      A
 Frequencies --   1544.6155              1726.3477              1772.5656
 Red. masses --      1.0471                 6.7446                 6.5817
 Frc consts  --      1.4718                11.8430                12.1842
 IR Inten    --     10.1770                 4.2218                 0.6450

                     79                     80                     81
                      A                      A                      A
 Frequencies --   1807.0124              2949.1991              2993.9879
 Red. masses --     11.2552                 1.0801                 1.0600
 Frc consts  --     21.6533                 5.5351                 5.5986
 IR Inten    --    113.5107                34.0996                54.0571

                     82                     83                     84
                      A                      A                      A
 Frequencies --   3002.0126              3003.3148              3025.5778
 Red. masses --      1.0680                 1.0992                 1.0650
 Frc consts  --      5.6707                 5.8418                 5.7442
 IR Inten    --     58.9947                26.4659                23.0787

                     85                     86                     87
                      A                      A                      A
 Frequencies --   3035.7420              3041.1698              3051.2734
 Red. masses --      1.0368                 1.0441                 1.0675
 Frc consts  --      5.6293                 5.6895                 5.8555
 IR Inten    --     29.1312                19.4336                15.7581

                     88                     89                     90
                      A                      A                      A
 Frequencies --   3052.6639              3069.0284              3087.8162
 Red. masses --      1.0763                 1.0911                 1.0967
 Frc consts  --      5.9096                 6.0551                 6.1608
 IR Inten    --      7.0474                11.6413                34.0081

                     91                     92                     93
                      A                      A                      A
 Frequencies --   3098.5760              3105.3042              3110.8615
 Red. masses --      1.1005                 1.1004                 1.1012
 Frc consts  --      6.2252                 6.2521                 6.2786
 IR Inten    --     17.0276                44.4455                64.6098

                     94                     95                     96
                      A                      A                      A
 Frequencies --   3112.6045              3137.0482              3147.5798
 Red. masses --      1.1006                 1.0999                 1.0850
 Frc consts  --      6.2825                 6.3776                 6.3334
 IR Inten    --      9.2402                22.6926                11.8012

                     97                     98                     99
                      A                      A                      A
 Frequencies --   3154.9176              3174.5834              3178.6479
 Red. masses --      1.0843                 1.0953                 1.0969
 Frc consts  --      6.3589                 6.5034                 6.5299
 IR Inten    --     10.9693                53.3236                18.9329

 - Thermochemistry -
 -------------------
 Temperature   298.150 Kelvin.  Pressure   1.00000 Atm.
 Atom     1 has atomic number  6 and mass  12.00000

 Molecular mass:   208.14633 amu.
 Principal axes and moments of inertia in atomic units:
                           1         2         3
     Eigenvalues --  1241.608177377.061527834.61820
           X            0.99995   0.01022   0.00030
           Y           -0.01020   0.99894  -0.04493
           Z           -0.00076   0.04492   0.99899
 This molecule is an asymmetric top.
 Rotational symmetry number  1.
 Warning -- assumption of classical behavior for rotation
           may cause significant error
 Rotational temperatures (Kelvin)      0.06976     0.01174     0.01106
 Rotational constants (GHZ):           1.45355     0.24464     0.23035
 Zero-point vibrational energy     808261.4 (Joules/Mol)
                                  193.17910 (Kcal/Mol)
 Warning -- explicit consideration of  25 degrees of freedom as
           vibrations may cause significant error
 Vibrational temperatures:     18.88    42.88    46.66    73.43    93.12
          (Kelvin)            140.17   152.10   210.85   263.57   335.82
                              356.18   373.39   378.84   481.74   512.69
                              557.59   590.34   607.48   624.97   654.54
                              739.40   761.12   840.98   853.71   883.47
                             1061.74  1064.13  1153.05  1198.75  1224.76
                             1228.62  1280.92  1339.82  1352.08  1358.81
                             1396.15  1411.88  1417.17  1423.82  1436.12
                             1441.07  1463.87  1473.03  1522.63  1599.68
                             1620.62  1651.52  1670.48  1721.90  1724.60
                             1742.13  1767.75  1781.95  1811.34  1848.23
                             1871.70  1912.14  1926.19  1972.09  1983.72
                             1990.49  2022.40  2033.77  2044.80  2049.81
                             2055.85  2082.67  2104.71  2116.60  2149.57
                             2157.29  2186.84  2190.08  2193.54  2209.10
                             2222.36  2483.83  2550.33  2599.89  4243.24
                             4307.68  4319.23  4321.10  4353.13  4367.76
                             4375.56  4390.10  4392.10  4415.65  4442.68
                             4458.16  4467.84  4475.84  4478.34  4513.51
                             4528.67  4539.22  4567.52  4573.37

 Zero-point correction=                           0.307850 (Hartree/Particle)
 Thermal correction to Energy=                    0.324040
 Thermal correction to Enthalpy=                  0.324984
 Thermal correction to Gibbs Free Energy=         0.261225
 Sum of electronic and zero-point Energies=           -657.578859
 Sum of electronic and thermal Energies=              -657.562670
 Sum of electronic and thermal Enthalpies=            -657.561725
 Sum of electronic and thermal Free Energies=         -657.625485

                     E (Thermal)             CV                S
                      KCal/Mol        Cal/Mol-Kelvin    Cal/Mol-Kelvin
 Total                  203.338             59.895            134.194
 Electronic               0.000              0.000              0.000
 Translational            0.889              2.981             41.903
 Rotational               0.889              2.981             32.640
 Vibrational            201.561             53.933             59.651
 Vibration     1          0.593              1.987              7.472
 Vibration     2          0.594              1.984              5.843
 Vibration     3          0.594              1.983              5.675
 Vibration     4          0.595              1.977              4.777
 Vibration     5          0.597              1.971              4.308
 Vibration     6          0.603              1.951              3.505
 Vibration     7          0.605              1.945              3.346
 Vibration     8          0.617              1.906              2.717
 Vibration     9          0.631              1.863              2.296
 Vibration    10          0.654              1.790              1.853
 Vibration    11          0.661              1.767              1.748
 Vibration    12          0.668              1.747              1.665
 Vibration    13          0.670              1.740              1.640
 Vibration    14          0.716              1.606              1.237
 Vibration    15          0.732              1.562              1.138
 Vibration    16          0.756              1.497              1.010
 Vibration    17          0.774              1.448              0.926
 Vibration    18          0.785              1.422              0.884
 Vibration    19          0.795              1.395              0.844
 Vibration    20          0.813              1.350              0.781
 Vibration    21          0.869              1.219              0.624
 Vibration    22          0.884              1.186              0.589
 Vibration    23          0.941              1.065              0.477
 Vibration    24          0.951              1.046              0.461
 Vibration    25          0.973              1.002              0.426

 Optimization completed.
    -- Stationary point found.
 Normal termination of Gaussian 16 at Thu Dec 10 15:08:55 2020.

 ----------------------------------------------------------------------
 # B3LYP/6-311++G(d,p) empiricaldispersion=gd3bj scf=xqc pop=npa geom=c
 heck
 ----------------------------------------------------------------------

 --------------------------------------
 CID_67428703_JID_5001_Energie_neutraal
 --------------------------------------
 Structure from the checkpoint file:  "JID_5001.chk"
 Charge =  0 Multiplicity = 1

 SCF Done:  E(RB3LYP) =  -658.074302220     A.U. after   15 cycles
 Normal termination of Gaussian 16 at Thu Dec 10 15:14:10 2020.

 ----------------------------------------------------------------------
 # B3LYP/6-311++G(d,p) empiricaldispersion=gd3bj scf=xqc pop=npa geom=c
 heck
 ----------------------------------------------------------------------

 ------------------------------------
 CID_67428703_JID_5001_Energie_kation
 ------------------------------------
 Structure from the checkpoint file:  "JID_5001.chk"
 Charge =  1 Multiplicity = 2

 SCF Done:  E(UB3LYP) =  -657.775606659     A.U. after   21 cycles
 Normal termination of Gaussian 16 at Thu Dec 10 15:27:02 2020.
 Gaussian 16:  ES64L-G16RevA.03 25-Dec-2016

 ----------------------------------------------------------------------
 # B3LYP/6-311++G(d,p) empiricaldispersion=gd3bj scf=xqc pop=npa geom=c
 heck
 ----------------------------------------------------------------------

 -----------------------------------
 CID_67428703_JID_5001_Energie_anion
 -----------------------------------
 Structure from the checkpoint file:  "JID_5001.chk"
 Charge = -1 Multiplicity = 2

                         Standard orientation:
 ---------------------------------------------------------------------
 Center     Atomic      Atomic             Coordinates (Angstroms)
 Number     Number       Type             X           Y           Z
 ---------------------------------------------------------------------
      1          6           0       -4.496849    0.805150   -0.915658
      2          6           0       -3.907098   -0.065186    0.201179
      3          6           0       -4.703648   -1.364515    0.364905
      4          6           0       -2.428110   -0.373829   -0.059113
      5          6           0       -1.508252    0.827481    0.062898
      6          8           0       -1.849696    1.882846    0.565344
      7          6           0       -0.096693    0.692402   -0.517118
      8          8           0        0.350482   -0.642725   -0.652174
      9          6           0        0.847432   -1.232834    0.539538
     10          6           0        2.352613   -0.974873    0.786447
     11          6           0        2.645685    0.433008    1.240488
     12          6           0        3.507592    1.249842    0.631362
     13          6           0        4.293418    0.863249   -0.590536
     14          6           0        4.022079   -0.547310   -1.035915
     15          6           0        3.165131   -1.363009   -0.421760
     16          1           0       -4.446069    0.285177   -1.881613
     17          1           0       -3.957496    1.752392   -1.003844
     18          1           0       -5.550044    1.033914   -0.716822
     19          1           0       -3.963064    0.503830    1.137601
     20          1           0       -4.657624   -1.971614   -0.548548
     21          1           0       -4.314875   -1.973607    1.189898
     22          1           0       -5.759548   -1.154326    0.570184
     23          1           0       -2.062270   -1.127384    0.655097
     24          1           0       -2.278832   -0.834094   -1.045405
     25          1           0       -0.127887    1.108525   -1.532863
     26          1           0        0.589320    1.312325    0.068880
     27          1           0        0.266811   -0.904574    1.416346
     28          1           0        0.688420   -2.310360    0.420727
     29          1           0        2.605690   -1.657560    1.618838
     30          1           0        2.111422    0.774774    2.126688
     31          1           0        3.668621    2.252606    1.023198
     32          1           0        4.073404    1.564069   -1.412825
     33          1           0        5.370712    0.996573   -0.397907
     34          1           0        4.567617   -0.898087   -1.910069
     35          1           0        3.009621   -2.371002   -0.803224
 ---------------------------------------------------------------------

 SCF Done:  E(UB3LYP) =  -658.062576507     A.U. after   33 cycles
 SCF Done:  E(UB3LYP) =  -658.062576507     a.u. after    1 cycles

 The electronic state is 2-A.
 Alpha  occ. eigenvalues --  -19.03454 -19.01857 -10.16179 -10.12591 -10.12510
 Alpha  occ. eigenvalues --  -10.08959 -10.08467 -10.08345 -10.08024 -10.07863
 Alpha  occ. eigenvalues --  -10.07683 -10.07407 -10.07249 -10.06968 -10.06636
 Alpha  occ. eigenvalues --   -0.95601  -0.94353  -0.74993  -0.72164  -0.68138
 Alpha  occ. eigenvalues --   -0.65378  -0.64515  -0.61267  -0.59517  -0.57047
 Alpha  occ. eigenvalues --   -0.51531  -0.49292  -0.48474  -0.43668  -0.41827
 Alpha  occ. eigenvalues --   -0.40447  -0.40069  -0.38441  -0.37521  -0.37138
 Alpha  occ. eigenvalues --   -0.35217  -0.34923  -0.34288  -0.33611  -0.32549
 Alpha  occ. eigenvalues --   -0.32007  -0.31216  -0.29964  -0.29802  -0.28943
 Alpha  occ. eigenvalues --   -0.28145  -0.26379  -0.25946  -0.24953  -0.24109
 Alpha  occ. eigenvalues --   -0.23763  -0.23345  -0.21823  -0.19862  -0.17125
 Alpha  occ. eigenvalues --   -0.15090  -0.13846   0.04072
 Alpha virt. eigenvalues --    0.05762   0.06027   0.06785   0.07437   0.08007
 Alpha virt. eigenvalues --    0.08274   0.08613   0.08984   0.09539   0.09721
 Alpha virt. eigenvalues --    0.09837   0.10409   0.10892   0.11590   0.11749

  Beta  occ. eigenvalues --  -19.03449 -19.01814 -10.16128 -10.12561 -10.12504
  Beta  occ. eigenvalues --  -10.08948 -10.08462 -10.08323 -10.08011 -10.07853
  Beta  occ. eigenvalues --  -10.07673 -10.07395 -10.07237 -10.06945 -10.06620
  Beta  occ. eigenvalues --   -0.95544  -0.94313  -0.74962  -0.72139  -0.68096
  Beta  occ. eigenvalues --   -0.65347  -0.64452  -0.61223  -0.59477  -0.56991
  Beta  occ. eigenvalues --   -0.51470  -0.49254  -0.48424  -0.43589  -0.41782
  Beta  occ. eigenvalues --   -0.40391  -0.40007  -0.38397  -0.37479  -0.37080
  Beta  occ. eigenvalues --   -0.35165  -0.34882  -0.34251  -0.33575  -0.32500
  Beta  occ. eigenvalues --   -0.31969  -0.31156  -0.29911  -0.29773  -0.28900
  Beta  occ. eigenvalues --   -0.28108  -0.26280  -0.25889  -0.24920  -0.24055
  Beta  occ. eigenvalues --   -0.23733  -0.23303  -0.21789  -0.19832  -0.17101
  Beta  occ. eigenvalues --   -0.15053  -0.13806
  Beta virt. eigenvalues --    0.06019   0.06419   0.06578   0.07566   0.07866
  Beta virt. eigenvalues --    0.08249   0.08631   0.08934   0.09132   0.09833
  Beta virt. eigenvalues --    0.10074   0.10241   0.10679   0.11031   0.11738

 Mulliken charges and spin densities:
               1          2
     1  C    0.076514  -0.755116
     2  C   -1.155632   1.630286
     3  C    0.349838  -0.979535
     4  C    0.419467  -0.741674
     5  C    0.596765  -0.421347
     6  O   -0.233675   0.017983
     7  C   -0.719253   0.023594
     8  O    0.039211   0.004629
     9  C    1.238269  -1.444227
    10  C   -0.486129   0.572909
    11  C    0.119810  -0.571021
    12  C   -0.345709   0.575554
    13  C    1.417528  -2.365530
    14  C   -0.284849   0.416902
    15  C   -0.170730  -0.132524
    16  H   -0.066979   0.189765
    17  H    0.164374   0.009130
    18  H   -0.000749   0.139104
    19  H    0.076238   0.111592
    20  H   -0.060885   0.197821
    21  H   -0.165856   0.299326
    22  H   -0.137468   0.281839
    23  H    0.084082   0.057924
    24  H    0.177487   0.033649
    25  H   -0.269323   0.472148
    26  H    0.258137  -0.033500
    27  H   -0.193216   0.298254
    28  H   -0.369675   0.562706
    29  H   -0.387330   0.587494
    30  H   -0.034206   0.214933
    31  H   -0.177686   0.342966
    32  H   -0.161280   0.314036
    33  H   -0.155466   0.300688
    34  H   -0.296907   0.464380
    35  H   -0.144717   0.324860
 Sum of Mulliken charges =  -1.00000   1.00000

 Dipole moment (field-independent basis, Debye):
    X=             -1.5040    Y=              1.3103    Z=             -0.1297  Tot=              1.9989
 Quadrupole moment (field-independent basis, Debye-Ang):
   XX=           -187.0626   YY=           -137.8309   ZZ=           -128.0101
   XY=             -0.7804   XZ=              3.4613   YZ=              2.5150

 Summary of Natural Population Analysis:

                                       Natural Population
                Natural  -----------------------------------------------
    Atom  No    Charge         Core      Valence    Rydberg      Total
 -----------------------------------------------------------------------
      C    1   -0.28521      0.99965     2.28063    0.00493     3.28521
      C    2   -0.11667      0.99962     2.10746    0.00959     3.11667
      C    3   -0.28113      0.99965     2.27666    0.00482     3.28113
      C    4   -0.24305      0.99956     2.23367    0.00983     3.24305
      C    5    0.29569      0.99967     1.68495    0.01969     2.70431
      O    6   -0.28883      0.99987     3.28219    0.00676     4.28883
      C    7   -0.05740      0.99952     2.04476    0.01312     3.05740
      O    8   -0.29892      0.99988     3.28988    0.00915     4.29892
      C    9   -0.00239      0.99955     1.98810    0.01474     3.00239
      C   10   -0.15552      0.99956     2.14341    0.01255     3.15552
      C   11   -0.09625      0.99952     2.08519    0.01154     3.09625
      C   12   -0.08516      0.99952     2.07615    0.00950     3.08516
      C   13   -0.22284      0.99960     2.21424    0.00900     3.22284
      C   14   -0.08692      0.99952     2.07755    0.00985     3.08692
      C   15   -0.08573      0.99951     2.07408    0.01213     3.08573
      H   16    0.09384      0.00000     0.40510    0.00105     0.40616
      H   17    0.10576      0.00000     0.39319    0.00105     0.39424
      H   18    0.09664      0.00000     0.40242    0.00094     0.40336
      H   19    0.10021      0.00000     0.39808    0.00171     0.39979
      H   20    0.09581      0.00000     0.40297    0.00122     0.40419
      H   21    0.09912      0.00000     0.39963    0.00125     0.40088
      H   22    0.09724      0.00000     0.40167    0.00109     0.40276
      H   23    0.11586      0.00000     0.38269    0.00145     0.38414
      H   24    0.11267      0.00000     0.38590    0.00142     0.38733
      H   25    0.10430      0.00000     0.39422    0.00148     0.39570
      H   26    0.10156      0.00000     0.39662    0.00182     0.39844
      H   27    0.08106      0.00000     0.41692    0.00202     0.41894
      H   28    0.09347      0.00000     0.40469    0.00184     0.40653
      H   29    0.10992      0.00000     0.38790    0.00219     0.39008
      H   30    0.09902      0.00000     0.39987    0.00111     0.40098
      H   31    0.09628      0.00000     0.40274    0.00098     0.40372
      H   32    0.10719      0.00000     0.39108    0.00172     0.39281
      H   33    0.10497      0.00000     0.39364    0.00139     0.39503
      H   34    0.09628      0.00000     0.40262    0.00110     0.40372
      H   35    0.09912      0.00000     0.39970    0.00118     0.40088
 =======================================================================
   * Total *    0.00000     14.99421    41.82057    0.18522    57.00000

 Normal termination of Gaussian 16 at Thu Dec 10 15:48:07 2020.
