 Gaussian 16, Revision A.03,

 -----------------------------------------------------------
 # opt freq B3LYP/6-31G(d) empiricaldispersion=gd3bj scf=xqc
 -----------------------------------------------------------

 -------------------------------
 CID_103830725_JID_9780_neutraal
 -------------------------------
 Symbolic Z-matrix:
 Charge =  0 Multiplicity = 1

 SCF Done:  E(RB3LYP) =  -807.761643688     A.U. after   14 cycles
 SCF Done:  E(RB3LYP) =  -807.767565226     A.U. after   12 cycles
 SCF Done:  E(RB3LYP) =  -807.767973438     A.U. after   11 cycles
 SCF Done:  E(RB3LYP) =  -807.767976774     A.U. after   11 cycles
 SCF Done:  E(RB3LYP) =  -807.768114309     A.U. after   11 cycles
 SCF Done:  E(RB3LYP) =  -807.768155758     A.U. after   10 cycles
 SCF Done:  E(RB3LYP) =  -807.768176964     A.U. after   11 cycles
 SCF Done:  E(RB3LYP) =  -807.768184862     A.U. after    9 cycles
 SCF Done:  E(RB3LYP) =  -807.768192354     A.U. after    9 cycles
 SCF Done:  E(RB3LYP) =  -807.768200807     A.U. after   10 cycles
 SCF Done:  E(RB3LYP) =  -807.768206884     A.U. after    9 cycles
 SCF Done:  E(RB3LYP) =  -807.768207225     A.U. after    9 cycles
 SCF Done:  E(RB3LYP) =  -807.768207330     A.U. after    9 cycles
 SCF Done:  E(RB3LYP) =  -807.768207331     A.U. after    7 cycles
 SCF Done:  E(RB3LYP) =  -807.768207327     A.U. after    6 cycles
 Optimization completed.
    -- Stationary point found.
 Normal termination of Gaussian 16 at Sat Dec 12 10:20:13 2020.

 --------------------------------------------------------------------
 #N Geom=AllCheck Guess=TCheck SCRF=Check GenChk RB3LYP/6-31G(d) Freq
 --------------------------------------------------------------------

 Structure from the checkpoint file:  "JID_9780.chk"
 -------------------------------
 CID_103830725_JID_9780_neutraal
 -------------------------------
 Charge =  0 Multiplicity = 1

 SCF Done:  E(RB3LYP) =  -807.768207327     A.U. after    1 cycles

  Exact polarizability: 214.780 -18.675 153.331   1.830   8.194 157.853
 Approx polarizability: 275.479 -34.576 225.793   1.606  21.256 262.067

                      1                      2                      3
                      A                      A                      A
 Frequencies --      9.2443                18.4179                26.3622
 Red. masses --      2.3213                 4.5480                 4.0332
 Frc consts  --      0.0001                 0.0009                 0.0017
 IR Inten    --      0.2896                 0.5916                 1.0374

                      4                      5                      6
                      A                      A                      A
 Frequencies --     40.4000                59.2585                66.5894
 Red. masses --      2.9815                 4.5257                 4.6344
 Frc consts  --      0.0029                 0.0094                 0.0121
 IR Inten    --      0.5707                 0.7490                 0.5288

                      7                      8                      9
                      A                      A                      A
 Frequencies --     88.3684               124.1859               179.1029
 Red. masses --      4.6501                 3.4109                 3.4154
 Frc consts  --      0.0214                 0.0310                 0.0645
 IR Inten    --      0.4251                 1.1799                 1.5612

                     10                     11                     12
                      A                      A                      A
 Frequencies --    189.6427               210.2121               249.7914
 Red. masses --      2.4891                 2.8048                 2.8166
 Frc consts  --      0.0527                 0.0730                 0.1035
 IR Inten    --      0.3839                 0.1709                 2.4564

                     13                     14                     15
                      A                      A                      A
 Frequencies --    266.4973               296.2214               344.7270
 Red. masses --      3.1239                 4.1444                 2.4007
 Frc consts  --      0.1307                 0.2143                 0.1681
 IR Inten    --      0.4852                 0.3679                 1.1456

                     16                     17                     18
                      A                      A                      A
 Frequencies --    412.1021               428.1788               430.4373
 Red. masses --      3.4616                 2.6442                 2.6833
 Frc consts  --      0.3464                 0.2856                 0.2929
 IR Inten    --      2.5597                 3.5162                 2.7620

                     19                     20                     21
                      A                      A                      A
 Frequencies --    469.7711               497.1673               512.8290
 Red. masses --      2.5316                 2.8497                 3.1050
 Frc consts  --      0.3292                 0.4150                 0.4811
 IR Inten    --      6.7794                 5.0592                 6.0885

                     22                     23                     24
                      A                      A                      A
 Frequencies --    516.6617               552.5277               575.5256
 Red. masses --      3.4991                 2.2058                 1.9627
 Frc consts  --      0.5503                 0.3968                 0.3830
 IR Inten    --      6.6429                 9.6532                32.2230

                     25                     26                     27
                      A                      A                      A
 Frequencies --    597.7344               607.2302               644.8891
 Red. masses --      5.5325                 2.1884                 2.8679
 Frc consts  --      1.1646                 0.4754                 0.7027
 IR Inten    --      0.3651                25.1756                32.7090

                     28                     29                     30
                      A                      A                      A
 Frequencies --    685.5938               722.5465               725.4252
 Red. masses --      2.3898                 4.0873                 3.5918
 Frc consts  --      0.6618                 1.2573                 1.1137
 IR Inten    --      2.1381                21.8796                 4.6003

                     31                     32                     33
                      A                      A                      A
 Frequencies --    761.0893               801.3198               813.6471
 Red. masses --      1.2218                 2.8050                 1.8001
 Frc consts  --      0.4170                 1.0612                 0.7021
 IR Inten    --     40.9793                 2.9569                 5.3358

                     34                     35                     36
                      A                      A                      A
 Frequencies --    820.8281               857.5021               863.5875
 Red. masses --      1.4193                 2.6307                 4.3543
 Frc consts  --      0.5634                 1.1397                 1.9133
 IR Inten    --     46.7092                 0.7544                 0.6078

                     37                     38                     39
                      A                      A                      A
 Frequencies --    870.2693               878.9087               884.9743
 Red. masses --      2.3246                 1.3880                 2.4316
 Frc consts  --      1.0373                 0.6317                 1.1220
 IR Inten    --      1.6628                 0.6399                 6.0984

                     40                     41                     42
                      A                      A                      A
 Frequencies --    901.5941               915.2747               923.0526
 Red. masses --      2.7702                 2.5282                 2.1885
 Frc consts  --      1.3267                 1.2479                 1.0986
 IR Inten    --      2.3493                 1.2838                 3.4882

                     43                     44                     45
                      A                      A                      A
 Frequencies --    932.1731               935.1299               949.8794
 Red. masses --      1.5318                 1.3566                 1.7200
 Frc consts  --      0.7842                 0.6989                 0.9143
 IR Inten    --      0.9103                 0.1061                 6.0251

                     46                     47                     48
                      A                      A                      A
 Frequencies --    981.8107              1016.2577              1025.6860
 Red. masses --      1.2519                 1.8276                 1.5549
 Frc consts  --      0.7110                 1.1121                 0.9638
 IR Inten    --      0.0021                14.4639                 1.3212

                     49                     50                     51
                      A                      A                      A
 Frequencies --   1040.9149              1052.4534              1056.3344
 Red. masses --      2.7967                 1.9808                 2.2049
 Frc consts  --      1.7854                 1.2927                 1.4496
 IR Inten    --      2.0003                 1.7671                 9.9105

                     52                     53                     54
                      A                      A                      A
 Frequencies --   1058.9362              1068.2456              1111.5594
 Red. masses --      1.9811                 1.8103                 2.3728
 Frc consts  --      1.3089                 1.2172                 1.7273
 IR Inten    --     12.5468                13.5116                 0.8463

                     55                     56                     57
                      A                      A                      A
 Frequencies --   1114.3428              1146.0229              1162.9451
 Red. masses --      1.9244                 1.9648                 2.6578
 Frc consts  --      1.4079                 1.5204                 2.1178
 IR Inten    --      4.8628                 5.1561                45.0799

                     58                     59                     60
                      A                      A                      A
 Frequencies --   1165.3760              1192.2610              1193.1777
 Red. masses --      1.2618                 1.1115                 1.5257
 Frc consts  --      1.0096                 0.9309                 1.2797
 IR Inten    --      7.7717                 0.4564                 1.1241

                     61                     62                     63
                      A                      A                      A
 Frequencies --   1197.3427              1223.4154              1229.3417
 Red. masses --      2.4153                 1.4792                 1.3412
 Frc consts  --      2.0401                 1.3045                 1.1942
 IR Inten    --      0.6218                14.5082                 2.1973

                     64                     65                     66
                      A                      A                      A
 Frequencies --   1238.7214              1247.8851              1249.6855
 Red. masses --      1.5378                 1.9981                 1.2763
 Frc consts  --      1.3903                 1.8332                 1.1744
 IR Inten    --     13.5179                 3.9423                 5.9175

                     67                     68                     69
                      A                      A                      A
 Frequencies --   1257.1435              1264.7824              1297.0662
 Red. masses --      1.4043                 1.3667                 1.9381
 Frc consts  --      1.3076                 1.2881                 1.9211
 IR Inten    --      2.6440                 5.9529                 0.1510

                     70                     71                     72
                      A                      A                      A
 Frequencies --   1305.3721              1321.9034              1341.8127
 Red. masses --      1.3065                 1.2988                 1.4870
 Frc consts  --      1.3117                 1.3372                 1.5775
 IR Inten    --      7.9294                 1.3509                 0.9030

                     73                     74                     75
                      A                      A                      A
 Frequencies --   1351.5878              1352.6522              1359.2305
 Red. masses --      1.3512                 1.3253                 1.3614
 Frc consts  --      1.4543                 1.4287                 1.4819
 IR Inten    --     29.8781                 0.0937                 5.1460

                     76                     77                     78
                      A                      A                      A
 Frequencies --   1365.7998              1372.9039              1379.3294
 Red. masses --      1.4623                 1.4385                 2.5468
 Frc consts  --      1.6072                 1.5975                 2.8549
 IR Inten    --     19.0780                14.0943                12.0183

                     79                     80                     81
                      A                      A                      A
 Frequencies --   1382.2893              1414.5758              1420.8789
 Red. masses --      1.6075                 1.6866                 2.4688
 Frc consts  --      1.8097                 1.9884                 2.9366
 IR Inten    --      7.4202                24.5474               122.5926

                     82                     83                     84
                      A                      A                      A
 Frequencies --   1502.1660              1505.5586              1510.3678
 Red. masses --      1.6288                 1.3225                 1.1879
 Frc consts  --      2.1655                 1.7662                 1.5966
 IR Inten    --     73.6282                 1.3067                 0.7912

                     85                     86                     87
                      A                      A                      A
 Frequencies --   1512.6526              1514.1737              1514.9793
 Red. masses --      1.5344                 1.2892                 1.1158
 Frc consts  --      2.0686                 1.7415                 1.5089
 IR Inten    --      1.3061                 6.8819                 2.5937

                     88                     89                     90
                      A                      A                      A
 Frequencies --   1518.0800              1525.5392              1533.8913
 Red. masses --      1.2351                 1.0971                 2.0353
 Frc consts  --      1.6770                 1.5043                 2.8214
 IR Inten    --      0.1215                 5.4048                23.7537

                     91                     92                     93
                      A                      A                      A
 Frequencies --   1541.4545              1542.7314              1647.4296
 Red. masses --      1.0867                 1.1060                 6.0636
 Frc consts  --      1.5213                 1.5510                 9.6960
 IR Inten    --     11.1712                 3.9609                 1.7953

                     94                     95                     96
                      A                      A                      A
 Frequencies --   1670.8851              1784.7287              2939.5874
 Red. masses --      6.4713                 7.9311                 1.0825
 Frc consts  --     10.6448                14.8844                 5.5115
 IR Inten    --      0.1280               415.8467                62.5160

                     97                     98                     99
                      A                      A                      A
 Frequencies --   3015.2463              3024.2376              3027.4433
 Red. masses --      1.0664                 1.0669                 1.0663
 Frc consts  --      5.7126                 5.7494                 5.7581
 IR Inten    --     47.1082                28.6216                40.1434

                    100                    101                    102
                      A                      A                      A
 Frequencies --   3032.2624              3051.4544              3055.2232
 Red. masses --      1.0718                 1.0660                 1.0645
 Frc consts  --      5.8061                 5.8483                 5.8543
 IR Inten    --     22.0713                26.2911                32.7316

                    103                    104                    105
                      A                      A                      A
 Frequencies --   3079.6392              3086.4094              3088.5000
 Red. masses --      1.0958                 1.0965                 1.0652
 Frc consts  --      6.1230                 6.1542                 5.9863
 IR Inten    --     21.7309                34.4146                29.3368

                    106                    107                    108
                      A                      A                      A
 Frequencies --   3092.7988              3102.0877              3106.2770
 Red. masses --      1.0951                 1.0925                 1.0980
 Frc consts  --      6.1716                 6.1941                 6.2419
 IR Inten    --     21.9955                31.0332                42.7077

                    109                    110                    111
                      A                      A                      A
 Frequencies --   3115.1045              3130.6772              3148.6791
 Red. masses --      1.1010                 1.1042                 1.0879
 Frc consts  --      6.2951                 6.3762                 6.3546
 IR Inten    --     26.5317                20.0808                33.5077

                    112                    113                    114
                      A                      A                      A
 Frequencies --   3177.6401              3183.2282              3194.3606
 Red. masses --      1.0855                 1.0888                 1.0927
 Frc consts  --      6.4579                 6.5005                 6.5696
 IR Inten    --      5.5900                 2.1337                35.3422

                    115                    116                    117
                      A                      A                      A
 Frequencies --   3207.6422              3477.8040              3571.0826
 Red. masses --      1.0971                 1.0739                 1.0750
 Frc consts  --      6.6509                 7.6532                 8.0774
 IR Inten    --     33.5371                 0.2595                11.2517

 - Thermochemistry -
 -------------------
 Temperature   298.150 Kelvin.  Pressure   1.00000 Atm.
 Atom     1 has atomic number  6 and mass  12.00000

 Molecular mass:   258.17321 amu.
 Principal axes and moments of inertia in atomic units:
                           1         2         3
     Eigenvalues --  2744.58974********************
           X            0.99985   0.01713   0.00042
           Y           -0.01713   0.99985  -0.00334
           Z           -0.00047   0.00333   0.99999
 This molecule is an asymmetric top.
 Rotational symmetry number  1.
 Warning -- assumption of classical behavior for rotation
           may cause significant error
 Rotational temperatures (Kelvin)      0.03156     0.00835     0.00742
 Rotational constants (GHZ):           0.65756     0.17397     0.15455
 Zero-point vibrational energy     947137.0 (Joules/Mol)
                                  226.37117 (Kcal/Mol)
 Warning -- explicit consideration of  26 degrees of freedom as
           vibrations may cause significant error
 Vibrational temperatures:     13.30    26.50    37.93    58.13    85.26
          (Kelvin)             95.81   127.14   178.68   257.69   272.85
                              302.45   359.39   383.43   426.20   495.99
                              592.92   616.05   619.30   675.90   715.31
                              737.85   743.36   794.96   828.05   860.01
                              873.67   927.85   986.42  1039.58  1043.73
                             1095.04  1152.92  1170.66  1180.99  1233.75
                             1242.51  1252.12  1264.55  1273.28  1297.19
                             1316.88  1328.07  1341.19  1345.44  1366.66
                             1412.61  1462.17  1475.73  1497.64  1514.25
                             1519.83  1523.57  1536.97  1599.29  1603.29
                             1648.87  1673.22  1676.72  1715.40  1716.72
                             1722.71  1760.22  1768.75  1782.24  1795.43
                             1798.02  1808.75  1819.74  1866.19  1878.14
                             1901.92  1930.57  1944.63  1946.16  1955.63
                             1965.08  1975.30  1984.55  1988.81  2035.26
                             2044.33  2161.28  2166.16  2173.08  2176.37
                             2178.56  2179.72  2184.18  2194.91  2206.93
                             2217.81  2219.65  2370.28  2404.03  2567.83
                             4229.41  4338.27  4351.20  4355.82  4362.75
                             4390.36  4395.78  4430.91  4440.65  4443.66
                             4449.85  4463.21  4469.24  4481.94  4504.35
                             4530.25  4571.92  4579.96  4595.97  4615.08
                             5003.78  5137.99

 Zero-point correction=                           0.360745 (Hartree/Particle)
 Thermal correction to Energy=                    0.378165
 Thermal correction to Enthalpy=                  0.379109
 Thermal correction to Gibbs Free Energy=         0.310882
 Sum of electronic and zero-point Energies=           -807.407462
 Sum of electronic and thermal Energies=              -807.390042
 Sum of electronic and thermal Enthalpies=            -807.389098
 Sum of electronic and thermal Free Energies=         -807.457325

                     E (Thermal)             CV                S
                      KCal/Mol        Cal/Mol-Kelvin    Cal/Mol-Kelvin
 Total                  237.302             67.346            143.596
 Electronic               0.000              0.000              0.000
 Translational            0.889              2.981             42.545
 Rotational               0.889              2.981             34.163
 Vibrational            235.525             61.384             66.888
 Vibration     1          0.593              1.987              8.167
 Vibration     2          0.593              1.986              6.798
 Vibration     3          0.593              1.985              6.086
 Vibration     4          0.594              1.981              5.239
 Vibration     5          0.597              1.974              4.482
 Vibration     6          0.598              1.970              4.252
 Vibration     7          0.601              1.957              3.696
 Vibration     8          0.610              1.929              3.034
 Vibration     9          0.629              1.868              2.338
 Vibration    10          0.633              1.854              2.231
 Vibration    11          0.642              1.825              2.042
 Vibration    12          0.663              1.763              1.732
 Vibration    13          0.672              1.735              1.619
 Vibration    14          0.690              1.681              1.438
 Vibration    15          0.723              1.586              1.190
 Vibration    16          0.776              1.444              0.919
 Vibration    17          0.790              1.409              0.865
 Vibration    18          0.792              1.404              0.857
 Vibration    19          0.827              1.317              0.738
 Vibration    20          0.853              1.256              0.665
 Vibration    21          0.868              1.222              0.627
 Vibration    22          0.872              1.213              0.618
 Vibration    23          0.908              1.134              0.539
 Vibration    24          0.932              1.084              0.494
 Vibration    25          0.956              1.037              0.454
 Vibration    26          0.966              1.016              0.437

 Optimization completed on the basis of negligible forces.
    -- Stationary point found.
 Normal termination of Gaussian 16 at Sat Dec 12 10:42:13 2020.

 ----------------------------------------------------------------------
 # B3LYP/6-311++G(d,p) empiricaldispersion=gd3bj scf=xqc pop=npa geom=c
 heck
 ----------------------------------------------------------------------

 ---------------------------------------
 CID_103830725_JID_9780_Energie_neutraal
 ---------------------------------------
 Structure from the checkpoint file:  "JID_9780.chk"
 Charge =  0 Multiplicity = 1

 SCF Done:  E(RB3LYP) =  -807.990933866     A.U. after   15 cycles
 Normal termination of Gaussian 16 at Sat Dec 12 10:52:53 2020.

 ----------------------------------------------------------------------
 # B3LYP/6-311++G(d,p) empiricaldispersion=gd3bj scf=xqc pop=npa geom=c
 heck
 ----------------------------------------------------------------------

 -------------------------------------
 CID_103830725_JID_9780_Energie_kation
 -------------------------------------
 Structure from the checkpoint file:  "JID_9780.chk"
 Charge =  1 Multiplicity = 2

 SCF Done:  E(UB3LYP) =  -807.692796319     A.U. after   30 cycles
 Normal termination of Gaussian 16 at Sat Dec 12 11:23:06 2020.
 Gaussian 16:  ES64L-G16RevA.03 25-Dec-2016

 ----------------------------------------------------------------------
 # B3LYP/6-311++G(d,p) empiricaldispersion=gd3bj scf=xqc pop=npa geom=c
 heck
 ----------------------------------------------------------------------

 ------------------------------------
 CID_103830725_JID_9780_Energie_anion
 ------------------------------------
 Structure from the checkpoint file:  "JID_9780.chk"
 Charge = -1 Multiplicity = 2

                         Standard orientation:
 ---------------------------------------------------------------------
 Center     Atomic      Atomic             Coordinates (Angstroms)
 Number     Number       Type             X           Y           Z
 ---------------------------------------------------------------------
      1          6           0       -3.292847   -2.491848    1.000208
      2          6           0       -4.429119   -2.140039    0.024240
      3          6           0       -3.677816   -1.481586   -1.141873
      4          6           0       -2.631273   -0.577718   -0.452992
      5          6           0       -2.286447   -1.320076    0.877698
      6          7           0       -3.194195    0.753331   -0.233873
      7          6           0       -2.548798    1.954741   -0.165644
      8          8           0       -3.126749    2.978458    0.185897
      9          6           0       -1.068059    1.972225   -0.543319
     10          7           0       -0.281651    1.264443    0.468220
     11          6           0        1.150645    1.251157    0.191853
     12          6           0        1.953706    0.662928    1.375049
     13          6           0        3.164147    0.058058    0.703452
     14          6           0        4.383274   -0.320373    1.257653
     15          6           0        5.361442   -0.879911    0.429618
     16          6           0        5.117533   -1.056600   -0.934825
     17          6           0        3.891936   -0.676095   -1.490386
     18          6           0        2.919102   -0.119346   -0.665534
     19          6           0        1.526494    0.353277   -1.014198
     20          1           0       -2.821561   -3.429727    0.680907
     21          1           0       -3.642877   -2.642158    2.026381
     22          1           0       -5.023977   -3.007258   -0.279724
     23          1           0       -5.120548   -1.421227    0.486474
     24          1           0       -4.313009   -0.920604   -1.834215
     25          1           0       -3.157877   -2.256467   -1.719235
     26          1           0       -1.744366   -0.454375   -1.072941
     27          1           0       -2.378827   -0.616750    1.709245
     28          1           0       -1.248568   -1.663242    0.874889
     29          1           0       -4.147551    0.801265    0.109052
     30          1           0       -0.915389    1.475785   -1.508685
     31          1           0       -0.787708    3.029638   -0.663122
     32          1           0       -0.438633    1.721182    1.366064
     33          1           0        1.539999    2.265638   -0.015712
     34          1           0        2.201213    1.413498    2.134272
     35          1           0        1.347973   -0.114287    1.863864
     36          1           0        4.577696   -0.178768    2.317914
     37          1           0        6.319855   -1.173294    0.848954
     38          1           0        5.887508   -1.486448   -1.569523
     39          1           0        3.706827   -0.809006   -2.553491
     40          1           0        0.826654   -0.494308   -1.059826
     41          1           0        1.474556    0.876063   -1.975143
 ---------------------------------------------------------------------

 SCF Done:  E(UB3LYP) =  -807.980116944     A.U. after   33 cycles
 SCF Done:  E(UB3LYP) =  -807.980116945     a.u. after    1 cycles

 The electronic state is 2-A.
 Alpha  occ. eigenvalues --  -19.00251 -14.24791 -14.22521 -10.18663 -10.12345
 Alpha  occ. eigenvalues --  -10.12200 -10.11934 -10.09278 -10.09185 -10.09047
 Alpha  occ. eigenvalues --  -10.08974 -10.08927 -10.08883 -10.08792 -10.08621
 Alpha  occ. eigenvalues --  -10.08060 -10.08017 -10.07600 -10.07413  -0.95266
 Alpha  occ. eigenvalues --   -0.84486  -0.83387  -0.78469  -0.74021  -0.72293
 Alpha  occ. eigenvalues --   -0.67386  -0.64628  -0.62511  -0.62360  -0.61394
 Alpha  occ. eigenvalues --   -0.60002  -0.51998  -0.50994  -0.49814  -0.49212
 Alpha  occ. eigenvalues --   -0.48839  -0.48628  -0.43630  -0.42092  -0.41022
 Alpha  occ. eigenvalues --   -0.40588  -0.38891  -0.38751  -0.36838  -0.36623
 Alpha  occ. eigenvalues --   -0.35844  -0.34315  -0.33496  -0.33088  -0.32882
 Alpha  occ. eigenvalues --   -0.32373  -0.32004  -0.30601  -0.29939  -0.28257
 Alpha  occ. eigenvalues --   -0.27552  -0.26848  -0.26229  -0.25777  -0.25582
 Alpha  occ. eigenvalues --   -0.25454  -0.25143  -0.25011  -0.24900  -0.23956
 Alpha  occ. eigenvalues --   -0.17357  -0.16787  -0.16577  -0.15650  -0.15439
 Alpha  occ. eigenvalues --    0.03831
 Alpha virt. eigenvalues --    0.05353   0.06044   0.06164   0.06741   0.07168
 Alpha virt. eigenvalues --    0.07497   0.07523   0.08193   0.08397   0.08560
 Alpha virt. eigenvalues --    0.09293   0.09764   0.09959   0.10410   0.10503

  Beta  occ. eigenvalues --  -19.00249 -14.24784 -14.22516 -10.18661 -10.12339
  Beta  occ. eigenvalues --  -10.12194 -10.11924 -10.09275 -10.09183 -10.09036
  Beta  occ. eigenvalues --  -10.08964 -10.08918 -10.08874 -10.08780 -10.08599
  Beta  occ. eigenvalues --  -10.08039 -10.07991 -10.07578 -10.07403  -0.95260
  Beta  occ. eigenvalues --   -0.84474  -0.83374  -0.78456  -0.73992  -0.72273
  Beta  occ. eigenvalues --   -0.67367  -0.64608  -0.62468  -0.62324  -0.61360
  Beta  occ. eigenvalues --   -0.59977  -0.51968  -0.50963  -0.49780  -0.49179
  Beta  occ. eigenvalues --   -0.48802  -0.48571  -0.43608  -0.42054  -0.40996
  Beta  occ. eigenvalues --   -0.40550  -0.38857  -0.38725  -0.36814  -0.36595
  Beta  occ. eigenvalues --   -0.35817  -0.34296  -0.33471  -0.33067  -0.32853
  Beta  occ. eigenvalues --   -0.32348  -0.31981  -0.30580  -0.29922  -0.28241
  Beta  occ. eigenvalues --   -0.27526  -0.26819  -0.26200  -0.25743  -0.25559
  Beta  occ. eigenvalues --   -0.25419  -0.25116  -0.24973  -0.24877  -0.23922
  Beta  occ. eigenvalues --   -0.17350  -0.16776  -0.16565  -0.15636  -0.15425
  Beta virt. eigenvalues --    0.05680   0.06078   0.06209   0.06770   0.07059
  Beta virt. eigenvalues --    0.07435   0.07673   0.07801   0.08572   0.08673
  Beta virt. eigenvalues --    0.08837   0.09344   0.10084   0.10213   0.10578

 Mulliken charges and spin densities:
               1          2
     1  C    0.816776  -1.341095
     2  C   -0.547124   0.350537
     3  C    0.863107  -1.468096
     4  C   -0.373015   0.806760
     5  C   -0.373100  -0.106655
     6  N   -0.067931  -0.021507
     7  C    0.013521  -0.241522
     8  O   -0.316799   0.004352
     9  C   -0.051131  -0.073364
    10  N    0.144918  -0.020960
    11  C   -1.329341   1.179713
    12  C    1.410622  -2.358448
    13  C   -0.939833   1.591535
    14  C   -1.363941   1.035166
    15  C    0.403955  -0.661811
    16  C    1.225826  -1.573735
    17  C   -0.843257   0.726886
    18  C    0.089805  -0.059485
    19  C    1.556260  -1.820439
    20  H   -0.139816   0.301351
    21  H   -0.116828   0.266252
    22  H   -0.233392   0.407833
    23  H    0.004642   0.096199
    24  H   -0.058882   0.224881
    25  H   -0.326353   0.493926
    26  H   -0.090253   0.310135
    27  H    0.056330   0.106017
    28  H    0.063520   0.062177
    29  H    0.349006  -0.063303
    30  H   -0.043599   0.191023
    31  H    0.093342   0.094192
    32  H    0.252515   0.013907
    33  H    0.065384   0.074338
    34  H   -0.009154   0.187548
    35  H    0.060350   0.101541
    36  H   -0.300713   0.458384
    37  H   -0.295489   0.454168
    38  H   -0.144007   0.301322
    39  H   -0.628983   0.805755
    40  H    0.171758  -0.056350
    41  H   -0.048697   0.220871
 Sum of Mulliken charges =  -1.00000   1.00000

 Dipole moment (field-independent basis, Debye):
    X=             -0.4343    Y=              2.8776    Z=              2.0493  Tot=              3.5593
 Quadrupole moment (field-independent basis, Debye-Ang):
   XX=           -221.5434   YY=           -175.6342   ZZ=           -155.4674
   XY=              1.5233   XZ=             -0.3111   YZ=             -3.9740

 Summary of Natural Population Analysis:

                                       Natural Population
                Natural  -----------------------------------------------
    Atom  No    Charge         Core      Valence    Rydberg      Total
 -----------------------------------------------------------------------
      C    1   -0.19470      0.99964     2.18742    0.00764     3.19470
      C    2   -0.19293      0.99964     2.18521    0.00808     3.19293
      C    3   -0.19430      0.99962     2.18593    0.00875     3.19430
      C    4   -0.01391      0.99958     2.00131    0.01302     3.01391
      C    5   -0.19414      0.99962     2.18603    0.00849     3.19414
      N    6   -0.31400      0.99965     2.80470    0.00965     3.81400
      C    7    0.34048      0.99968     1.63807    0.02177     2.65952
      O    8   -0.32745      0.99988     3.32171    0.00586     4.32745
      C    9   -0.12797      0.99959     2.11856    0.00982     3.12797
      N   10   -0.33669      0.99972     2.82661    0.01036     3.83669
      C   11    0.00147      0.99960     1.98725    0.01169     2.99853
      C   12   -0.19729      0.99959     2.19016    0.00754     3.19729
      C   13   -0.01283      0.99947     2.00389    0.00947     3.01283
      C   14   -0.09913      0.99951     2.09032    0.00930     3.09913
      C   15   -0.10141      0.99957     2.09189    0.00995     3.10141
      C   16   -0.10035      0.99957     2.09117    0.00961     3.10035
      C   17   -0.09724      0.99951     2.08774    0.00999     3.09724
      C   18   -0.01161      0.99947     2.00198    0.01016     3.01161
      C   19   -0.20297      0.99959     2.19438    0.00901     3.20297
      H   20    0.09821      0.00000     0.40031    0.00148     0.40179
      H   21    0.09917      0.00000     0.39995    0.00088     0.40083
      H   22    0.10340      0.00000     0.39541    0.00119     0.39660
      H   23    0.08858      0.00000     0.41017    0.00125     0.41142
      H   24    0.10300      0.00000     0.39591    0.00109     0.39700
      H   25    0.10422      0.00000     0.39409    0.00170     0.39578
      H   26    0.10545      0.00000     0.39218    0.00237     0.39455
      H   27    0.10073      0.00000     0.39803    0.00124     0.39927
      H   28    0.10692      0.00000     0.39177    0.00131     0.39308
      H   29    0.19102      0.00000     0.30636    0.00262     0.30898
      H   30    0.10083      0.00000     0.39762    0.00155     0.39917
      H   31    0.09412      0.00000     0.40451    0.00137     0.40588
      H   32    0.17287      0.00000     0.32447    0.00267     0.32713
      H   33    0.08021      0.00000     0.41828    0.00151     0.41979
      H   34    0.10282      0.00000     0.39594    0.00124     0.39718
      H   35    0.10760      0.00000     0.39053    0.00187     0.39240
      H   36    0.10059      0.00000     0.39806    0.00136     0.39941
      H   37    0.10026      0.00000     0.39871    0.00103     0.39974
      H   38    0.10059      0.00000     0.39839    0.00102     0.39941
      H   39    0.10274      0.00000     0.39567    0.00159     0.39726
      H   40    0.10855      0.00000     0.38964    0.00182     0.39145
      H   41    0.10512      0.00000     0.39349    0.00139     0.39488
 =======================================================================
   * Total *    0.00000     18.99248    50.78381    0.22371    70.00000

 Normal termination of Gaussian 16 at Sat Dec 12 11:56:09 2020.
