 Gaussian 16, Revision A.03,

 -----------------------------------------------------------
 # opt freq B3LYP/6-31G(d) empiricaldispersion=gd3bj scf=xqc
 -----------------------------------------------------------

 ------------------------------
 CID_84067132_JID_4138_neutraal
 ------------------------------
 Symbolic Z-matrix:
 Charge =  0 Multiplicity = 1

 SCF Done:  E(RB3LYP) =  -602.345657391     A.U. after   12 cycles
 SCF Done:  E(RB3LYP) =  -602.348447623     A.U. after   11 cycles
 SCF Done:  E(RB3LYP) =  -602.347105554     A.U. after   11 cycles
 SCF Done:  E(RB3LYP) =  -602.348016655     A.U. after   10 cycles
 SCF Done:  E(RB3LYP) =  -602.349417110     A.U. after    8 cycles
 SCF Done:  E(RB3LYP) =  -602.349728339     A.U. after   10 cycles
 SCF Done:  E(RB3LYP) =  -602.349838173     A.U. after   10 cycles
 SCF Done:  E(RB3LYP) =  -602.350105621     A.U. after   10 cycles
 SCF Done:  E(RB3LYP) =  -602.350155641     A.U. after    9 cycles
 SCF Done:  E(RB3LYP) =  -602.350176680     A.U. after    9 cycles
 SCF Done:  E(RB3LYP) =  -602.354022114     A.U. after    9 cycles
 SCF Done:  E(RB3LYP) =  -602.354034950     A.U. after    9 cycles
 SCF Done:  E(RB3LYP) =  -602.354039744     A.U. after    7 cycles
 SCF Done:  E(RB3LYP) =  -602.354041443     A.U. after    7 cycles
 SCF Done:  E(RB3LYP) =  -602.354041713     A.U. after    7 cycles
 SCF Done:  E(RB3LYP) =  -602.354041734     A.U. after    6 cycles
 Optimization completed.
    -- Stationary point found.
 Normal termination of Gaussian 16 at Thu Dec 10 09:37:45 2020.

 --------------------------------------------------------------------
 #N Geom=AllCheck Guess=TCheck SCRF=Check GenChk RB3LYP/6-31G(d) Freq
 --------------------------------------------------------------------

 Structure from the checkpoint file:  "JID_4138.chk"
 ------------------------------
 CID_84067132_JID_4138_neutraal
 ------------------------------
 Charge =  0 Multiplicity = 1

 SCF Done:  E(RB3LYP) =  -602.354041735     A.U. after    1 cycles

  Exact polarizability: 150.663   1.707 127.569  -1.310  -0.100 123.842
 Approx polarizability: 186.799   2.787 186.163  -2.477   0.554 181.763

                      1                      2                      3
                      A                      A                      A
 Frequencies --     51.7636                90.4957                94.2012
 Red. masses --      3.3249                 2.4753                 4.2570
 Frc consts  --      0.0052                 0.0119                 0.0223
 IR Inten    --      0.4955                 0.5932                 0.8776

                      4                      5                      6
                      A                      A                      A
 Frequencies --     99.3231               139.5756               172.6870
 Red. masses --      3.3901                 2.3686                 4.6864
 Frc consts  --      0.0197                 0.0272                 0.0823
 IR Inten    --      1.7192                 1.3152                 4.8500

                      7                      8                      9
                      A                      A                      A
 Frequencies --    184.0984               185.3403               224.3554
 Red. masses --      2.0353                 2.4166                 1.8768
 Frc consts  --      0.0406                 0.0489                 0.0557
 IR Inten    --      3.5884                 0.2319                 1.3397

                     10                     11                     12
                      A                      A                      A
 Frequencies --    248.7078               254.7898               286.7551
 Red. masses --      2.4031                 1.8021                 2.5473
 Frc consts  --      0.0876                 0.0689                 0.1234
 IR Inten    --      0.9976                 1.1901                 1.0466

                     13                     14                     15
                      A                      A                      A
 Frequencies --    303.5191               316.1562               348.3025
 Red. masses --      2.0752                 2.1474                 2.8550
 Frc consts  --      0.1126                 0.1265                 0.2041
 IR Inten    --      2.2918                 0.1649                 0.5920

                     16                     17                     18
                      A                      A                      A
 Frequencies --    364.0494               404.4430               440.0856
 Red. masses --      2.1665                 2.5685                 3.2611
 Frc consts  --      0.1692                 0.2475                 0.3721
 IR Inten    --      1.1360                 1.6416                 0.2025

                     19                     20                     21
                      A                      A                      A
 Frequencies --    462.8561               482.6992               550.6278
 Red. masses --      2.2270                 2.0888                 1.9068
 Frc consts  --      0.2811                 0.2867                 0.3406
 IR Inten    --      6.0378                 4.1601                 4.8893

                     22                     23                     24
                      A                      A                      A
 Frequencies --    572.2971               617.3693               667.2667
 Red. masses --      2.0456                 2.2462                 1.2463
 Frc consts  --      0.3947                 0.5044                 0.3269
 IR Inten    --      3.9696                 2.9693                77.2911

                     25                     26                     27
                      A                      A                      A
 Frequencies --    757.3426               770.9367               786.1359
 Red. masses --      1.9668                 1.8814                 1.4412
 Frc consts  --      0.6647                 0.6588                 0.5248
 IR Inten    --      2.2892                 9.1823                51.2777

                     28                     29                     30
                      A                      A                      A
 Frequencies --    812.4804               821.2189               858.9495
 Red. masses --      1.8075                 1.6134                 1.6583
 Frc consts  --      0.7030                 0.6411                 0.7209
 IR Inten    --      8.0973                 2.3502                24.9086

                     31                     32                     33
                      A                      A                      A
 Frequencies --    868.0478               893.2765               909.9853
 Red. masses --      1.8366                 2.1257                 2.0435
 Frc consts  --      0.8153                 0.9994                 0.9970
 IR Inten    --      2.1102                 2.2338                 1.3353

                     34                     35                     36
                      A                      A                      A
 Frequencies --    914.4236               944.7671               965.2378
 Red. masses --      2.2967                 1.8493                 2.1212
 Frc consts  --      1.1315                 0.9725                 1.1644
 IR Inten    --      5.7767                 7.6232                29.6548

                     37                     38                     39
                      A                      A                      A
 Frequencies --    991.6644              1029.2817              1038.0458
 Red. masses --      1.9784                 2.3653                 2.1528
 Frc consts  --      1.1463                 1.4764                 1.3667
 IR Inten    --     19.6704                 8.2719                 1.6405

                     40                     41                     42
                      A                      A                      A
 Frequencies --   1044.7866              1061.8549              1062.4096
 Red. masses --      1.5702                 1.7979                 1.7486
 Frc consts  --      1.0098                 1.1944                 1.1629
 IR Inten    --      1.4789                 7.1399                 1.8051

                     43                     44                     45
                      A                      A                      A
 Frequencies --   1075.3747              1089.9911              1111.6440
 Red. masses --      2.2044                 2.2467                 2.2639
 Frc consts  --      1.5020                 1.5727                 1.6483
 IR Inten    --     13.8945                21.5459                 3.8568

                     46                     47                     48
                      A                      A                      A
 Frequencies --   1125.8519              1134.4738              1149.8863
 Red. masses --      2.1118                 2.2702                 2.0639
 Frc consts  --      1.5771                 1.7215                 1.6079
 IR Inten    --      8.8346                 6.0170                 4.9505

                     49                     50                     51
                      A                      A                      A
 Frequencies --   1174.5090              1183.6250              1228.4834
 Red. masses --      2.4926                 2.6254                 1.2811
 Frc consts  --      2.0259                 2.1671                 1.1392
 IR Inten    --     12.1589                 7.4378                 2.3910

                     52                     53                     54
                      A                      A                      A
 Frequencies --   1244.6415              1256.0253              1270.8603
 Red. masses --      1.3300                 1.2360                 1.2211
 Frc consts  --      1.2139                 1.1489                 1.1620
 IR Inten    --      2.7744                 5.8547                 1.7415

                     55                     56                     57
                      A                      A                      A
 Frequencies --   1279.9279              1288.7729              1307.8947
 Red. masses --      1.2753                 1.2477                 1.2551
 Frc consts  --      1.2309                 1.2210                 1.2650
 IR Inten    --      5.7444                10.1932                 5.6154

                     58                     59                     60
                      A                      A                      A
 Frequencies --   1314.4253              1338.4784              1347.1147
 Red. masses --      1.2552                 1.1437                 1.1800
 Frc consts  --      1.2777                 1.2072                 1.2617
 IR Inten    --      3.3036                 1.8739                 0.2263

                     61                     62                     63
                      A                      A                      A
 Frequencies --   1353.6876              1369.2294              1378.9196
 Red. masses --      1.2001                 1.2306                 1.2177
 Frc consts  --      1.2957                 1.3594                 1.3642
 IR Inten    --      3.6773                 2.7578                 7.8090

                     64                     65                     66
                      A                      A                      A
 Frequencies --   1385.6269              1398.7459              1401.3499
 Red. masses --      1.3596                 1.3109                 1.3207
 Frc consts  --      1.5380                 1.5111                 1.5281
 IR Inten    --      6.6665                 7.2425                 2.7947

                     67                     68                     69
                      A                      A                      A
 Frequencies --   1414.0626              1416.9060              1422.7542
 Red. masses --      1.3731                 1.3676                 1.3595
 Frc consts  --      1.6177                 1.6177                 1.6214
 IR Inten    --      2.3107                 4.6362                16.6768

                     70                     71                     72
                      A                      A                      A
 Frequencies --   1430.9323              1438.7517              1441.3499
 Red. masses --      1.2793                 1.4056                 1.2387
 Frc consts  --      1.5434                 1.7143                 1.5162
 IR Inten    --     13.2565                 4.4704                 2.4744

                     73                     74                     75
                      A                      A                      A
 Frequencies --   1462.0048              1478.5744              1495.5086
 Red. masses --      1.2187                 1.2761                 1.2221
 Frc consts  --      1.5347                 1.6437                 1.6104
 IR Inten    --      0.3993                14.6499                 2.3486

                     76                     77                     78
                      A                      A                      A
 Frequencies --   1505.5596              1509.8055              1517.6254
 Red. masses --      1.0829                 1.0864                 1.0900
 Frc consts  --      1.4462                 1.4591                 1.4791
 IR Inten    --      2.6241                 1.3952                 1.0308

                     79                     80                     81
                      A                      A                      A
 Frequencies --   1524.0974              1526.4657              1527.8365
 Red. masses --      1.1011                 1.0866                 1.0702
 Frc consts  --      1.5070                 1.4917                 1.4719
 IR Inten    --      6.5107                 3.9084                 0.0872

                     82                     83                     84
                      A                      A                      A
 Frequencies --   1531.2574              1533.9584              1543.5843
 Red. masses --      1.0603                 1.0839                 1.0722
 Frc consts  --      1.4648                 1.5027                 1.5052
 IR Inten    --      7.6477                 2.6159                 1.4663

                     85                     86                     87
                      A                      A                      A
 Frequencies --   1546.4554              1549.9499              2971.8848
 Red. masses --      1.0853                 1.0864                 1.0729
 Frc consts  --      1.5292                 1.5377                 5.5829
 IR Inten    --      1.2344                 4.4720                87.2938

                     88                     89                     90
                      A                      A                      A
 Frequencies --   2980.4046              2990.4178              3006.5479
 Red. masses --      1.0710                 1.0826                 1.0627
 Frc consts  --      5.6050                 5.7041                 5.6597
 IR Inten    --     65.5966                23.4260                56.9647

                     91                     92                     93
                      A                      A                      A
 Frequencies --   3021.4400              3030.5758              3035.9515
 Red. masses --      1.0661                 1.0637                 1.0608
 Frc consts  --      5.7341                 5.7560                 5.7608
 IR Inten    --     27.4825                16.6313                44.5775

                     94                     95                     96
                      A                      A                      A
 Frequencies --   3038.3108              3044.0658              3045.7877
 Red. masses --      1.0629                 1.0851                 1.0551
 Frc consts  --      5.7808                 5.9239                 5.7669
 IR Inten    --     24.3473                46.4580                27.4385

                     97                     98                     99
                      A                      A                      A
 Frequencies --   3048.9423              3050.9221              3064.3918
 Red. masses --      1.0660                 1.0676                 1.0895
 Frc consts  --      5.8384                 5.8552                 6.0282
 IR Inten    --     34.9286                35.4175                18.9464

                    100                    101                    102
                      A                      A                      A
 Frequencies --   3067.6406              3068.4265              3073.5526
 Red. masses --      1.0987                 1.0958                 1.0993
 Frc consts  --      6.0919                 6.0785                 6.1188
 IR Inten    --     95.1103                34.9947                28.3211

                    103                    104                    105
                      A                      A                      A
 Frequencies --   3079.2540              3084.9328              3087.7726
 Red. masses --      1.0928                 1.1006                 1.1017
 Frc consts  --      6.1050                 6.1714                 6.1890
 IR Inten    --     62.3294                46.7385                57.5502

                    106                    107                    108
                      A                      A                      A
 Frequencies --   3108.1828              3118.6672              3123.4191
 Red. masses --      1.1016                 1.0926                 1.1005
 Frc consts  --      6.2703                 6.2608                 6.3253
 IR Inten    --     42.9382                25.5801                46.1668

                    109                    110                    111
                      A                      A                      A
 Frequencies --   3277.8315              3505.7261              3514.2719
 Red. masses --      1.0775                 1.0752                 1.0700
 Frc consts  --      6.8211                 7.7856                 7.7858
 IR Inten    --      0.6277                 8.2422               376.3603

 - Thermochemistry -
 -------------------
 Temperature   298.150 Kelvin.  Pressure   1.00000 Atm.
 Atom     1 has atomic number  6 and mass  12.00000

 Molecular mass:   199.19361 amu.
 Principal axes and moments of inertia in atomic units:
                           1         2         3
     Eigenvalues --  1973.419963654.099064193.28529
           X            0.99999   0.00043  -0.00363
           Y           -0.00043   1.00000   0.00024
           Z            0.00363  -0.00024   0.99999
 This molecule is an asymmetric top.
 Rotational symmetry number  1.
 Warning -- assumption of classical behavior for rotation
           may cause significant error
 Rotational temperatures (Kelvin)      0.04389     0.02370     0.02066
 Rotational constants (GHZ):           0.91452     0.49389     0.43039
 Zero-point vibrational energy     966336.9 (Joules/Mol)
                                  230.96006 (Kcal/Mol)
 Warning -- explicit consideration of  23 degrees of freedom as
           vibrations may cause significant error
 Vibrational temperatures:     74.48   130.20   135.53   142.90   200.82
          (Kelvin)            248.46   264.88   266.66   322.80   357.84
                              366.59   412.58   436.70   454.88   501.13
                              523.79   581.90   633.19   665.95   694.50
                              792.23   823.41   888.26   960.05  1089.65
                             1109.21  1131.07  1168.98  1181.55  1235.84
                             1248.93  1285.23  1309.27  1315.65  1359.31
                             1388.76  1426.78  1480.91  1493.52  1503.21
                             1527.77  1528.57  1547.22  1568.25  1599.41
                             1619.85  1632.25  1654.43  1689.86  1702.97
                             1767.51  1790.76  1807.14  1828.48  1841.53
                             1854.26  1881.77  1891.16  1925.77  1938.20
                             1947.65  1970.02  1983.96  1993.61  2012.48
                             2016.23  2034.52  2038.61  2047.03  2058.79
                             2070.04  2073.78  2103.50  2127.34  2151.70
                             2166.16  2172.27  2183.52  2192.84  2196.24
                             2198.22  2203.14  2207.02  2220.87  2225.00
                             2230.03  4275.88  4288.14  4302.54  4325.75
                             4347.18  4360.32  4368.06  4371.45  4379.73
                             4382.21  4386.75  4389.60  4408.98  4413.65
                             4414.78  4422.16  4430.36  4438.53  4442.62
                             4471.98  4487.07  4493.90  4716.07  5043.96
                             5056.25

 Zero-point correction=                           0.368058 (Hartree/Particle)
 Thermal correction to Energy=                    0.382977
 Thermal correction to Enthalpy=                  0.383921
 Thermal correction to Gibbs Free Energy=         0.327240
 Sum of electronic and zero-point Energies=           -601.985983
 Sum of electronic and thermal Energies=              -601.971064
 Sum of electronic and thermal Enthalpies=            -601.970120
 Sum of electronic and thermal Free Energies=         -602.026802

                     E (Thermal)             CV                S
                      KCal/Mol        Cal/Mol-Kelvin    Cal/Mol-Kelvin
 Total                  240.322             59.008            119.296
 Electronic               0.000              0.000              0.000
 Translational            0.889              2.981             41.772
 Rotational               0.889              2.981             31.781
 Vibrational            238.544             53.046             45.743
 Vibration     1          0.596              1.977              4.749
 Vibration     2          0.602              1.956              3.649
 Vibration     3          0.603              1.953              3.571
 Vibration     4          0.604              1.950              3.468
 Vibration     5          0.615              1.914              2.810
 Vibration     6          0.626              1.876              2.406
 Vibration     7          0.631              1.862              2.286
 Vibration     8          0.631              1.860              2.274
 Vibration     9          0.649              1.804              1.924
 Vibration    10          0.662              1.765              1.740
 Vibration    11          0.665              1.755              1.697
 Vibration    12          0.684              1.698              1.493
 Vibration    13          0.695              1.667              1.397
 Vibration    14          0.703              1.643              1.330
 Vibration    15          0.726              1.579              1.174
 Vibration    16          0.738              1.546              1.105
 Vibration    17          0.770              1.461              0.946
 Vibration    18          0.800              1.383              0.826
 Vibration    19          0.820              1.332              0.758
 Vibration    20          0.839              1.288              0.703
 Vibration    21          0.906              1.138              0.543
 Vibration    22          0.928              1.091              0.500
 Vibration    23          0.977              0.995              0.421

 Optimization completed.
    -- Stationary point found.
 Normal termination of Gaussian 16 at Thu Dec 10 09:51:07 2020.

 ----------------------------------------------------------------------
 # B3LYP/6-311++G(d,p) empiricaldispersion=gd3bj scf=xqc pop=npa geom=c
 heck
 ----------------------------------------------------------------------

 --------------------------------------
 CID_84067132_JID_4138_Energie_neutraal
 --------------------------------------
 Structure from the checkpoint file:  "JID_4138.chk"
 Charge =  0 Multiplicity = 1

 SCF Done:  E(RB3LYP) =  -602.532907333     A.U. after   13 cycles
 Normal termination of Gaussian 16 at Thu Dec 10 09:56:30 2020.

 ----------------------------------------------------------------------
 # B3LYP/6-311++G(d,p) empiricaldispersion=gd3bj scf=xqc pop=npa geom=c
 heck
 ----------------------------------------------------------------------

 ------------------------------------
 CID_84067132_JID_4138_Energie_kation
 ------------------------------------
 Structure from the checkpoint file:  "JID_4138.chk"
 Charge =  1 Multiplicity = 2

 SCF Done:  E(UB3LYP) =  -602.221600494     A.U. after   21 cycles
 Normal termination of Gaussian 16 at Thu Dec 10 10:08:08 2020.
 Gaussian 16:  ES64L-G16RevA.03 25-Dec-2016

 ----------------------------------------------------------------------
 # B3LYP/6-311++G(d,p) empiricaldispersion=gd3bj scf=xqc pop=npa geom=c
 heck
 ----------------------------------------------------------------------

 -----------------------------------
 CID_84067132_JID_4138_Energie_anion
 -----------------------------------
 Structure from the checkpoint file:  "JID_4138.chk"
 Charge = -1 Multiplicity = 2

                         Standard orientation:
 ---------------------------------------------------------------------
 Center     Atomic      Atomic             Coordinates (Angstroms)
 Number     Number       Type             X           Y           Z
 ---------------------------------------------------------------------
      1          6           0        3.745125   -1.261173   -0.280698
      2          6           0        2.254992   -1.196486   -0.631813
      3          6           0        1.362224   -0.787579    0.551162
      4          6           0        1.767045    0.581159    1.158352
      5          6           0        1.942450    1.772566    0.189924
      6          6           0        0.779888    2.168692   -0.733953
      7          8           0       -0.411538    2.482281   -0.018045
      8          6           0       -0.163838   -0.717633    0.253090
      9          6           0       -1.008709   -1.038004    1.505249
     10          6           0       -2.311407   -0.226355    1.558931
     11          6           0       -3.172036   -0.254346    0.288942
     12          7           0       -2.485597    0.351668   -0.871728
     13          6           0       -1.782251   -0.616962   -1.731889
     14          6           0       -0.732424   -1.461510   -0.972586
     15          1           0        4.147890   -0.278311   -0.015716
     16          1           0        4.330860   -1.642386   -1.124686
     17          1           0        3.916101   -1.928882    0.572817
     18          1           0        2.107922   -0.510346   -1.477063
     19          1           0        1.944200   -2.186489   -0.987395
     20          1           0        1.525250   -1.546832    1.332365
     21          1           0        1.014749    0.860049    1.905552
     22          1           0        2.709629    0.473738    1.709624
     23          1           0        2.187340    2.649075    0.803954
     24          1           0        2.815725    1.604330   -0.455916
     25          1           0        1.092740    3.058168   -1.301456
     26          1           0        0.597347    1.378378   -1.474510
     27          1           0       -1.137150    1.905470   -0.340134
     28          1           0       -0.350719    0.328689    0.069531
     29          1           0       -0.435469   -0.808535    2.411937
     30          1           0       -1.221905   -2.116233    1.542540
     31          1           0       -2.927694   -0.571026    2.400140
     32          1           0       -2.055902    0.822306    1.755705
     33          1           0       -3.498696   -1.284149    0.064073
     34          1           0       -4.079868    0.329152    0.478882
     35          1           0       -3.173212    0.832117   -1.447096
     36          1           0       -1.284706   -0.030299   -2.513529
     37          1           0       -2.487729   -1.296396   -2.240422
     38          1           0        0.047461   -1.722712   -1.692133
     39          1           0       -1.179029   -2.413009   -0.658874
 ---------------------------------------------------------------------

 SCF Done:  E(UB3LYP) =  -602.519069548     A.U. after   29 cycles

 The electronic state is 2-A.
 Alpha  occ. eigenvalues --  -19.00605 -14.20409 -10.11327 -10.09082 -10.09057
 Alpha  occ. eigenvalues --  -10.07226 -10.06975 -10.06772 -10.06645 -10.06562
 Alpha  occ. eigenvalues --  -10.06353 -10.06322 -10.06175 -10.05963  -0.90733
 Alpha  occ. eigenvalues --   -0.80845  -0.73064  -0.68615  -0.66768  -0.66127
 Alpha  occ. eigenvalues --   -0.61392  -0.57193  -0.56610  -0.53636  -0.50357
 Alpha  occ. eigenvalues --   -0.47398  -0.46132  -0.44466  -0.41370  -0.40695
 Alpha  occ. eigenvalues --   -0.37533  -0.37136  -0.36105  -0.35166  -0.34422
 Alpha  occ. eigenvalues --   -0.32672  -0.32030  -0.31674  -0.30717  -0.30444
 Alpha  occ. eigenvalues --   -0.29483  -0.28336  -0.27523  -0.26325  -0.25602
 Alpha  occ. eigenvalues --   -0.25061  -0.24126  -0.23648  -0.23071  -0.22794
 Alpha  occ. eigenvalues --   -0.22330  -0.20451  -0.20147  -0.19884  -0.16477
 Alpha  occ. eigenvalues --   -0.13708   0.04331
 Alpha virt. eigenvalues --    0.05983   0.06969   0.07400   0.08215   0.08395
 Alpha virt. eigenvalues --    0.08910   0.09444   0.09833   0.10724   0.11024
 Alpha virt. eigenvalues --    0.11321   0.11561   0.11925   0.12658   0.12975

  Beta  occ. eigenvalues --  -19.00603 -14.20383 -10.11318 -10.09052 -10.09027
  Beta  occ. eigenvalues --  -10.07221 -10.06968 -10.06757 -10.06641 -10.06539
  Beta  occ. eigenvalues --  -10.06347 -10.06315 -10.06164 -10.05962  -0.90728
  Beta  occ. eigenvalues --   -0.80796  -0.73048  -0.68594  -0.66737  -0.66099
  Beta  occ. eigenvalues --   -0.61363  -0.57153  -0.56574  -0.53587  -0.50313
  Beta  occ. eigenvalues --   -0.47368  -0.46066  -0.44431  -0.41356  -0.40611
  Beta  occ. eigenvalues --   -0.37509  -0.37112  -0.36082  -0.35140  -0.34389
  Beta  occ. eigenvalues --   -0.32645  -0.31999  -0.31632  -0.30697  -0.30417
  Beta  occ. eigenvalues --   -0.29455  -0.28315  -0.27494  -0.26283  -0.25579
  Beta  occ. eigenvalues --   -0.25037  -0.24102  -0.23615  -0.23047  -0.22762
  Beta  occ. eigenvalues --   -0.22313  -0.20433  -0.20119  -0.19866  -0.16467
  Beta  occ. eigenvalues --   -0.13660
  Beta virt. eigenvalues --    0.06282   0.07089   0.07505   0.07748   0.08769
  Beta virt. eigenvalues --    0.08974   0.09310   0.09725   0.10146   0.11170
  Beta virt. eigenvalues --    0.11393   0.11678   0.11913   0.12093   0.12797

 Mulliken charges and spin densities:
               1          2
     1  C    0.676039  -1.429661
     2  C   -0.515002   0.303370
     3  C   -0.373195   0.610849
     4  C    0.097167  -0.273786
     5  C   -0.102042  -0.466421
     6  C   -0.644350   0.390131
     7  O   -0.243353   0.008737
     8  C    1.009165  -0.036761
     9  C    0.301193  -1.117651
    10  C   -1.288451   1.155394
    11  C    1.407729  -1.830427
    12  N   -0.763817   0.367339
    13  C    1.268424  -1.704087
    14  C   -1.335160   0.903364
    15  H    0.059268   0.066429
    16  H   -0.300216   0.440198
    17  H   -0.057866   0.193301
    18  H   -0.052274   0.210559
    19  H   -0.113717   0.255638
    20  H    0.109691   0.106505
    21  H    0.058071   0.111178
    22  H    0.036158   0.138836
    23  H    0.223168  -0.059402
    24  H   -0.087246   0.203753
    25  H   -0.203429   0.376561
    26  H    0.250415  -0.092800
    27  H    0.293310   0.069807
    28  H    1.158132  -1.637517
    29  H    0.144537  -0.026623
    30  H   -0.029370   0.174190
    31  H   -0.336232   0.502913
    32  H    0.202106  -0.031539
    33  H    0.029987   0.095522
    34  H   -0.615670   0.791899
    35  H   -0.087202   0.390168
    36  H   -0.393034   0.553835
    37  H   -0.586154   0.763153
    38  H   -0.045830   0.200909
    39  H   -0.150950   0.322139
 Sum of Mulliken charges =  -1.00000   1.00000

 Dipole moment (field-independent basis, Debye):
    X=              4.3045    Y=              0.5910    Z=              3.6911  Tot=              5.7011
 Quadrupole moment (field-independent basis, Debye-Ang):
   XX=           -171.3120   YY=           -135.4302   ZZ=           -133.3365
   XY=              5.2319   XZ=             -2.3014   YZ=             -2.6449

 Summary of Natural Population Analysis:

                                       Natural Population
                Natural  -----------------------------------------------
    Atom  No    Charge         Core      Valence    Rydberg      Total
 -----------------------------------------------------------------------
      C    1   -0.28436      0.99966     2.27959    0.00511     3.28436
      C    2   -0.19293      0.99962     2.18459    0.00872     3.19293
      C    3   -0.09930      0.99958     2.08936    0.01036     3.09930
      C    4   -0.19160      0.99961     2.18333    0.00866     3.19160
      C    5   -0.20100      0.99962     2.19326    0.00812     3.20100
      C    6   -0.01693      0.99959     2.00468    0.01266     3.01693
      O    7   -0.39044      0.99990     3.38434    0.00620     4.39044
      C    8   -0.14004      0.99954     2.12806    0.01244     3.14004
      C    9   -0.17999      0.99961     2.17184    0.00855     3.17999
      C   10   -0.19257      0.99961     2.18438    0.00858     3.19257
      C   11   -0.08766      0.99961     2.07643    0.01162     3.08766
      N   12   -0.36064      0.99974     2.84537    0.01553     3.86064
      C   13   -0.08063      0.99961     2.06914    0.01188     3.08063
      C   14   -0.19494      0.99960     2.18660    0.00873     3.19494
      H   15    0.09521      0.00000     0.40388    0.00091     0.40479
      H   16    0.09944      0.00000     0.39973    0.00084     0.40056
      H   17    0.09477      0.00000     0.40436    0.00088     0.40523
      H   18    0.09528      0.00000     0.40335    0.00137     0.40472
      H   19    0.09844      0.00000     0.40033    0.00123     0.40156
      H   20    0.09205      0.00000     0.40646    0.00149     0.40795
      H   21    0.10115      0.00000     0.39768    0.00116     0.39885
      H   22    0.09687      0.00000     0.40232    0.00081     0.40313
      H   23    0.09680      0.00000     0.40224    0.00096     0.40320
      H   24    0.09579      0.00000     0.40302    0.00118     0.40421
      H   25    0.07966      0.00000     0.41928    0.00106     0.42034
      H   26    0.07995      0.00000     0.41843    0.00163     0.42005
      H   27    0.24793      0.00000     0.24869    0.00338     0.25207
      H   28    0.11132      0.00000     0.38284    0.00583     0.38868
      H   29    0.09639      0.00000     0.40267    0.00094     0.40361
      H   30    0.09242      0.00000     0.40638    0.00120     0.40758
      H   31    0.09632      0.00000     0.40282    0.00086     0.40368
      H   32    0.09887      0.00000     0.39957    0.00156     0.40113
      H   33    0.08318      0.00000     0.41503    0.00178     0.41682
      H   34    0.09832      0.00000     0.39983    0.00185     0.40168
      H   35    0.18554      0.00000     0.30965    0.00481     0.31446
      H   36    0.09197      0.00000     0.40625    0.00178     0.40803
      H   37    0.08573      0.00000     0.41230    0.00197     0.41427
      H   38    0.10523      0.00000     0.39313    0.00164     0.39477
      H   39    0.09436      0.00000     0.40412    0.00152     0.40564
 =======================================================================
   * Total *   -0.00000     13.99490    41.82532    0.17978    56.00000

 Normal termination of Gaussian 16 at Thu Dec 10 10:26:06 2020.
