 Gaussian 16, Revision A.03,

 -----------------------------------------------------------
 # opt freq B3LYP/6-31G(d) empiricaldispersion=gd3bj scf=xqc
 -----------------------------------------------------------

 ------------------------------
 CID_43187973_JID_6963_neutraal
 ------------------------------
 Symbolic Z-matrix:
 Charge =  0 Multiplicity = 1

 SCF Done:  E(RB3LYP) =  -758.971520565     A.U. after   15 cycles
 SCF Done:  E(RB3LYP) =  -758.980937664     A.U. after   13 cycles
 SCF Done:  E(RB3LYP) =  -758.979490195     A.U. after   14 cycles
 SCF Done:  E(RB3LYP) =  -758.981595837     A.U. after   12 cycles
 SCF Done:  E(RB3LYP) =  -758.982194285     A.U. after   13 cycles
 SCF Done:  E(RB3LYP) =  -758.982764025     A.U. after   12 cycles
 SCF Done:  E(RB3LYP) =  -758.982772044     A.U. after   12 cycles
 SCF Done:  E(RB3LYP) =  -758.982807731     A.U. after   11 cycles
 SCF Done:  E(RB3LYP) =  -758.982826502     A.U. after   10 cycles
 SCF Done:  E(RB3LYP) =  -758.982826801     A.U. after    8 cycles
 SCF Done:  E(RB3LYP) =  -758.982826933     A.U. after    7 cycles
 Optimization completed.
    -- Stationary point found.
 Normal termination of Gaussian 16 at Fri Dec 11 01:16:11 2020.

 --------------------------------------------------------------------
 #N Geom=AllCheck Guess=TCheck SCRF=Check GenChk RB3LYP/6-31G(d) Freq
 --------------------------------------------------------------------

 Structure from the checkpoint file:  "JID_6963.chk"
 ------------------------------
 CID_43187973_JID_6963_neutraal
 ------------------------------
 Charge =  0 Multiplicity = 1

 SCF Done:  E(RB3LYP) =  -758.982826933     A.U. after    1 cycles

  Exact polarizability: 183.866  -8.729 134.255  21.783  13.327  87.251
 Approx polarizability: 265.109 -12.479 228.664  47.755  35.663 142.113

                      1                      2                      3
                      A                      A                      A
 Frequencies --     33.0802                42.3694                76.8166
 Red. masses --      6.1421                 4.9837                 3.2495
 Frc consts  --      0.0040                 0.0053                 0.0113
 IR Inten    --      0.0770                 0.6761                 1.1158

                      4                      5                      6
                      A                      A                      A
 Frequencies --    122.9206               156.5431               167.8916
 Red. masses --      3.2801                 4.2053                 3.5217
 Frc consts  --      0.0292                 0.0607                 0.0585
 IR Inten    --      0.6038                 2.0387                 0.1508

                      7                      8                      9
                      A                      A                      A
 Frequencies --    177.8229               210.2439               236.1943
 Red. masses --      3.0045                 2.2141                 2.5861
 Frc consts  --      0.0560                 0.0577                 0.0850
 IR Inten    --      0.1852                 1.6135                 2.6789

                     10                     11                     12
                      A                      A                      A
 Frequencies --    258.4981               301.3076               313.1021
 Red. masses --      3.1735                 4.3140                 5.6446
 Frc consts  --      0.1249                 0.2308                 0.3260
 IR Inten    --      0.3023                 4.6224                19.4443

                     13                     14                     15
                      A                      A                      A
 Frequencies --    356.2340               361.7196               408.3805
 Red. masses --      5.1293                 2.8748                 2.2614
 Frc consts  --      0.3835                 0.2216                 0.2222
 IR Inten    --      1.6214                 3.6675                 3.6888

                     16                     17                     18
                      A                      A                      A
 Frequencies --    428.2011               488.6301               513.8378
 Red. masses --      3.1625                 4.0936                 3.2764
 Frc consts  --      0.3416                 0.5759                 0.5097
 IR Inten    --      6.6825                 1.2849                 2.5942

                     19                     20                     21
                      A                      A                      A
 Frequencies --    570.1266               582.1808               587.2339
 Red. masses --      3.8801                 4.2597                 1.2379
 Frc consts  --      0.7431                 0.8506                 0.2515
 IR Inten    --      3.5182                 9.7162               101.0084

                     22                     23                     24
                      A                      A                      A
 Frequencies --    609.5084               637.2297               688.6256
 Red. masses --      4.9328                 3.9865                 7.1161
 Frc consts  --      1.0797                 0.9538                 1.9882
 IR Inten    --     17.5426                 3.8180                11.2064

                     25                     26                     27
                      A                      A                      A
 Frequencies --    729.5438               752.4244               761.5264
 Red. masses --      4.0803                 6.3435                 1.3510
 Frc consts  --      1.2795                 2.1160                 0.4616
 IR Inten    --      3.3847                 5.6302                48.2108

                     28                     29                     30
                      A                      A                      A
 Frequencies --    778.3744               796.0533               842.4153
 Red. masses --      1.8888                 4.0563                 2.3920
 Frc consts  --      0.6742                 1.5145                 1.0002
 IR Inten    --     63.7224                27.6584                25.6856

                     31                     32                     33
                      A                      A                      A
 Frequencies --    847.0131               908.1375               926.1708
 Red. masses --      1.4565                 4.7203                 2.5815
 Frc consts  --      0.6157                 2.2936                 1.3047
 IR Inten    --      6.7911                25.1555                10.6793

                     34                     35                     36
                      A                      A                      A
 Frequencies --    948.3300               951.5817               982.3724
 Red. masses --      1.2764                 2.6826                 2.6551
 Frc consts  --      0.6763                 1.4312                 1.5096
 IR Inten    --      0.1139                 8.4323                 2.5223

                     37                     38                     39
                      A                      A                      A
 Frequencies --    991.8151              1016.3253              1027.6431
 Red. masses --      1.2655                 2.0599                 2.0019
 Frc consts  --      0.7335                 1.2536                 1.2456
 IR Inten    --      0.0209                 8.4012                 9.5624

                     40                     41                     42
                      A                      A                      A
 Frequencies --   1085.2929              1104.0512              1136.4691
 Red. masses --      3.0966                 2.5841                 2.0432
 Frc consts  --      2.1490                 1.8559                 1.5548
 IR Inten    --     35.7136                11.8449                 9.3153

                     43                     44                     45
                      A                      A                      A
 Frequencies --   1153.8747              1161.4124              1176.7182
 Red. masses --      2.1765                 1.4795                 1.3520
 Frc consts  --      1.7074                 1.1758                 1.1030
 IR Inten    --      8.8275                11.1148                52.4024

                     46                     47                     48
                      A                      A                      A
 Frequencies --   1186.6773              1205.1967              1237.2419
 Red. masses --      1.8775                 2.3686                 2.2284
 Frc consts  --      1.5577                 2.0271                 2.0098
 IR Inten    --     52.2537                10.0360                 3.4974

                     49                     50                     51
                      A                      A                      A
 Frequencies --   1302.2562              1306.0966              1324.9231
 Red. masses --      1.4815                 1.8208                 1.2823
 Frc consts  --      1.4803                 1.8301                 1.3262
 IR Inten    --      0.3820                 3.6850                30.2687

                     52                     53                     54
                      A                      A                      A
 Frequencies --   1347.0098              1364.6990              1382.0048
 Red. masses --      1.3404                 1.7614                 1.8971
 Frc consts  --      1.4330                 1.9327                 2.1348
 IR Inten    --      8.7027                25.8979                58.8959

                     55                     56                     57
                      A                      A                      A
 Frequencies --   1397.5046              1409.4996              1420.9450
 Red. masses --      1.9216                 2.2910                 1.4262
 Frc consts  --      2.2112                 2.6817                 1.6966
 IR Inten    --     24.6788                 1.9170                 9.0984

                     58                     59                     60
                      A                      A                      A
 Frequencies --   1441.4064              1481.6139              1490.0437
 Red. masses --      3.4469                 1.1532                 1.9354
 Frc consts  --      4.2194                 1.4915                 2.5317
 IR Inten    --      4.2007                 3.6048                68.4731

                     61                     62                     63
                      A                      A                      A
 Frequencies --   1499.2460              1502.4732              1511.5005
 Red. masses --      1.3357                 1.1869                 1.0898
 Frc consts  --      1.7689                 1.5786                 1.4669
 IR Inten    --     48.2527                 4.9778                14.2349

                     64                     65                     66
                      A                      A                      A
 Frequencies --   1524.6744              1529.9374              1554.6228
 Red. masses --      1.0714                 1.1669                 1.0814
 Frc consts  --      1.4675                 1.6092                 1.5399
 IR Inten    --     10.7736                17.7339                14.5193

                     67                     68                     69
                      A                      A                      A
 Frequencies --   1585.1065              1601.2459              1701.9522
 Red. masses --      6.5186                 6.0384                 6.0693
 Frc consts  --      9.6498                 9.1219                10.3582
 IR Inten    --     39.8851                57.0953                63.1350

                     70                     71                     72
                      A                      A                      A
 Frequencies --   1794.7282              2948.3144              3048.8944
 Red. masses --     11.2899                 1.0621                 1.0617
 Frc consts  --     21.4258                 5.4395                 5.8147
 IR Inten    --    440.2930                86.6744                22.3696

                     73                     74                     75
                      A                      A                      A
 Frequencies --   3060.7577              3068.2901              3087.2036
 Red. masses --      1.0824                 1.0718                 1.0665
 Frc consts  --      5.9745                 5.9448                 5.9886
 IR Inten    --     41.4214                48.9196                19.6405

                     76                     77                     78
                      A                      A                      A
 Frequencies --   3094.4375              3114.9915              3156.4977
 Red. masses --      1.1029                 1.1028                 1.1018
 Frc consts  --      6.2221                 6.3048                 6.4679
 IR Inten    --     71.5818                30.6498                 5.6655

                     79                     80                     81
                      A                      A                      A
 Frequencies --   3213.5186              3237.4750              3242.9492
 Red. masses --      1.0888                 1.0898                 1.0953
 Frc consts  --      6.6248                 6.7299                 6.7865
 IR Inten    --      5.8452                 3.2179                 2.0161

                     82                     83                     84
                      A                      A                      A
 Frequencies --   3260.1832              3504.7407              3592.0876
 Red. masses --      1.0975                 1.0745                 1.0669
 Frc consts  --      6.8731                 7.7765                 8.1112
 IR Inten    --      3.8400                15.7737               253.2988

 - Thermochemistry -
 -------------------
 Temperature   298.150 Kelvin.  Pressure   1.00000 Atm.
 Atom     1 has atomic number  6 and mass  12.00000

 Molecular mass:   222.11168 amu.
 Principal axes and moments of inertia in atomic units:
                           1         2         3
     Eigenvalues --  1850.311614906.310745980.74329
           X            0.99984   0.01737   0.00454
           Y           -0.01738   0.99984   0.00350
           Z           -0.00448  -0.00358   0.99998
 This molecule is an asymmetric top.
 Rotational symmetry number  1.
 Warning -- assumption of classical behavior for rotation
           may cause significant error
 Rotational temperatures (Kelvin)      0.04681     0.01765     0.01448
 Rotational constants (GHZ):           0.97537     0.36784     0.30176
 Zero-point vibrational energy     652797.3 (Joules/Mol)
                                  156.02231 (Kcal/Mol)
 Warning -- explicit consideration of  22 degrees of freedom as
           vibrations may cause significant error
 Vibrational temperatures:     47.59    60.96   110.52   176.86   225.23
          (Kelvin)            241.56   255.85   302.49   339.83   371.92
                              433.51   450.48   512.54   520.43   587.57
                              616.09   703.03   739.30   820.29   837.63
                              844.90   876.95   916.83   990.78  1049.65
                             1082.57  1095.67  1119.91  1145.34  1212.05
                             1218.66  1306.61  1332.55  1364.44  1369.11
                             1413.41  1427.00  1462.27  1478.55  1561.49
                             1588.48  1635.13  1660.17  1671.01  1693.04
                             1707.36  1734.01  1780.12  1873.66  1879.18
                             1906.27  1938.05  1963.50  1988.40  2010.70
                             2027.96  2044.42  2073.86  2131.71  2143.84
                             2157.08  2161.72  2174.71  2193.67  2201.24
                             2236.76  2280.61  2303.84  2448.73  2582.21
                             4241.97  4386.68  4403.75  4414.59  4441.80
                             4452.21  4481.78  4541.50  4623.54  4658.00
                             4665.88  4690.68  5042.54  5168.21

 Zero-point correction=                           0.248637 (Hartree/Particle)
 Thermal correction to Energy=                    0.262744
 Thermal correction to Enthalpy=                  0.263688
 Thermal correction to Gibbs Free Energy=         0.207100
 Sum of electronic and zero-point Energies=           -758.734190
 Sum of electronic and thermal Energies=              -758.720083
 Sum of electronic and thermal Enthalpies=            -758.719139
 Sum of electronic and thermal Free Energies=         -758.775727

                     E (Thermal)             CV                S
                      KCal/Mol        Cal/Mol-Kelvin    Cal/Mol-Kelvin
 Total                  164.874             54.738            119.101
 Electronic               0.000              0.000              0.000
 Translational            0.889              2.981             42.097
 Rotational               0.889              2.981             32.362
 Vibrational            163.097             48.776             44.642
 Vibration     1          0.594              1.983              5.636
 Vibration     2          0.595              1.980              5.145
 Vibration     3          0.599              1.965              3.971
 Vibration     4          0.610              1.930              3.054
 Vibration     5          0.620              1.895              2.591
 Vibration     6          0.625              1.882              2.459
 Vibration     7          0.628              1.870              2.351
 Vibration     8          0.642              1.825              2.042
 Vibration     9          0.655              1.785              1.831
 Vibration    10          0.667              1.748              1.672
 Vibration    11          0.693              1.671              1.410
 Vibration    12          0.701              1.649              1.346
 Vibration    13          0.732              1.562              1.138
 Vibration    14          0.736              1.551              1.115
 Vibration    15          0.773              1.452              0.932
 Vibration    16          0.790              1.409              0.865
 Vibration    17          0.845              1.275              0.687
 Vibration    18          0.869              1.219              0.624
 Vibration    19          0.926              1.096              0.504
 Vibration    20          0.939              1.070              0.481
 Vibration    21          0.944              1.059              0.472
 Vibration    22          0.968              1.012              0.434

                           ! Non-Optimized Parameters !
 Normal termination of Gaussian 16 at Fri Dec 11 01:26:19 2020.

 ----------------------------------------------------------------------
 # B3LYP/6-311++G(d,p) empiricaldispersion=gd3bj scf=xqc pop=npa geom=c
 heck
 ----------------------------------------------------------------------

 --------------------------------------
 CID_43187973_JID_6963_Energie_neutraal
 --------------------------------------
 Structure from the checkpoint file:  "JID_6963.chk"
 Charge =  0 Multiplicity = 1

 SCF Done:  E(RB3LYP) =  -759.203139979     A.U. after   15 cycles
 Normal termination of Gaussian 16 at Fri Dec 11 01:30:30 2020.

 ----------------------------------------------------------------------
 # B3LYP/6-311++G(d,p) empiricaldispersion=gd3bj scf=xqc pop=npa geom=c
 heck
 ----------------------------------------------------------------------

 ------------------------------------
 CID_43187973_JID_6963_Energie_kation
 ------------------------------------
 Structure from the checkpoint file:  "JID_6963.chk"
 Charge =  1 Multiplicity = 2

 SCF Done:  E(UB3LYP) =  -758.921745319     A.U. after   25 cycles
 Normal termination of Gaussian 16 at Fri Dec 11 01:39:15 2020.
 Gaussian 16:  ES64L-G16RevA.03 25-Dec-2016

 ----------------------------------------------------------------------
 # B3LYP/6-311++G(d,p) empiricaldispersion=gd3bj scf=xqc pop=npa geom=c
 heck
 ----------------------------------------------------------------------

 -----------------------------------
 CID_43187973_JID_6963_Energie_anion
 -----------------------------------
 Structure from the checkpoint file:  "JID_6963.chk"
 Charge = -1 Multiplicity = 2

                         Standard orientation:
 ---------------------------------------------------------------------
 Center     Atomic      Atomic             Coordinates (Angstroms)
 Number     Number       Type             X           Y           Z
 ---------------------------------------------------------------------
      1          6           0        3.419687    2.236572   -0.322576
      2          7           0        2.236235    1.610279   -0.893714
      3          6           0        2.337379    0.170622   -1.096725
      4          6           0        2.600437   -0.708629    0.146795
      5          6           0        1.624779   -0.401243    1.298938
      6          7           0        0.239222   -0.241002    0.868667
      7          6           0       -0.505775   -1.188156    0.226020
      8          8           0       -0.216820   -2.333985   -0.120702
      9          7           0       -1.722901   -0.520920    0.013154
     10          6           0       -2.853880   -1.001878   -0.602709
     11          6           0       -3.920355   -0.170624   -0.730318
     12          6           0       -3.844779    1.175844   -0.231517
     13          6           0       -2.716087    1.651447    0.373526
     14          6           0       -1.597155    0.780122    0.507028
     15          7           0       -0.405977    0.976678    1.028252
     16          8           0        2.617790   -2.082254   -0.195180
     17          1           0        4.279087    2.042436   -0.975572
     18          1           0        3.696239    1.899383    0.693981
     19          1           0        3.270733    3.320794   -0.282069
     20          1           0        1.413838    1.832077   -0.336541
     21          1           0        1.409622   -0.173526   -1.570886
     22          1           0        3.141717   -0.030852   -1.814430
     23          1           0        3.603151   -0.495414    0.536339
     24          1           0        1.679631   -1.210960    2.033554
     25          1           0        1.878648    0.538063    1.792454
     26          1           0       -2.795625   -2.028489   -0.942249
     27          1           0       -4.823683   -0.526780   -1.210520
     28          1           0       -4.707727    1.824305   -0.343435
     29          1           0       -2.635503    2.662613    0.754170
     30          1           0        1.690563   -2.363434   -0.333031
 ---------------------------------------------------------------------

 SCF Done:  E(UB3LYP) =  -759.217750902     A.U. after   26 cycles

 The electronic state is 2-A.
 Alpha  occ. eigenvalues --  -18.99831 -18.96704 -14.24477 -14.23184 -14.19102
 Alpha  occ. eigenvalues --  -14.18378 -10.16201 -10.11239 -10.09951 -10.09827
 Alpha  occ. eigenvalues --  -10.09427 -10.08294 -10.04812 -10.02823 -10.01996
 Alpha  occ. eigenvalues --  -10.01084  -0.95549  -0.90629  -0.88790  -0.82027
 Alpha  occ. eigenvalues --   -0.79805  -0.71480  -0.67551  -0.63537  -0.60804
 Alpha  occ. eigenvalues --   -0.59984  -0.55712  -0.51446  -0.49817  -0.48154
 Alpha  occ. eigenvalues --   -0.45774  -0.41157  -0.40053  -0.39047  -0.37056
 Alpha  occ. eigenvalues --   -0.35766  -0.35361  -0.34274  -0.33938  -0.32396
 Alpha  occ. eigenvalues --   -0.31395  -0.30856  -0.29864  -0.29320  -0.28282
 Alpha  occ. eigenvalues --   -0.26609  -0.25365  -0.24420  -0.24355  -0.23639
 Alpha  occ. eigenvalues --   -0.22277  -0.21185  -0.19267  -0.17465  -0.16056
 Alpha  occ. eigenvalues --   -0.14769  -0.13265  -0.11488  -0.06680   0.04743
 Alpha virt. eigenvalues --    0.07080   0.09278   0.09417   0.09834   0.10667
 Alpha virt. eigenvalues --    0.10867   0.12132   0.12334   0.12684   0.12922
 Alpha virt. eigenvalues --    0.13785   0.14284   0.14637   0.15529   0.15673

  Beta  occ. eigenvalues --  -18.99830 -18.96705 -14.24302 -14.23052 -14.19102
  Beta  occ. eigenvalues --  -14.18190 -10.16179 -10.11227 -10.09961 -10.09882
  Beta  occ. eigenvalues --  -10.09424 -10.08294 -10.04287 -10.02904 -10.01682
  Beta  occ. eigenvalues --  -10.00726  -0.95339  -0.90616  -0.88707  -0.81650
  Beta  occ. eigenvalues --   -0.79787  -0.71212  -0.67049  -0.63410  -0.60136
  Beta  occ. eigenvalues --   -0.59880  -0.55637  -0.51187  -0.49606  -0.47692
  Beta  occ. eigenvalues --   -0.45593  -0.41050  -0.39727  -0.38950  -0.36892
  Beta  occ. eigenvalues --   -0.35598  -0.35100  -0.34176  -0.33640  -0.32191
  Beta  occ. eigenvalues --   -0.31286  -0.30635  -0.29746  -0.29240  -0.28190
  Beta  occ. eigenvalues --   -0.26475  -0.25353  -0.24192  -0.24009  -0.23079
  Beta  occ. eigenvalues --   -0.21994  -0.20498  -0.19103  -0.17384  -0.14676
  Beta  occ. eigenvalues --   -0.14320  -0.12159  -0.11401  -0.05022
  Beta virt. eigenvalues --    0.06998   0.09223   0.09334   0.09748   0.10581
  Beta virt. eigenvalues --    0.10813   0.11354   0.12078   0.12263   0.12644
  Beta virt. eigenvalues --    0.12845   0.13759   0.14575   0.14764   0.15516

 Mulliken charges and spin densities:
               1          2
     1  C   -0.361784  -0.045995
     2  N   -0.188697  -0.001081
     3  C   -0.443669  -0.009809
     4  C   -0.222182  -0.024428
     5  C   -0.247304  -0.032327
     6  N   -0.028710   0.059267
     7  C    0.207978  -0.019996
     8  O   -0.428247   0.007073
     9  N    0.059128   0.015115
    10  C   -0.140149   0.388458
    11  C   -0.195686  -0.006096
    12  C   -0.532270   0.269730
    13  C    0.126073   0.234764
    14  C   -0.408946  -0.018178
    15  N   -0.200221   0.087081
    16  O   -0.194855  -0.003148
    17  H    0.120673   0.019014
    18  H    0.075231   0.013697
    19  H    0.116451   0.013420
    20  H    0.308267  -0.006886
    21  H    0.240194   0.009937
    22  H    0.143302   0.009830
    23  H    0.097397   0.077550
    24  H    0.189799   0.025392
    25  H    0.153655   0.011951
    26  H    0.151250  -0.033706
    27  H    0.115724   0.005184
    28  H    0.104347  -0.020823
    29  H    0.127282  -0.023739
    30  H    0.255968  -0.001251
 Sum of Mulliken charges =  -1.00000   1.00000

 Dipole moment (field-independent basis, Debye):
    X=              4.0248    Y=              1.6212    Z=              0.8638  Tot=              4.4242
 Quadrupole moment (field-independent basis, Debye-Ang):
   XX=           -135.1946   YY=           -122.3689   ZZ=           -108.1854
   XY=              8.8454   XZ=              3.4175   YZ=              0.1726

 Summary of Natural Population Analysis:

                                       Natural Population
                Natural  -----------------------------------------------
    Atom  No    Charge         Core      Valence    Rydberg      Total
 -----------------------------------------------------------------------
      C    1   -0.17969      0.99967     2.17223    0.00779     3.17969
      N    2   -0.34886      0.99976     2.83626    0.01284     3.84886
      C    3   -0.10102      0.99961     2.08807    0.01335     3.10102
      C    4    0.05301      0.99957     1.93415    0.01326     2.94699
      C    5   -0.09964      0.99961     2.08910    0.01093     3.09964
      N    6   -0.13735      0.99963     2.62370    0.01403     3.63735
      C    7    0.38383      0.99963     1.59313    0.02341     2.61617
      O    8   -0.36780      0.99987     3.36200    0.00593     4.36780
      N    9   -0.20280      0.99958     2.69459    0.00863     3.70280
      C   10    0.11004      0.99957     1.87953    0.01087     2.88996
      C   11   -0.15815      0.99958     2.14929    0.00928     3.15815
      C   12   -0.03724      0.99958     2.02751    0.01014     3.03724
      C   13   -0.07431      0.99953     2.06570    0.00908     3.07431
      C   14    0.18361      0.99962     1.80297    0.01380     2.81639
      N   15   -0.17543      0.99968     2.66487    0.01088     3.67543
      O   16   -0.38709      0.99989     3.37990    0.00729     4.38709
      H   17    0.08703      0.00000     0.41172    0.00125     0.41297
      H   18    0.07341      0.00000     0.42431    0.00228     0.42659
      H   19    0.09190      0.00000     0.40703    0.00107     0.40810
      H   20    0.18683      0.00000     0.30904    0.00413     0.31317
      H   21    0.10102      0.00000     0.39762    0.00136     0.39898
      H   22    0.09106      0.00000     0.40765    0.00129     0.40894
      H   23    0.07992      0.00000     0.41798    0.00210     0.42008
      H   24    0.10213      0.00000     0.39581    0.00206     0.39787
      H   25    0.10738      0.00000     0.39071    0.00191     0.39262
      H   26    0.09565      0.00000     0.40333    0.00102     0.40435
      H   27    0.09479      0.00000     0.40429    0.00092     0.40521
      H   28    0.08647      0.00000     0.41255    0.00097     0.41353
      H   29    0.09426      0.00000     0.40416    0.00158     0.40574
      H   30    0.24704      0.00000     0.25035    0.00261     0.25296
 =======================================================================
   * Total *   -0.00000     15.99438    42.79953    0.20609    59.00000

 Normal termination of Gaussian 16 at Fri Dec 11 01:48:04 2020.
