 Gaussian 16, Revision A.03,

 -----------------------------------------------------------
 # opt freq B3LYP/6-31G(d) empiricaldispersion=gd3bj scf=xqc
 -----------------------------------------------------------

 ----------------------------
 CID_129972225_JID_6_neutraal
 ----------------------------
 Symbolic Z-matrix:
 Charge =  0 Multiplicity = 1

 SCF Done:  E(RB3LYP) =  -811.298647704     A.U. after   15 cycles
 SCF Done:  E(RB3LYP) =  -811.303551455     A.U. after   13 cycles
 SCF Done:  E(RB3LYP) =  -811.304550256     A.U. after   13 cycles
 SCF Done:  E(RB3LYP) =  -811.304886972     A.U. after   13 cycles
 SCF Done:  E(RB3LYP) =  -811.305282860     A.U. after   13 cycles
 SCF Done:  E(RB3LYP) =  -811.305571767     A.U. after   12 cycles
 SCF Done:  E(RB3LYP) =  -811.305885871     A.U. after   12 cycles
 SCF Done:  E(RB3LYP) =  -811.306173026     A.U. after   12 cycles
 SCF Done:  E(RB3LYP) =  -811.306225663     A.U. after   11 cycles
 SCF Done:  E(RB3LYP) =  -811.306243801     A.U. after   11 cycles
 SCF Done:  E(RB3LYP) =  -811.306252495     A.U. after    9 cycles
 SCF Done:  E(RB3LYP) =  -811.306253324     A.U. after    8 cycles
 SCF Done:  E(RB3LYP) =  -811.306254075     A.U. after    8 cycles
 SCF Done:  E(RB3LYP) =  -811.306254356     A.U. after    8 cycles
 SCF Done:  E(RB3LYP) =  -811.306254431     A.U. after    8 cycles
 SCF Done:  E(RB3LYP) =  -811.306254460     A.U. after    7 cycles
 Optimization completed.
    -- Stationary point found.
 Normal termination of Gaussian 16 at Tue Dec  8 10:15:42 2020.

 --------------------------------------------------------------------
 #N Geom=AllCheck Guess=TCheck SCRF=Check GenChk RB3LYP/6-31G(d) Freq
 --------------------------------------------------------------------

 Structure from the checkpoint file:  "JID_6.chk"
 ----------------------------
 CID_129972225_JID_6_neutraal
 ----------------------------
 Charge =  0 Multiplicity = 1

 SCF Done:  E(RB3LYP) =  -811.306254460     A.U. after    1 cycles

  Exact polarizability: 116.382   8.632 106.234  -1.861  -0.619  52.791
 Approx polarizability: 168.452  18.069 197.622  -9.378  -1.111  80.741

                      1                      2                      3
                      A                      A                      A
 Frequencies --     42.6883                72.4989               119.3017
 Red. masses --      3.7439                 4.4350                 8.5199
 Frc consts  --      0.0040                 0.0137                 0.0714
 IR Inten    --      3.6476                 5.5898                 5.0859

                      4                      5                      6
                      A                      A                      A
 Frequencies --    149.6143               165.0188               236.8485
 Red. masses --      4.4725                 1.0956                 3.5826
 Frc consts  --      0.0590                 0.0176                 0.1184
 IR Inten    --      4.3154                 0.5639                10.6835

                      7                      8                      9
                      A                      A                      A
 Frequencies --    256.8611               277.2308               340.4175
 Red. masses --      4.4902                 1.1873                 5.4524
 Frc consts  --      0.1745                 0.0538                 0.3723
 IR Inten    --      2.2690                27.2472                 2.8552

                     10                     11                     12
                      A                      A                      A
 Frequencies --    391.0469               452.2057               501.7074
 Red. masses --      5.8229                 9.8935                 8.8884
 Frc consts  --      0.5246                 1.1920                 1.3182
 IR Inten    --      0.2463                18.0438                17.0626

                     13                     14                     15
                      A                      A                      A
 Frequencies --    561.1472               617.9655               624.2799
 Red. masses --      7.8568                 2.2519                 2.9740
 Frc consts  --      1.4576                 0.5067                 0.6829
 IR Inten    --     13.8695               169.4314               126.2015

                     16                     17                     18
                      A                      A                      A
 Frequencies --    642.5849               693.5191               704.4324
 Red. masses --      5.9511                 5.5471                 4.2052
 Frc consts  --      1.4478                 1.5719                 1.2294
 IR Inten    --      2.8632                 1.8266                19.9111

                     19                     20                     21
                      A                      A                      A
 Frequencies --    761.3207               831.3312               995.2808
 Red. masses --      5.9444                 1.3899                 1.1912
 Frc consts  --      2.0300                 0.5659                 0.6952
 IR Inten    --     20.7060                23.1621                 4.3610

                     22                     23                     24
                      A                      A                      A
 Frequencies --   1000.2360              1031.2941              1089.9050
 Red. masses --      1.3752                 4.3456                 1.8150
 Frc consts  --      0.8106                 2.7231                 1.2703
 IR Inten    --     35.3387                23.6247                 1.7895

                     25                     26                     27
                      A                      A                      A
 Frequencies --   1170.2299              1250.3870              1269.9043
 Red. masses --      4.2303                 3.5093                 2.5418
 Frc consts  --      3.4132                 3.2326                 2.4151
 IR Inten    --     16.4524               108.5456                 3.9817

                     28                     29                     30
                      A                      A                      A
 Frequencies --   1351.3916              1380.5529              1437.4424
 Red. masses --      4.4173                 1.1590                 5.7907
 Frc consts  --      4.7530                 1.3015                 7.0496
 IR Inten    --     35.3805                 0.9151                16.8086

                     31                     32                     33
                      A                      A                      A
 Frequencies --   1486.3610              1508.6456              1512.0837
 Red. masses --      1.0526                 1.1328                 4.1139
 Frc consts  --      1.3702                 1.5190                 5.5418
 IR Inten    --     10.5440                 5.0219                21.3825

                     34                     35                     36
                      A                      A                      A
 Frequencies --   1632.2355              1696.1508              2334.9204
 Red. masses --      3.7703                 1.3178                12.6425
 Frc consts  --      5.9182                 2.2337                40.6095
 IR Inten    --     66.1710               109.8137                67.4586

                     37                     38                     39
                      A                      A                      A
 Frequencies --   3069.0158              3157.5378              3173.8611
 Red. masses --      1.0292                 1.1040                 1.1095
 Frc consts  --      5.7115                 6.4852                 6.5851
 IR Inten    --     11.6940                 4.6290                 3.3551

                     40                     41                     42
                      A                      A                      A
 Frequencies --   3258.7326              3550.3545              3649.7915
 Red. masses --      1.0960                 1.0480                 1.0987
 Frc consts  --      6.8576                 7.7829                 8.6231
 IR Inten    --      4.3165                24.3860                18.9344

 - Thermochemistry -
 -------------------
 Temperature   298.150 Kelvin.  Pressure   1.00000 Atm.
 Atom     1 has atomic number  6 and mass  12.00000

 Molecular mass:   154.03132 amu.
 Principal axes and moments of inertia in atomic units:
                           1         2         3
     Eigenvalues --  1056.113831833.664722619.91592
           X            0.99953   0.01965   0.02374
           Y           -0.01963   0.99981  -0.00092
           Z           -0.02376   0.00045   0.99972
 This molecule is an asymmetric top.
 Rotational symmetry number  1.
 Warning -- assumption of classical behavior for rotation
           may cause significant error
 Rotational temperatures (Kelvin)      0.08201     0.04724     0.03306
 Rotational constants (GHZ):           1.70885     0.98423     0.68885
 Zero-point vibrational energy     301748.1 (Joules/Mol)
                                   72.11952 (Kcal/Mol)
 Warning -- explicit consideration of  14 degrees of freedom as
           vibrations may cause significant error
 Vibrational temperatures:     61.42   104.31   171.65   215.26   237.43
          (Kelvin)            340.77   369.57   398.87   489.78   562.63
                              650.62   721.84   807.37   889.11   898.20
                              924.54   997.82  1013.52  1095.37  1196.10
                             1431.99  1439.12  1483.80  1568.13  1683.70
                             1799.03  1827.11  1944.35  1986.31  2068.16
                             2138.54  2170.60  2175.55  2348.42  2440.38
                             3359.43  4415.63  4542.99  4566.48  4688.59
                             5108.17  5251.24

 Zero-point correction=                           0.114930 (Hartree/Particle)
 Thermal correction to Energy=                    0.125193
 Thermal correction to Enthalpy=                  0.126138
 Thermal correction to Gibbs Free Energy=         0.078367
 Sum of electronic and zero-point Energies=           -811.191325
 Sum of electronic and thermal Energies=              -811.181061
 Sum of electronic and thermal Enthalpies=            -811.180117
 Sum of electronic and thermal Free Energies=         -811.227887

                     E (Thermal)             CV                S
                      KCal/Mol        Cal/Mol-Kelvin    Cal/Mol-Kelvin
 Total                   78.560             36.177            100.541
 Electronic               0.000              0.000              0.000
 Translational            0.889              2.981             41.006
 Rotational               0.889              2.981             30.007
 Vibrational             76.783             30.215             29.528
 Vibration     1          0.595              1.980              5.130
 Vibration     2          0.599              1.967              4.084
 Vibration     3          0.609              1.933              3.112
 Vibration     4          0.618              1.903              2.677
 Vibration     5          0.623              1.885              2.491
 Vibration     6          0.656              1.784              1.826
 Vibration     7          0.666              1.751              1.683
 Vibration     8          0.678              1.716              1.551
 Vibration     9          0.720              1.595              1.210
 Vibration    10          0.759              1.489              0.996
 Vibration    11          0.811              1.356              0.789
 Vibration    12          0.857              1.246              0.654
 Vibration    13          0.917              1.115              0.522
 Vibration    14          0.978              0.994              0.420

 Optimization completed.
    -- Stationary point found.
 Normal termination of Gaussian 16 at Tue Dec  8 10:18:01 2020.

 ----------------------------------------------------------------------
 # B3LYP/6-311++G(d,p) empiricaldispersion=gd3bj scf=xqc pop=npa geom=c
 heck
 ----------------------------------------------------------------------

 ------------------------------------
 CID_129972225_JID_6_Energie_neutraal
 ------------------------------------
 Structure from the checkpoint file:  "JID_6.chk"
 Charge =  0 Multiplicity = 1

 SCF Done:  E(RB3LYP) =  -811.452572070     A.U. after   15 cycles
 Normal termination of Gaussian 16 at Tue Dec  8 10:18:45 2020.

 ----------------------------------------------------------------------
 # B3LYP/6-311++G(d,p) empiricaldispersion=gd3bj scf=xqc pop=npa geom=c
 heck
 ----------------------------------------------------------------------

 ----------------------------------
 CID_129972225_JID_6_Energie_kation
 ----------------------------------
 Structure from the checkpoint file:  "JID_6.chk"
 Charge =  1 Multiplicity = 2

 SCF Done:  E(UB3LYP) =  -811.142371269     A.U. after   29 cycles
 Normal termination of Gaussian 16 at Tue Dec  8 10:20:40 2020.
 Gaussian 16:  ES64L-G16RevA.03 25-Dec-2016

 ----------------------------------------------------------------------
 # B3LYP/6-311++G(d,p) empiricaldispersion=gd3bj scf=xqc pop=npa geom=c
 heck
 ----------------------------------------------------------------------

 ---------------------------------
 CID_129972225_JID_6_Energie_anion
 ---------------------------------
 Structure from the checkpoint file:  "JID_6.chk"
 Charge = -1 Multiplicity = 2

                         Standard orientation:
 ---------------------------------------------------------------------
 Center     Atomic      Atomic             Coordinates (Angstroms)
 Number     Number       Type             X           Y           Z
 ---------------------------------------------------------------------
      1          6           0        2.633823    0.001482    1.141650
      2         16           0        2.042093   -0.120758   -0.581492
      3          7           0        0.400847   -0.525860   -0.299771
      4          6           0       -0.655766    0.363823   -0.110252
      5          6           0       -1.790911   -0.414837    0.104232
      6          6           0       -1.315802   -1.750893    0.024060
      7          7           0       -0.008362   -1.803551   -0.215243
      8          7           0       -3.070056    0.019072    0.405167
      9          6           0       -0.526822    1.765150   -0.130225
     10          7           0       -0.480820    2.930153   -0.128582
     11          1           0        3.703431    0.224792    1.076745
     12          1           0        2.491636   -0.950105    1.657912
     13          1           0        2.127755    0.812383    1.670049
     14          1           0       -1.883662   -2.665357    0.134043
     15          1           0       -3.260224    0.982963    0.157204
     16          1           0       -3.810828   -0.599580    0.100126
 ---------------------------------------------------------------------

 SCF Done:  E(UB3LYP) =  -811.449876325     A.U. after   32 cycles

 The electronic state is 2-A.
 Alpha  occ. eigenvalues --  -88.76458 -14.27502 -14.20742 -14.20701 -14.17800
 Alpha  occ. eigenvalues --  -10.09534 -10.09316 -10.08509 -10.08049 -10.06936
 Alpha  occ. eigenvalues --   -7.84780  -5.81363  -5.80796  -5.80013  -0.93207
 Alpha  occ. eigenvalues --   -0.80373  -0.77646  -0.73095  -0.67261  -0.63331
 Alpha  occ. eigenvalues --   -0.54715  -0.51398  -0.48058  -0.43124  -0.39556
 Alpha  occ. eigenvalues --   -0.36393  -0.34928  -0.33410  -0.32280  -0.30145
 Alpha  occ. eigenvalues --   -0.29487  -0.25360  -0.24135  -0.23340  -0.21946
 Alpha  occ. eigenvalues --   -0.21337  -0.17450  -0.13900  -0.13430  -0.09692
 Alpha  occ. eigenvalues --    0.04639
 Alpha virt. eigenvalues --    0.06633   0.07569   0.09489   0.10481   0.10964
 Alpha virt. eigenvalues --    0.11478   0.12349   0.12979   0.13813   0.14677
 Alpha virt. eigenvalues --    0.15736   0.16055   0.16579   0.16768   0.17244

  Beta  occ. eigenvalues --  -88.76447 -14.27362 -14.20671 -14.20350 -14.17607
  Beta  occ. eigenvalues --  -10.09441 -10.09205 -10.08416 -10.08022 -10.06959
  Beta  occ. eigenvalues --   -7.84770  -5.81330  -5.80785  -5.80008  -0.92848
  Beta  occ. eigenvalues --   -0.80229  -0.77352  -0.72779  -0.66946  -0.63137
  Beta  occ. eigenvalues --   -0.54492  -0.51020  -0.47901  -0.42966  -0.39417
  Beta  occ. eigenvalues --   -0.36216  -0.34318  -0.33199  -0.32200  -0.29998
  Beta  occ. eigenvalues --   -0.29262  -0.24940  -0.23808  -0.22481  -0.21685
  Beta  occ. eigenvalues --   -0.20948  -0.17037  -0.13466  -0.12880  -0.08853
  Beta virt. eigenvalues --    0.07600   0.07902   0.09497   0.09890   0.10718
  Beta virt. eigenvalues --    0.11405   0.11846   0.12396   0.13311   0.14108
  Beta virt. eigenvalues --    0.14897   0.15669   0.16161   0.16514   0.16878

 Mulliken charges and spin densities:
               1          2
     1  C   -0.001193  -0.596210
     2  S   -0.029199   0.116718
     3  N    0.175057   0.126354
     4  C    1.239938  -0.419297
     5  C   -0.468591   0.496367
     6  C   -0.421064   0.279970
     7  N   -0.164043   0.113803
     8  N   -0.366661   0.032016
     9  C    0.106545  -1.168026
    10  N   -0.339352   0.109252
    11  H   -0.398858   0.547553
    12  H    0.102330   0.078777
    13  H    0.074469   0.113029
    14  H   -0.184931   0.339212
    15  H    0.040375   0.213715
    16  H   -0.364823   0.616767
 Sum of Mulliken charges =  -1.00000   1.00000

 Dipole moment (field-independent basis, Debye):
    X=              1.7671    Y=             -1.9638    Z=             -0.4674  Tot=              2.6829
 Quadrupole moment (field-independent basis, Debye-Ang):
   XX=           -114.9163   YY=           -101.8481   ZZ=            -81.1242
   XY=             -0.9598   XZ=             -0.4568   YZ=             -0.2585

 Summary of Natural Population Analysis:

                                       Natural Population
                Natural  -----------------------------------------------
    Atom  No    Charge         Core      Valence    Rydberg      Total
 -----------------------------------------------------------------------
      C    1   -0.34914      0.99962     2.34290    0.00662     3.34914
      S    2    0.21168      4.99960     2.76595    0.02277     7.78832
      N    3   -0.15767      0.99964     2.64191    0.01611     3.65767
      C    4   -0.01510      0.99936     2.00407    0.01168     3.01510
      C    5    0.08095      0.99946     1.90774    0.01185     2.91905
      C    6   -0.04864      0.99959     2.03344    0.01560     3.04864
      N    7   -0.08356      0.99972     2.57107    0.01278     3.58356
      N    8   -0.39546      0.99971     2.88533    0.01042     3.89546
      C    9    0.13651      0.99964     1.84685    0.01700     2.86349
      N   10   -0.16663      0.99979     2.65764    0.00920     3.66663
      H   11    0.10485      0.00000     0.39295    0.00221     0.39515
      H   12    0.10439      0.00000     0.39419    0.00142     0.39561
      H   13    0.10510      0.00000     0.39332    0.00158     0.39490
      H   14    0.09509      0.00000     0.40367    0.00123     0.40491
      H   15    0.18900      0.00000     0.30880    0.00220     0.31100
      H   16    0.18863      0.00000     0.30463    0.00674     0.31137
 =======================================================================
   * Total *    0.00000     13.99613    25.85445    0.14942    40.00000

 Normal termination of Gaussian 16 at Tue Dec  8 10:22:48 2020.
