 Gaussian 16, Revision A.03,

 -----------------------------------------------------------
 # opt freq B3LYP/6-31G(d) empiricaldispersion=gd3bj scf=xqc
 -----------------------------------------------------------

 ------------------------------
 CID_63625629_JID_4393_neutraal
 ------------------------------
 Symbolic Z-matrix:
 Charge =  0 Multiplicity = 1

 SCF Done:  E(RB3LYP) =  -974.904535977     A.U. after   15 cycles
 SCF Done:  E(RB3LYP) =  -974.910838849     A.U. after   14 cycles
 SCF Done:  E(RB3LYP) =  -974.911189058     A.U. after   13 cycles
 SCF Done:  E(RB3LYP) =  -974.911693795     A.U. after   12 cycles
 SCF Done:  E(RB3LYP) =  -974.911720340     A.U. after   11 cycles
 SCF Done:  E(RB3LYP) =  -974.911838615     A.U. after   10 cycles
 SCF Done:  E(RB3LYP) =  -974.911948983     A.U. after   11 cycles
 SCF Done:  E(RB3LYP) =  -974.912201010     A.U. after   13 cycles
 SCF Done:  E(RB3LYP) =  -974.912153868     A.U. after   12 cycles
 SCF Done:  E(RB3LYP) =  -974.912665627     A.U. after   12 cycles
 SCF Done:  E(RB3LYP) =  -974.915362389     A.U. after   11 cycles
 SCF Done:  E(RB3LYP) =  -974.915369484     A.U. after   11 cycles
 SCF Done:  E(RB3LYP) =  -974.915371030     A.U. after    8 cycles
 SCF Done:  E(RB3LYP) =  -974.915371415     A.U. after    8 cycles
 SCF Done:  E(RB3LYP) =  -974.915371454     A.U. after    7 cycles
 Optimization completed.
    -- Stationary point found.
 Normal termination of Gaussian 16 at Thu Dec 10 09:42:01 2020.

 --------------------------------------------------------------------
 #N Geom=AllCheck Guess=TCheck SCRF=Check GenChk RB3LYP/6-31G(d) Freq
 --------------------------------------------------------------------

 Structure from the checkpoint file:  "JID_4393.chk"
 ------------------------------
 CID_63625629_JID_4393_neutraal
 ------------------------------
 Charge =  0 Multiplicity = 1

 SCF Done:  E(RB3LYP) =  -974.915371454     A.U. after    1 cycles

  Exact polarizability: 142.254  -8.459 145.807  -4.712  -9.948 113.710
 Approx polarizability: 189.546 -10.393 232.375 -14.417 -33.375 180.947

                      1                      2                      3
                      A                      A                      A
 Frequencies --     29.1600                37.6508                62.1058
 Red. masses --      4.5547                 6.1105                 6.6326
 Frc consts  --      0.0023                 0.0051                 0.0151
 IR Inten    --      0.6574                 1.8756                 3.4669

                      4                      5                      6
                      A                      A                      A
 Frequencies --     78.5396               104.6932               182.0891
 Red. masses --      3.7100                 2.9285                 2.6115
 Frc consts  --      0.0135                 0.0189                 0.0510
 IR Inten    --      2.8165                 2.4177                 0.4407

                      7                      8                      9
                      A                      A                      A
 Frequencies --    229.3644               235.6336               257.8972
 Red. masses --      4.3156                 1.2031                 1.7893
 Frc consts  --      0.1338                 0.0394                 0.0701
 IR Inten    --      6.7243                 0.0460                 0.0440

                     10                     11                     12
                      A                      A                      A
 Frequencies --    287.1180               316.5619               324.7169
 Red. masses --      3.0478                 3.5727                 3.4737
 Frc consts  --      0.1480                 0.2109                 0.2158
 IR Inten    --      3.2781                17.7158                 1.5228

                     13                     14                     15
                      A                      A                      A
 Frequencies --    341.3936               371.7120               382.6924
 Red. masses --      3.7199                 2.9634                 3.5794
 Frc consts  --      0.2554                 0.2412                 0.3089
 IR Inten    --      3.7614                 1.1127                 4.6482

                     16                     17                     18
                      A                      A                      A
 Frequencies --    411.4204               452.5081               474.9529
 Red. masses --      1.7798                 2.8459                 2.7728
 Frc consts  --      0.1775                 0.3433                 0.3685
 IR Inten    --      0.2870                 1.3657                 7.3643

                     19                     20                     21
                      A                      A                      A
 Frequencies --    518.8374               539.2501               559.4437
 Red. masses --      2.0062                 2.5450                 2.1151
 Frc consts  --      0.3182                 0.4360                 0.3900
 IR Inten    --     41.6815                 1.6133                31.0782

                     22                     23                     24
                      A                      A                      A
 Frequencies --    581.2534               609.8649               670.1024
 Red. masses --      1.7604                 4.2819                 3.5138
 Frc consts  --      0.3504                 0.9383                 0.9296
 IR Inten    --    185.5056                22.7068                 8.1606

                     25                     26                     27
                      A                      A                      A
 Frequencies --    722.5317               736.0091               770.3197
 Red. masses --      1.0998                 2.4916                 2.5008
 Frc consts  --      0.3383                 0.7952                 0.8743
 IR Inten    --     43.4701                 7.9269                 5.0924

                     28                     29                     30
                      A                      A                      A
 Frequencies --    852.4958               861.6883               882.5563
 Red. masses --      1.9053                 3.5103                 1.9722
 Frc consts  --      0.8158                 1.5357                 0.9051
 IR Inten    --      0.7051                 1.9063                 1.5938

                     31                     32                     33
                      A                      A                      A
 Frequencies --    895.2392               925.2453               946.6957
 Red. masses --      2.3129                 2.3712                 1.9671
 Frc consts  --      1.0921                 1.1960                 1.0387
 IR Inten    --      4.1279                 2.7911                 1.9580

                     34                     35                     36
                      A                      A                      A
 Frequencies --    972.6520               985.4582              1004.5177
 Red. masses --      1.9785                 1.4772                 1.5746
 Frc consts  --      1.1028                 0.8452                 0.9361
 IR Inten    --      6.8953                 3.0556                 7.6993

                     37                     38                     39
                      A                      A                      A
 Frequencies --   1007.6160              1041.7971              1068.3529
 Red. masses --      2.2776                 2.4125                 1.8360
 Frc consts  --      1.3624                 1.5427                 1.2346
 IR Inten    --     30.8512                 0.6469                 3.6057

                     40                     41                     42
                      A                      A                      A
 Frequencies --   1092.4942              1100.7444              1146.2767
 Red. masses --      2.6409                 2.1757                 1.8948
 Frc consts  --      1.8571                 1.5532                 1.4669
 IR Inten    --      8.0550                 0.2784                 7.0309

                     43                     44                     45
                      A                      A                      A
 Frequencies --   1172.3804              1196.3139              1219.4040
 Red. masses --      1.3473                 1.7598                 2.4266
 Frc consts  --      1.0911                 1.4839                 2.1259
 IR Inten    --     73.2445                 3.4427                23.0031

                     46                     47                     48
                      A                      A                      A
 Frequencies --   1229.4186              1276.1190              1285.4461
 Red. masses --      1.3437                 1.3201                 1.2832
 Frc consts  --      1.1966                 1.2666                 1.2492
 IR Inten    --      9.4906                39.0067                 1.4177

                     49                     50                     51
                      A                      A                      A
 Frequencies --   1299.3433              1310.4416              1330.7913
 Red. masses --      1.6242                 1.3797                 1.2887
 Frc consts  --      1.6156                 1.3960                 1.3447
 IR Inten    --     14.1510                 9.4814                15.9652

                     52                     53                     54
                      A                      A                      A
 Frequencies --   1347.8641              1348.1228              1368.5056
 Red. masses --      1.4717                 1.8428                 1.2570
 Frc consts  --      1.5753                 1.9733                 1.3870
 IR Inten    --     23.4350                38.4353                 2.4691

                     55                     56                     57
                      A                      A                      A
 Frequencies --   1397.4614              1405.0269              1408.7403
 Red. masses --      1.3526                 1.3756                 1.4295
 Frc consts  --      1.5563                 1.5999                 1.6714
 IR Inten    --      7.2405                28.5789                 0.3045

                     58                     59                     60
                      A                      A                      A
 Frequencies --   1422.0672              1432.4950              1444.9531
 Red. masses --      1.4041                 1.4470                 1.2431
 Frc consts  --      1.6729                 1.7495                 1.5292
 IR Inten    --      6.4518                 4.1446                 3.5039

                     61                     62                     63
                      A                      A                      A
 Frequencies --   1458.2345              1487.4721              1505.7355
 Red. masses --      2.6344                 2.0831                 1.2182
 Frc consts  --      3.3006                 2.7155                 1.6274
 IR Inten    --    133.8872               160.0328                42.8370

                     64                     65                     66
                      A                      A                      A
 Frequencies --   1511.1799              1520.9319              1525.1960
 Red. masses --      1.0910                 1.0881                 1.0900
 Frc consts  --      1.4679                 1.4830                 1.4940
 IR Inten    --      0.3404                 4.6131                 0.2451

                     67                     68                     69
                      A                      A                      A
 Frequencies --   1529.0606              1532.6429              1536.6412
 Red. masses --      1.0469                 1.0650                 1.0888
 Frc consts  --      1.4421                 1.4740                 1.5148
 IR Inten    --      8.8774                 4.3914                16.9273

                     70                     71                     72
                      A                      A                      A
 Frequencies --   1552.3335              1648.3918              1720.5726
 Red. masses --      1.1195                 1.5875                 4.6322
 Frc consts  --      1.5895                 2.5415                 8.0794
 IR Inten    --     17.1020               375.4308               169.2264

                     73                     74                     75
                      A                      A                      A
 Frequencies --   2995.4926              3035.4373              3036.9241
 Red. masses --      1.0830                 1.0635                 1.0643
 Frc consts  --      5.7254                 5.7733                 5.7836
 IR Inten    --     23.5269                12.7926                11.7079

                     76                     77                     78
                      A                      A                      A
 Frequencies --   3042.0953              3046.5902              3048.3222
 Red. masses --      1.0500                 1.0500                 1.0700
 Frc consts  --      5.7249                 5.7419                 5.8578
 IR Inten    --     15.6019                40.8165                60.5123

                     79                     80                     81
                      A                      A                      A
 Frequencies --   3069.1410              3074.4488              3076.1497
 Red. masses --      1.0720                 1.0870                 1.0906
 Frc consts  --      5.9493                 6.0534                 6.0803
 IR Inten    --      2.5157                15.2578                37.3675

                     82                     83                     84
                      A                      A                      A
 Frequencies --   3080.2237              3092.8379              3111.8141
 Red. masses --      1.0961                 1.0899                 1.1019
 Frc consts  --      6.1272                 6.1425                 6.2869
 IR Inten    --     38.9752                32.8760                41.2073

                     85                     86                     87
                      A                      A                      A
 Frequencies --   3113.8956              3118.4937              3165.5447
 Red. masses --      1.1026                 1.1044                 1.0915
 Frc consts  --      6.2991                 6.3278                 6.4440
 IR Inten    --     31.6724                29.7712                 4.6821

                     88                     89                     90
                      A                      A                      A
 Frequencies --   3218.6677              3450.2687              3657.9374
 Red. masses --      1.0908                 1.0562                 1.0944
 Frc consts  --      6.6580                 7.4083                 8.6277
 IR Inten    --      3.1841               194.6513                71.3407

 - Thermochemistry -
 -------------------
 Temperature   298.150 Kelvin.  Pressure   1.00000 Atm.
 Atom     1 has atomic number  6 and mass  12.00000

 Molecular mass:   214.11399 amu.
 Principal axes and moments of inertia in atomic units:
                           1         2         3
     Eigenvalues --  2319.465153827.771415067.16569
           X            0.99921   0.03948   0.00355
           Y           -0.03951   0.99918   0.00935
           Z           -0.00318  -0.00948   0.99995
 This molecule is an asymmetric top.
 Rotational symmetry number  1.
 Warning -- assumption of classical behavior for rotation
           may cause significant error
 Rotational temperatures (Kelvin)      0.03734     0.02263     0.01709
 Rotational constants (GHZ):           0.77809     0.47149     0.35616
 Zero-point vibrational energy     741261.4 (Joules/Mol)
                                  177.16572 (Kcal/Mol)
 Warning -- explicit consideration of  23 degrees of freedom as
           vibrations may cause significant error
 Vibrational temperatures:     41.95    54.17    89.36   113.00   150.63
          (Kelvin)            261.99   330.00   339.02   371.06   413.10
                              455.46   467.20   491.19   534.81   550.61
                              591.94   651.06   683.35   746.49   775.86
                              804.91   836.29   877.46   964.13  1039.56
                             1058.95  1108.32  1226.55  1239.78  1269.80
                             1288.05  1331.22  1362.08  1399.43  1417.85
                             1445.28  1449.73  1498.91  1537.12  1571.86
                             1583.73  1649.24  1686.79  1721.23  1754.45
                             1768.86  1836.05  1849.47  1869.47  1885.43
                             1914.71  1939.28  1939.65  1968.97  2010.64
                             2021.52  2026.86  2046.04  2061.04  2078.97
                             2098.07  2140.14  2166.42  2174.25  2188.28
                             2194.42  2199.98  2205.13  2210.88  2233.46
                             2371.67  2475.52  4309.85  4367.32  4369.46
                             4376.90  4383.36  4385.86  4415.81  4423.45
                             4425.89  4431.75  4449.90  4477.21  4480.20
                             4486.82  4554.51  4630.94  4964.17  5262.96

 Zero-point correction=                           0.282332 (Hartree/Particle)
 Thermal correction to Energy=                    0.296559
 Thermal correction to Enthalpy=                  0.297503
 Thermal correction to Gibbs Free Energy=         0.240218
 Sum of electronic and zero-point Energies=           -974.633040
 Sum of electronic and thermal Energies=              -974.618812
 Sum of electronic and thermal Enthalpies=            -974.617868
 Sum of electronic and thermal Free Energies=         -974.675153

                     E (Thermal)             CV                S
                      KCal/Mol        Cal/Mol-Kelvin    Cal/Mol-Kelvin
 Total                  186.094             54.779            120.566
 Electronic               0.000              0.000              0.000
 Translational            0.889              2.981             41.987
 Rotational               0.889              2.981             32.176
 Vibrational            184.316             48.817             46.403
 Vibration     1          0.593              1.984              5.886
 Vibration     2          0.594              1.982              5.379
 Vibration     3          0.597              1.972              4.389
 Vibration     4          0.600              1.964              3.927
 Vibration     5          0.605              1.945              3.365
 Vibration     6          0.630              1.864              2.307
 Vibration     7          0.652              1.796              1.884
 Vibration     8          0.655              1.786              1.836
 Vibration     9          0.667              1.749              1.676
 Vibration    10          0.684              1.698              1.491
 Vibration    11          0.703              1.642              1.328
 Vibration    12          0.709              1.626              1.286
 Vibration    13          0.721              1.593              1.206
 Vibration    14          0.743              1.530              1.073
 Vibration    15          0.752              1.507              1.029
 Vibration    16          0.775              1.445              0.922
 Vibration    17          0.811              1.355              0.788
 Vibration    18          0.832              1.306              0.724
 Vibration    19          0.874              1.208              0.613
 Vibration    20          0.894              1.163              0.567
 Vibration    21          0.915              1.119              0.525
 Vibration    22          0.938              1.072              0.483
 Vibration    23          0.969              1.011              0.433

 Optimization completed.
    -- Stationary point found.
 Normal termination of Gaussian 16 at Thu Dec 10 09:53:37 2020.

 ----------------------------------------------------------------------
 # B3LYP/6-311++G(d,p) empiricaldispersion=gd3bj scf=xqc pop=npa geom=c
 heck
 ----------------------------------------------------------------------

 --------------------------------------
 CID_63625629_JID_4393_Energie_neutraal
 --------------------------------------
 Structure from the checkpoint file:  "JID_4393.chk"
 Charge =  0 Multiplicity = 1

 SCF Done:  E(RB3LYP) =  -975.107752678     A.U. after   15 cycles
 Normal termination of Gaussian 16 at Thu Dec 10 09:59:23 2020.

 ----------------------------------------------------------------------
 # B3LYP/6-311++G(d,p) empiricaldispersion=gd3bj scf=xqc pop=npa geom=c
 heck
 ----------------------------------------------------------------------

 ------------------------------------
 CID_63625629_JID_4393_Energie_kation
 ------------------------------------
 Structure from the checkpoint file:  "JID_4393.chk"
 Charge =  1 Multiplicity = 2

 SCF Done:  E(UB3LYP) =  -974.811724920     A.U. after   25 cycles
 Normal termination of Gaussian 16 at Thu Dec 10 10:13:11 2020.
 Gaussian 16:  ES64L-G16RevA.03 25-Dec-2016

 ----------------------------------------------------------------------
 # B3LYP/6-311++G(d,p) empiricaldispersion=gd3bj scf=xqc pop=npa geom=c
 heck
 ----------------------------------------------------------------------

 -----------------------------------
 CID_63625629_JID_4393_Energie_anion
 -----------------------------------
 Structure from the checkpoint file:  "JID_4393.chk"
 Charge = -1 Multiplicity = 2

                         Standard orientation:
 ---------------------------------------------------------------------
 Center     Atomic      Atomic             Coordinates (Angstroms)
 Number     Number       Type             X           Y           Z
 ---------------------------------------------------------------------
      1          6           0        1.824358    2.839262    0.665464
      2          6           0        2.112548    1.479121    0.018035
      3          6           0        2.286161    0.389505    1.096101
      4          6           0        2.875392   -0.929315    0.565153
      5          6           0        1.832981   -1.929205    0.037842
      6          7           0        0.719213   -1.279436   -0.661581
      7          6           0        1.059219   -0.232748   -1.632427
      8          6           0        1.026793    1.175877   -1.029327
      9          6           0       -0.545253   -1.553927   -0.246057
     10          8           0       -0.789218   -2.388023    0.637905
     11          6           0       -1.720303   -0.804780   -0.880331
     12          6           0       -2.481637    0.028666    0.150017
     13         16           0       -2.877285    1.623345   -0.127825
     14          7           0       -2.818987   -0.649601    1.253251
     15          1           0        2.626525    3.129858    1.353383
     16          1           0        0.886275    2.806661    1.232822
     17          1           0        1.724975    3.626474   -0.090450
     18          1           0        3.075991    1.551403   -0.511265
     19          1           0        2.961572    0.788856    1.862688
     20          1           0        1.327879    0.202090    1.600348
     21          1           0        3.432897   -1.440411    1.359116
     22          1           0        3.613112   -0.698602   -0.214326
     23          1           0        1.384896   -2.485565    0.860189
     24          1           0        2.308947   -2.654697   -0.635118
     25          1           0        0.384238   -0.296241   -2.489516
     26          1           0        2.056541   -0.468976   -2.017051
     27          1           0        0.036959    1.345078   -0.587933
     28          1           0        1.117337    1.901284   -1.848776
     29          1           0       -1.456435   -0.157532   -1.709384
     30          1           0       -2.402383   -1.578774   -1.253632
     31          1           0       -2.380310   -1.557327    1.412895
     32          1           0       -3.271857   -0.154400    2.009477
 ---------------------------------------------------------------------

 SCF Done:  E(UB3LYP) =  -975.102773321     A.U. after   33 cycles
 SCF Done:  E(UB3LYP) =  -975.102773321     a.u. after    1 cycles

 The electronic state is 2-A.
 Alpha  occ. eigenvalues --  -88.66243 -18.97930 -14.23905 -14.21146 -10.16129
 Alpha  occ. eigenvalues --  -10.11484 -10.10824 -10.09639 -10.07256 -10.07233
 Alpha  occ. eigenvalues --  -10.06761 -10.06406 -10.06191 -10.05739  -7.75000
 Alpha  occ. eigenvalues --   -5.71348  -5.70901  -5.70552  -0.93219  -0.83641
 Alpha  occ. eigenvalues --   -0.81733  -0.71498  -0.68229  -0.65451  -0.62746
 Alpha  occ. eigenvalues --   -0.59539  -0.57266  -0.54771  -0.51121  -0.46268
 Alpha  occ. eigenvalues --   -0.46151  -0.43515  -0.41105  -0.39634  -0.38592
 Alpha  occ. eigenvalues --   -0.37290  -0.35085  -0.34697  -0.33712  -0.32405
 Alpha  occ. eigenvalues --   -0.32115  -0.30366  -0.29818  -0.28464  -0.27904
 Alpha  occ. eigenvalues --   -0.27018  -0.25929  -0.25280  -0.23796  -0.23107
 Alpha  occ. eigenvalues --   -0.23014  -0.22240  -0.21922  -0.21477  -0.15426
 Alpha  occ. eigenvalues --   -0.14351  -0.10800  -0.08561   0.04397
 Alpha virt. eigenvalues --    0.06144   0.07599   0.07735   0.08506   0.09814
 Alpha virt. eigenvalues --    0.09892   0.10209   0.10708   0.11534   0.11720
 Alpha virt. eigenvalues --    0.12657   0.12869   0.13291   0.13447   0.13784

  Beta  occ. eigenvalues --  -88.66227 -18.97901 -14.23902 -14.21071 -10.16006
  Beta  occ. eigenvalues --  -10.11020 -10.10811 -10.09632 -10.07278 -10.07245
  Beta  occ. eigenvalues --  -10.06732 -10.06397 -10.06187 -10.05727  -7.74986
  Beta  occ. eigenvalues --   -5.71355  -5.70832  -5.70544  -0.93117  -0.83596
  Beta  occ. eigenvalues --   -0.81361  -0.71471  -0.68172  -0.65180  -0.62680
  Beta  occ. eigenvalues --   -0.59329  -0.57173  -0.54729  -0.51019  -0.46221
  Beta  occ. eigenvalues --   -0.45838  -0.43419  -0.41001  -0.39466  -0.38521
  Beta  occ. eigenvalues --   -0.37186  -0.34975  -0.34628  -0.33415  -0.32300
  Beta  occ. eigenvalues --   -0.32069  -0.30250  -0.29725  -0.28287  -0.27704
  Beta  occ. eigenvalues --   -0.26975  -0.25889  -0.25085  -0.23650  -0.22728
  Beta  occ. eigenvalues --   -0.22412  -0.22069  -0.21801  -0.21425  -0.15361
  Beta  occ. eigenvalues --   -0.14228  -0.10138  -0.08504
  Beta virt. eigenvalues --    0.06842   0.07877   0.08160   0.08366   0.09163
  Beta virt. eigenvalues --    0.09979   0.10132   0.10535   0.11437   0.11715
  Beta virt. eigenvalues --    0.12212   0.12914   0.12995   0.13441   0.13507

 Mulliken charges and spin densities:
               1          2
     1  C   -0.059301  -0.584298
     2  C    0.942973  -0.926841
     3  C   -0.835846   0.746340
     4  C    0.529823  -0.983022
     5  C    0.163458  -0.407980
     6  N    0.092074   0.043721
     7  C   -0.118211  -0.562579
     8  C   -0.382652   0.520592
     9  C   -0.412246   0.238695
    10  O   -0.366788   0.016786
    11  C    0.282727  -0.442275
    12  C   -0.043097   0.340430
    13  S   -0.742786   0.138482
    14  N   -0.209190   0.052198
    15  H   -0.039827   0.162432
    16  H    0.118122   0.027655
    17  H    0.020825   0.107602
    18  H   -0.246254   0.409902
    19  H   -0.085478   0.273445
    20  H    0.037299   0.110945
    21  H   -0.390365   0.565605
    22  H   -0.220773   0.372675
    23  H    0.259518  -0.061386
    24  H   -0.081850   0.242313
    25  H    0.108266   0.102726
    26  H   -0.145350   0.306025
    27  H    0.138319  -0.106735
    28  H    0.065676   0.090455
    29  H    0.071418  -0.004077
    30  H    0.031752   0.216079
    31  H    0.286258  -0.003707
    32  H    0.231507  -0.002204
 Sum of Mulliken charges =  -1.00000   1.00000

 Dipole moment (field-independent basis, Debye):
    X=             -0.2042    Y=             -1.4145    Z=             -0.1599  Tot=              1.4381
 Quadrupole moment (field-independent basis, Debye-Ang):
   XX=           -165.0021   YY=           -133.6411   ZZ=           -112.3624
   XY=              9.1342   XZ=             -3.5449   YZ=              1.9011

 Summary of Natural Population Analysis:

                                       Natural Population
                Natural  -----------------------------------------------
    Atom  No    Charge         Core      Valence    Rydberg      Total
 -----------------------------------------------------------------------
      C    1   -0.28139      0.99965     2.27701    0.00473     3.28139
      C    2   -0.10815      0.99960     2.09883    0.00973     3.10815
      C    3   -0.19329      0.99961     2.18391    0.00977     3.19329
      C    4   -0.19844      0.99962     2.19012    0.00870     3.19844
      C    5   -0.08474      0.99960     2.07422    0.01092     3.08474
      N    6   -0.25198      0.99963     2.74274    0.00962     3.75198
      C    7   -0.08405      0.99961     2.07403    0.01041     3.08405
      C    8   -0.20278      0.99959     2.19410    0.00909     3.20278
      C    9    0.36815      0.99962     1.60954    0.02268     2.63185
      O   10   -0.35038      0.99987     3.34529    0.00522     4.35038
      C   11   -0.26329      0.99953     2.25459    0.00916     3.26329
      C   12    0.13317      0.99967     1.84809    0.01907     2.86683
      S   13   -0.14270      4.99953     3.12842    0.01475     8.14270
      N   14   -0.37832      0.99965     2.86817    0.01050     3.87832
      H   15    0.09587      0.00000     0.40324    0.00088     0.40413
      H   16    0.10180      0.00000     0.39730    0.00090     0.39820
      H   17    0.09769      0.00000     0.40151    0.00080     0.40231
      H   18    0.09008      0.00000     0.40762    0.00230     0.40992
      H   19    0.09963      0.00000     0.39937    0.00100     0.40037
      H   20    0.09983      0.00000     0.39882    0.00135     0.40017
      H   21    0.10317      0.00000     0.39566    0.00117     0.39683
      H   22    0.09583      0.00000     0.40176    0.00241     0.40417
      H   23    0.11471      0.00000     0.38406    0.00124     0.38529
      H   24    0.09260      0.00000     0.40647    0.00093     0.40740
      H   25    0.09946      0.00000     0.39969    0.00085     0.40054
      H   26    0.09969      0.00000     0.39918    0.00113     0.40031
      H   27    0.11277      0.00000     0.38540    0.00183     0.38723
      H   28    0.09820      0.00000     0.40093    0.00087     0.40180
      H   29    0.11296      0.00000     0.38617    0.00087     0.38704
      H   30    0.12307      0.00000     0.37536    0.00157     0.37693
      H   31    0.20910      0.00000     0.28942    0.00148     0.29090
      H   32    0.19174      0.00000     0.30703    0.00123     0.30826
 =======================================================================
   * Total *    0.00000     17.99479    39.82805    0.17716    58.00000

 Normal termination of Gaussian 16 at Thu Dec 10 10:31:02 2020.
