 Gaussian 16, Revision A.03,

 -----------------------------------------------------------
 # opt freq B3LYP/6-31G(d) empiricaldispersion=gd3bj scf=xqc
 -----------------------------------------------------------

 -------------------------------
 CID_115560462_JID_5085_neutraal
 -------------------------------
 Symbolic Z-matrix:
 Charge =  0 Multiplicity = 1

 SCF Done:  E(RB3LYP) =  -673.942693264     A.U. after   14 cycles
 SCF Done:  E(RB3LYP) =  -673.957942245     A.U. after   12 cycles
 SCF Done:  E(RB3LYP) =  -673.959766908     A.U. after   12 cycles
 SCF Done:  E(RB3LYP) =  -673.958122770     A.U. after   13 cycles
 SCF Done:  E(RB3LYP) =  -673.960328607     A.U. after   11 cycles
 SCF Done:  E(RB3LYP) =  -673.960601787     A.U. after   12 cycles
 SCF Done:  E(RB3LYP) =  -673.960646996     A.U. after   11 cycles
 SCF Done:  E(RB3LYP) =  -673.960676975     A.U. after   11 cycles
 SCF Done:  E(RB3LYP) =  -673.960702746     A.U. after   11 cycles
 SCF Done:  E(RB3LYP) =  -673.960692576     A.U. after   10 cycles
 SCF Done:  E(RB3LYP) =  -673.960900185     A.U. after   10 cycles
 SCF Done:  E(RB3LYP) =  -673.960899803     A.U. after    8 cycles
 SCF Done:  E(RB3LYP) =  -673.960901397     A.U. after    9 cycles
 SCF Done:  E(RB3LYP) =  -673.960901648     A.U. after    7 cycles
 SCF Done:  E(RB3LYP) =  -673.960901731     A.U. after    6 cycles
 Optimization completed.
    -- Stationary point found.
 Normal termination of Gaussian 16 at Thu Dec 10 14:54:17 2020.

 --------------------------------------------------------------------
 #N Geom=AllCheck Guess=TCheck SCRF=Check GenChk RB3LYP/6-31G(d) Freq
 --------------------------------------------------------------------

 Structure from the checkpoint file:  "JID_5085.chk"
 -------------------------------
 CID_115560462_JID_5085_neutraal
 -------------------------------
 Charge =  0 Multiplicity = 1

 SCF Done:  E(RB3LYP) =  -673.960901731     A.U. after    1 cycles

  Exact polarizability: 143.940   3.066 123.140   1.142  -0.347 118.439
 Approx polarizability: 177.005   2.569 189.153   4.205   2.860 182.553

                      1                      2                      3
                      A                      A                      A
 Frequencies --     32.9092                53.6819                75.4037
 Red. masses --      3.2756                 4.4568                 5.6496
 Frc consts  --      0.0021                 0.0076                 0.0189
 IR Inten    --      0.2144                 1.8879                 1.0038

                      4                      5                      6
                      A                      A                      A
 Frequencies --     83.7921               101.8295               122.6220
 Red. masses --      3.0197                 3.8970                 4.1494
 Frc consts  --      0.0125                 0.0238                 0.0368
 IR Inten    --      0.4739                 0.3148                 0.7960

                      7                      8                      9
                      A                      A                      A
 Frequencies --    195.7168               213.1497               245.8763
 Red. masses --      3.3718                 3.5117                 1.9573
 Frc consts  --      0.0761                 0.0940                 0.0697
 IR Inten    --      0.7763                 0.7110                 1.6698

                     10                     11                     12
                      A                      A                      A
 Frequencies --    286.8010               349.1535               393.3395
 Red. masses --      2.8392                 2.6951                 1.9752
 Frc consts  --      0.1376                 0.1936                 0.1801
 IR Inten    --      0.4941                 8.1711                 1.6092

                     13                     14                     15
                      A                      A                      A
 Frequencies --    429.1108               437.6742               473.0596
 Red. masses --      2.4726                 3.3533                 3.4169
 Frc consts  --      0.2683                 0.3785                 0.4505
 IR Inten    --      0.8375                 2.3893                 4.8561

                     16                     17                     18
                      A                      A                      A
 Frequencies --    532.3337               551.4222               576.1033
 Red. masses --      3.8412                 3.2504                 2.0679
 Frc consts  --      0.6413                 0.5823                 0.4044
 IR Inten    --      3.6629                12.4174                16.5149

                     19                     20                     21
                      A                      A                      A
 Frequencies --    604.2276               667.0882               727.0563
 Red. masses --      1.9928                 1.5701                 2.2384
 Frc consts  --      0.4287                 0.4117                 0.6972
 IR Inten    --     43.6503                85.2189                 8.0616

                     22                     23                     24
                      A                      A                      A
 Frequencies --    744.7293               780.3148               789.5250
 Red. masses --      3.1577                 2.4512                 2.6671
 Frc consts  --      1.0319                 0.8794                 0.9796
 IR Inten    --      5.0453                13.4999                 0.8281

                     25                     26                     27
                      A                      A                      A
 Frequencies --    799.9961               826.4314               843.1877
 Red. masses --      3.1959                 3.0548                 3.2942
 Frc consts  --      1.2051                 1.2293                 1.3799
 IR Inten    --      0.8450                 2.0635                 0.6887

                     28                     29                     30
                      A                      A                      A
 Frequencies --    867.9331               889.2054               900.6746
 Red. masses --      2.0618                 2.2936                 1.8953
 Frc consts  --      0.9151                 1.0685                 0.9058
 IR Inten    --      1.3621                31.8490                14.2381

                     31                     32                     33
                      A                      A                      A
 Frequencies --    904.8753               916.7889               949.3924
 Red. masses --      2.5660                 2.4426                 2.4647
 Frc consts  --      1.2379                 1.2096                 1.3089
 IR Inten    --      1.1607                 1.5441                 2.5864

                     34                     35                     36
                      A                      A                      A
 Frequencies --    985.6495               992.7356              1001.1857
 Red. masses --      2.2200                 1.9667                 1.8682
 Frc consts  --      1.2707                 1.1420                 1.1034
 IR Inten    --      4.7863                 2.9620                 2.1193

                     37                     38                     39
                      A                      A                      A
 Frequencies --   1016.0091              1021.6521              1025.2427
 Red. masses --      1.9210                 1.5187                 1.7775
 Frc consts  --      1.1684                 0.9340                 1.1008
 IR Inten    --      9.7698                 4.4022                 6.9411

                     40                     41                     42
                      A                      A                      A
 Frequencies --   1058.1813              1075.6313              1083.9135
 Red. masses --      2.1085                 1.8260                 1.6827
 Frc consts  --      1.3911                 1.2447                 1.1648
 IR Inten    --     82.5483                 7.9926                13.9567

                     43                     44                     45
                      A                      A                      A
 Frequencies --   1102.3332              1143.0702              1160.3861
 Red. masses --      1.6060                 1.6886                 2.1118
 Frc consts  --      1.1498                 1.2999                 1.6754
 IR Inten    --     17.4154                26.5165                 6.4980

                     46                     47                     48
                      A                      A                      A
 Frequencies --   1175.7164              1192.8241              1194.7841
 Red. masses --      1.6635                 1.3084                 1.3234
 Frc consts  --      1.3548                 1.0969                 1.1130
 IR Inten    --     87.8859                 2.5316                10.5432

                     49                     50                     51
                      A                      A                      A
 Frequencies --   1210.7093              1226.8412              1238.4777
 Red. masses --      1.9319                 1.4557                 1.4446
 Frc consts  --      1.6684                 1.2909                 1.3055
 IR Inten    --     67.6200                18.3247                10.2144

                     52                     53                     54
                      A                      A                      A
 Frequencies --   1245.2529              1254.8626              1277.3274
 Red. masses --      1.3704                 1.7141                 1.3069
 Frc consts  --      1.2520                 1.5903                 1.2563
 IR Inten    --     36.8627                25.5946                 2.3746

                     55                     56                     57
                      A                      A                      A
 Frequencies --   1286.8318              1297.0935              1305.3996
 Red. masses --      1.3530                 1.4941                 1.3371
 Frc consts  --      1.3200                 1.4810                 1.3424
 IR Inten    --      1.1453                 6.0720                 0.5533

                     58                     59                     60
                      A                      A                      A
 Frequencies --   1318.0820              1325.4714              1341.8263
 Red. masses --      1.4004                 1.4705                 1.3704
 Frc consts  --      1.4334                 1.5221                 1.4538
 IR Inten    --      0.7899                 0.3337                 0.4761

                     61                     62                     63
                      A                      A                      A
 Frequencies --   1346.7050              1353.2024              1360.3297
 Red. masses --      1.6802                 1.5152                 1.5664
 Frc consts  --      1.7954                 1.6347                 1.7078
 IR Inten    --     20.8500                17.3444                18.1950

                     64                     65                     66
                      A                      A                      A
 Frequencies --   1372.0796              1379.2574              1384.0755
 Red. masses --      1.3788                 1.3565                 1.5423
 Frc consts  --      1.5293                 1.5204                 1.7408
 IR Inten    --     24.6652                 2.6204                 4.2581

                     67                     68                     69
                      A                      A                      A
 Frequencies --   1390.2256              1417.4006              1449.7431
 Red. masses --      1.9730                 1.5407                 1.3930
 Frc consts  --      2.2467                 1.8237                 1.7249
 IR Inten    --     22.8565                22.5037                10.9580

                     70                     71                     72
                      A                      A                      A
 Frequencies --   1510.7514              1514.2139              1517.7023
 Red. masses --      1.0869                 1.0894                 1.0865
 Frc consts  --      1.4615                 1.4717                 1.4746
 IR Inten    --      2.5036                 3.1576                 2.3889

                     73                     74                     75
                      A                      A                      A
 Frequencies --   1532.2718              1536.1934              1538.5992
 Red. masses --      1.1406                 1.1115                 1.0909
 Frc consts  --      1.5777                 1.5455                 1.5215
 IR Inten    --      7.9247                 5.0743                 0.3295

                     76                     77                     78
                      A                      A                      A
 Frequencies --   1554.3016              1824.2800              2989.0925
 Red. masses --      1.0987                 9.1529                 1.0688
 Frc consts  --      1.5639                17.9471                 5.6266
 IR Inten    --      2.3164               251.7612                28.5473

                     79                     80                     81
                      A                      A                      A
 Frequencies --   2998.0527              3039.4464              3044.7950
 Red. masses --      1.0695                 1.0655                 1.0658
 Frc consts  --      5.6639                 5.7995                 5.8217
 IR Inten    --     57.6372                31.0042                30.9049

                     82                     83                     84
                      A                      A                      A
 Frequencies --   3045.7242              3061.5052              3064.6156
 Red. masses --      1.0857                 1.0931                 1.0629
 Frc consts  --      5.9340                 6.0364                 5.8816
 IR Inten    --     21.6274                39.9249                28.2996

                     85                     86                     87
                      A                      A                      A
 Frequencies --   3083.7422              3086.5991              3089.4528
 Red. masses --      1.0870                 1.0629                 1.0703
 Frc consts  --      6.0901                 5.9662                 6.0191
 IR Inten    --     40.8490                18.5532                28.6883

                     88                     89                     90
                      A                      A                      A
 Frequencies --   3091.0589              3092.0942              3099.9588
 Red. masses --      1.0922                 1.0951                 1.0884
 Frc consts  --      6.1484                 6.1689                 6.1621
 IR Inten    --     18.5717                16.3845                66.7790

                     91                     92                     93
                      A                      A                      A
 Frequencies --   3101.4336              3115.0728              3124.3578
 Red. masses --      1.0905                 1.1056                 1.0867
 Frc consts  --      6.1804                 6.3211                 6.2498
 IR Inten    --     45.4664                76.3514                13.2348

                     94                     95                     96
                      A                      A                      A
 Frequencies --   3140.1116              3157.3408              3687.5606
 Red. masses --      1.1057                 1.1051                 1.0640
 Frc consts  --      6.4235                 6.4908                 8.5248
 IR Inten    --     19.8738                26.2735                49.8538

 - Thermochemistry -
 -------------------
 Temperature   298.150 Kelvin.  Pressure   1.00000 Atm.
 Atom     1 has atomic number  6 and mass  12.00000

 Molecular mass:   209.14158 amu.
 Principal axes and moments of inertia in atomic units:
                           1         2         3
     Eigenvalues --  1514.796784680.367485033.11627
           X            0.99989   0.01487  -0.00119
           Y           -0.01488   0.99982  -0.01186
           Z            0.00101   0.01188   0.99993
 This molecule is an asymmetric top.
 Rotational symmetry number  1.
 Warning -- assumption of classical behavior for rotation
           may cause significant error
 Rotational temperatures (Kelvin)      0.05718     0.01851     0.01721
 Rotational constants (GHZ):           1.19141     0.38560     0.35857
 Zero-point vibrational energy     795613.8 (Joules/Mol)
                                  190.15627 (Kcal/Mol)
 Warning -- explicit consideration of  19 degrees of freedom as
           vibrations may cause significant error
 Vibrational temperatures:     47.35    77.24   108.49   120.56   146.51
          (Kelvin)            176.43   281.59   306.67   353.76   412.64
                              502.35   565.93   617.39   629.72   680.63
                              765.91   793.37   828.88   869.35   959.79
                             1046.07  1071.50  1122.70  1135.95  1151.02
                             1189.05  1213.16  1248.76  1279.37  1295.87
                             1301.91  1319.05  1365.96  1418.13  1428.33
                             1440.48  1461.81  1469.93  1475.10  1522.49
                             1547.59  1559.51  1586.01  1644.62  1669.54
                             1691.59  1716.21  1719.03  1741.94  1765.15
                             1781.89  1791.64  1805.47  1837.79  1851.46
                             1866.23  1878.18  1896.43  1907.06  1930.59
                             1937.61  1946.96  1957.21  1974.12  1984.44
                             1991.38  2000.22  2039.32  2085.86  2173.63
                             2178.62  2183.64  2204.60  2210.24  2213.70
                             2236.29  2624.73  4300.64  4313.53  4373.09
                             4380.78  4382.12  4404.82  4409.30  4436.82
                             4440.93  4445.03  4447.34  4448.83  4460.15
                             4462.27  4481.89  4495.25  4517.92  4542.71
                             5305.58

 Zero-point correction=                           0.303033 (Hartree/Particle)
 Thermal correction to Energy=                    0.316471
 Thermal correction to Enthalpy=                  0.317415
 Thermal correction to Gibbs Free Energy=         0.261856
 Sum of electronic and zero-point Energies=           -673.657868
 Sum of electronic and thermal Energies=              -673.644431
 Sum of electronic and thermal Enthalpies=            -673.643487
 Sum of electronic and thermal Free Energies=         -673.699045

                     E (Thermal)             CV                S
                      KCal/Mol        Cal/Mol-Kelvin    Cal/Mol-Kelvin
 Total                  198.588             52.990            116.933
 Electronic               0.000              0.000              0.000
 Translational            0.889              2.981             41.917
 Rotational               0.889              2.981             31.945
 Vibrational            196.811             47.029             43.070
 Vibration     1          0.594              1.983              5.646
 Vibration     2          0.596              1.976              4.677
 Vibration     3          0.599              1.965              4.007
 Vibration     4          0.601              1.960              3.800
 Vibration     5          0.604              1.948              3.419
 Vibration     6          0.610              1.930              3.059
 Vibration     7          0.636              1.846              2.173
 Vibration     8          0.644              1.821              2.017
 Vibration     9          0.660              1.770              1.760
 Vibration    10          0.684              1.698              1.493
 Vibration    11          0.726              1.577              1.170
 Vibration    12          0.761              1.484              0.987
 Vibration    13          0.790              1.407              0.862
 Vibration    14          0.798              1.388              0.834
 Vibration    15          0.830              1.310              0.729
 Vibration    16          0.887              1.178              0.582
 Vibration    17          0.907              1.137              0.541
 Vibration    18          0.933              1.083              0.493
 Vibration    19          0.963              1.023              0.442

 Optimization completed.
    -- Stationary point found.
 Normal termination of Gaussian 16 at Thu Dec 10 15:05:30 2020.

 ----------------------------------------------------------------------
 # B3LYP/6-311++G(d,p) empiricaldispersion=gd3bj scf=xqc pop=npa geom=c
 heck
 ----------------------------------------------------------------------

 ---------------------------------------
 CID_115560462_JID_5085_Energie_neutraal
 ---------------------------------------
 Structure from the checkpoint file:  "JID_5085.chk"
 Charge =  0 Multiplicity = 1

 SCF Done:  E(RB3LYP) =  -674.151994000     A.U. after   15 cycles
 Normal termination of Gaussian 16 at Thu Dec 10 15:11:16 2020.

 ----------------------------------------------------------------------
 # B3LYP/6-311++G(d,p) empiricaldispersion=gd3bj scf=xqc pop=npa geom=c
 heck
 ----------------------------------------------------------------------

 -------------------------------------
 CID_115560462_JID_5085_Energie_kation
 -------------------------------------
 Structure from the checkpoint file:  "JID_5085.chk"
 Charge =  1 Multiplicity = 2

 SCF Done:  E(UB3LYP) =  -673.870156995     A.U. after   19 cycles
 Normal termination of Gaussian 16 at Thu Dec 10 15:22:58 2020.
 Gaussian 16:  ES64L-G16RevA.03 25-Dec-2016

 ----------------------------------------------------------------------
 # B3LYP/6-311++G(d,p) empiricaldispersion=gd3bj scf=xqc pop=npa geom=c
 heck
 ----------------------------------------------------------------------

 ------------------------------------
 CID_115560462_JID_5085_Energie_anion
 ------------------------------------
 Structure from the checkpoint file:  "JID_5085.chk"
 Charge = -1 Multiplicity = 2

                         Standard orientation:
 ---------------------------------------------------------------------
 Center     Atomic      Atomic             Coordinates (Angstroms)
 Number     Number       Type             X           Y           Z
 ---------------------------------------------------------------------
      1          6           0       -3.452950    0.963907   -0.000571
      2          6           0       -3.425753   -0.237018   -0.955934
      3          6           0       -2.137545   -0.997221   -0.578778
      4          6           0       -0.864621   -0.441851   -1.253918
      5          7           0       -0.284651    0.465705   -0.259991
      6          6           0       -0.474417   -0.187539    1.033423
      7          6           0       -1.918934   -0.706863    0.951277
      8          6           0       -2.992842    0.346538    1.329640
      9          6           0        0.971800    1.042182   -0.614935
     10          6           0        1.718694    1.969715    0.364625
     11          6           0        3.053649    1.491741   -0.260088
     12          6           0        2.346108    0.230197   -0.824444
     13          6           0        2.464668   -1.031514   -0.024347
     14          8           0        2.202630   -2.143048   -0.437790
     15          8           0        2.876468   -0.828713    1.258329
     16          1           0       -4.437250    1.440814    0.064784
     17          1           0       -2.729163    1.717523   -0.328537
     18          1           0       -4.298266   -0.876560   -0.766727
     19          1           0       -3.452943    0.044072   -2.014687
     20          1           0       -2.232548   -2.066131   -0.788687
     21          1           0       -1.079576    0.107421   -2.179032
     22          1           0       -0.170460   -1.261870   -1.501994
     23          1           0       -0.325627    0.521702    1.853017
     24          1           0        0.213911   -1.033500    1.190685
     25          1           0       -2.027207   -1.607334    1.562653
     26          1           0       -2.611263    1.090666    2.037192
     27          1           0       -3.841116   -0.154356    1.813300
     28          1           0        0.823299    1.571925   -1.564021
     29          1           0        1.472030    3.034560    0.325343
     30          1           0        1.631537    1.620193    1.396259
     31          1           0        3.886249    1.317891    0.423084
     32          1           0        3.386230    2.143483   -1.073251
     33          1           0        2.547383   -0.038688   -1.863138
     34          1           0        2.877406   -1.711310    1.673678
 ---------------------------------------------------------------------

 SCF Done:  E(UB3LYP) =  -674.138166556     A.U. after   33 cycles
 SCF Done:  E(UB3LYP) =  -674.138166556     a.u. after    1 cycles

 The electronic state is 2-A.
 Alpha  occ. eigenvalues --  -19.06861 -19.01294 -14.20490 -10.20566 -10.11317
 Alpha  occ. eigenvalues --  -10.08826 -10.08760 -10.08705 -10.07630 -10.07264
 Alpha  occ. eigenvalues --  -10.07145 -10.07126 -10.06564 -10.06389 -10.06232
 Alpha  occ. eigenvalues --   -1.00858  -0.91801  -0.84189  -0.75789  -0.72544
 Alpha  occ. eigenvalues --   -0.64509  -0.63551  -0.60972  -0.57481  -0.55949
 Alpha  occ. eigenvalues --   -0.52172  -0.49803  -0.46603  -0.45841  -0.44449
 Alpha  occ. eigenvalues --   -0.41862  -0.40622  -0.39520  -0.38030  -0.36620
 Alpha  occ. eigenvalues --   -0.35639  -0.34452  -0.33198  -0.32708  -0.32235
 Alpha  occ. eigenvalues --   -0.31091  -0.30279  -0.28278  -0.27591  -0.26693
 Alpha  occ. eigenvalues --   -0.25094  -0.24384  -0.23922  -0.23232  -0.22824
 Alpha  occ. eigenvalues --   -0.22331  -0.22259  -0.22187  -0.21855  -0.21184
 Alpha  occ. eigenvalues --   -0.17889  -0.11290   0.04301
 Alpha virt. eigenvalues --    0.06080   0.06380   0.07756   0.08107   0.08390
 Alpha virt. eigenvalues --    0.08610   0.09283   0.09751   0.10304   0.10869
 Alpha virt. eigenvalues --    0.11121   0.11657   0.11985   0.12156   0.13787

  Beta  occ. eigenvalues --  -19.06816 -19.01278 -14.20489 -10.20565 -10.11307
  Beta  occ. eigenvalues --  -10.08816 -10.08744 -10.08689 -10.07608 -10.07260
  Beta  occ. eigenvalues --  -10.07135 -10.07114 -10.06551 -10.06375 -10.06224
  Beta  occ. eigenvalues --   -1.00800  -0.91752  -0.84174  -0.75764  -0.72522
  Beta  occ. eigenvalues --   -0.64484  -0.63528  -0.60923  -0.57446  -0.55912
  Beta  occ. eigenvalues --   -0.52100  -0.49754  -0.46557  -0.45794  -0.44415
  Beta  occ. eigenvalues --   -0.41826  -0.40581  -0.39491  -0.37991  -0.36588
  Beta  occ. eigenvalues --   -0.35609  -0.34417  -0.33175  -0.32684  -0.32209
  Beta  occ. eigenvalues --   -0.31067  -0.30240  -0.28251  -0.27568  -0.26669
  Beta  occ. eigenvalues --   -0.25065  -0.24358  -0.23893  -0.23202  -0.22797
  Beta  occ. eigenvalues --   -0.22303  -0.22232  -0.22159  -0.21830  -0.21158
  Beta  occ. eigenvalues --   -0.17833  -0.11273
  Beta virt. eigenvalues --    0.06400   0.06987   0.07396   0.08030   0.08586
  Beta virt. eigenvalues --    0.08798   0.08970   0.09558   0.10125   0.10506
  Beta virt. eigenvalues --    0.11220   0.11587   0.11976   0.12222   0.12315

 Mulliken charges and spin densities:
               1          2
     1  C   -0.418392  -0.002171
     2  C    0.233702  -0.685876
     3  C   -0.453619   0.739604
     4  C    0.158179  -0.846606
     5  N    0.322146   0.018149
     6  C   -0.481658  -0.249957
     7  C   -0.077104   0.272361
     8  C    0.780224  -1.144406
     9  C    0.518191  -0.875240
    10  C   -0.400426   0.250558
    11  C    0.829892  -1.593263
    12  C   -0.427467   1.108742
    13  C    0.499821  -1.074348
    14  O   -0.243235   0.044460
    15  O   -0.200960   0.082970
    16  H   -0.061596   0.222019
    17  H    0.101439   0.064566
    18  H   -0.193367   0.334639
    19  H   -0.030398   0.150596
    20  H   -0.100021   0.326192
    21  H   -0.078704   0.225024
    22  H    0.309487  -0.146347
    23  H   -0.198387   0.355378
    24  H    0.042097   0.092556
    25  H   -0.385587   0.619446
    26  H    0.071460   0.046771
    27  H   -0.131314   0.277457
    28  H   -0.156952   0.369857
    29  H   -0.046510   0.197821
    30  H    0.153633  -0.027089
    31  H   -0.012911   0.200953
    32  H   -0.358808   0.499193
    33  H   -0.235964   0.520894
    34  H   -0.326891   0.625098
 Sum of Mulliken charges =  -1.00000   1.00000

 Dipole moment (field-independent basis, Debye):
    X=             -1.0970    Y=              1.8003    Z=             -0.6272  Tot=              2.1996
 Quadrupole moment (field-independent basis, Debye-Ang):
   XX=           -164.0501   YY=           -135.9460   ZZ=           -132.2657
   XY=             -1.1096   XZ=              2.6758   YZ=              7.9984

 Summary of Natural Population Analysis:

                                       Natural Population
                Natural  -----------------------------------------------
    Atom  No    Charge         Core      Valence    Rydberg      Total
 -----------------------------------------------------------------------
      C    1   -0.19563      0.99963     2.18770    0.00830     3.19563
      C    2   -0.18815      0.99962     2.18038    0.00815     3.18815
      C    3   -0.11010      0.99960     2.10021    0.01028     3.11010
      C    4   -0.08395      0.99961     2.07460    0.00974     3.08395
      N    5   -0.28212      0.99968     2.77059    0.01186     3.78212
      C    6   -0.08174      0.99959     2.07111    0.01104     3.08174
      C    7   -0.10830      0.99960     2.09759    0.01112     3.10830
      C    8   -0.18891      0.99962     2.18074    0.00855     3.18891
      C    9    0.01641      0.99957     1.96854    0.01548     2.98359
      C   10   -0.19128      0.99962     2.18329    0.00837     3.19128
      C   11   -0.18749      0.99964     2.17884    0.00901     3.18749
      C   12   -0.16488      0.99953     2.15309    0.01226     3.16488
      C   13    0.40403      0.99965     1.57046    0.02585     2.59597
      O   14   -0.30911      0.99987     3.30326    0.00598     4.30911
      O   15   -0.34925      0.99988     3.34221    0.00716     4.34925
      H   16    0.09543      0.00000     0.40358    0.00100     0.40457
      H   17    0.10042      0.00000     0.39782    0.00176     0.39958
      H   18    0.09560      0.00000     0.40311    0.00129     0.40440
      H   19    0.09770      0.00000     0.40139    0.00091     0.40230
      H   20    0.10267      0.00000     0.39638    0.00095     0.39733
      H   21    0.09341      0.00000     0.40534    0.00125     0.40659
      H   22    0.09355      0.00000     0.40488    0.00157     0.40645
      H   23    0.09636      0.00000     0.40214    0.00151     0.40364
      H   24    0.08711      0.00000     0.41052    0.00238     0.41289
      H   25    0.10368      0.00000     0.39498    0.00134     0.39632
      H   26    0.09822      0.00000     0.40084    0.00094     0.40178
      H   27    0.09618      0.00000     0.40249    0.00132     0.40382
      H   28    0.09798      0.00000     0.40039    0.00163     0.40202
      H   29    0.09706      0.00000     0.40182    0.00112     0.40294
      H   30    0.10262      0.00000     0.39565    0.00174     0.39738
      H   31    0.10519      0.00000     0.39355    0.00126     0.39481
      H   32    0.10070      0.00000     0.39766    0.00164     0.39930
      H   33    0.11289      0.00000     0.38583    0.00127     0.38711
      H   34    0.24372      0.00000     0.24644    0.00984     0.25628
 =======================================================================
   * Total *    0.00000     14.99473    41.80741    0.19786    57.00000

 Normal termination of Gaussian 16 at Thu Dec 10 15:42:27 2020.
