 Gaussian 16, Revision A.03,

 -----------------------------------------------------------
 # opt freq B3LYP/6-31G(d) empiricaldispersion=gd3bj scf=xqc
 -----------------------------------------------------------

 -------------------------------
 CID_121209825_JID_4786_neutraal
 -------------------------------
 Symbolic Z-matrix:
 Charge =  0 Multiplicity = 1

 SCF Done:  E(RB3LYP) =  -630.725748266     A.U. after   14 cycles
 SCF Done:  E(RB3LYP) =  -630.737334124     A.U. after   12 cycles
 SCF Done:  E(RB3LYP) =  -630.738482212     A.U. after   11 cycles
 SCF Done:  E(RB3LYP) =  -630.738707829     A.U. after   12 cycles
 SCF Done:  E(RB3LYP) =  -630.739405718     A.U. after   11 cycles
 SCF Done:  E(RB3LYP) =  -630.740096698     A.U. after   12 cycles
 SCF Done:  E(RB3LYP) =  -630.742008985     A.U. after   13 cycles
 SCF Done:  E(RB3LYP) =  -630.742999441     A.U. after   12 cycles
 SCF Done:  E(RB3LYP) =  -630.743574986     A.U. after   11 cycles
 SCF Done:  E(RB3LYP) =  -630.743845642     A.U. after   11 cycles
 SCF Done:  E(RB3LYP) =  -630.743962584     A.U. after   10 cycles
 SCF Done:  E(RB3LYP) =  -630.743965845     A.U. after    8 cycles
 SCF Done:  E(RB3LYP) =  -630.743967911     A.U. after    9 cycles
 SCF Done:  E(RB3LYP) =  -630.743969006     A.U. after    8 cycles
 SCF Done:  E(RB3LYP) =  -630.743969413     A.U. after    8 cycles
 SCF Done:  E(RB3LYP) =  -630.743969478     A.U. after    7 cycles
 Optimization completed.
    -- Stationary point found.
 Normal termination of Gaussian 16 at Thu Dec 10 10:42:00 2020.

 --------------------------------------------------------------------
 #N Geom=AllCheck Guess=TCheck SCRF=Check GenChk RB3LYP/6-31G(d) Freq
 --------------------------------------------------------------------

 Structure from the checkpoint file:  "JID_4786.chk"
 -------------------------------
 CID_121209825_JID_4786_neutraal
 -------------------------------
 Charge =  0 Multiplicity = 1

 SCF Done:  E(RB3LYP) =  -630.743969478     A.U. after    1 cycles

  Exact polarizability: 131.079  -2.886 123.675  -0.768   0.865 104.056
 Approx polarizability: 163.193  -3.166 187.426  -1.058  -0.727 153.902

                      1                      2                      3
                      A                      A                      A
 Frequencies --     39.6180                62.6913                85.1046
 Red. masses --      3.0186                 3.2532                 3.4953
 Frc consts  --      0.0028                 0.0075                 0.0149
 IR Inten    --      0.6081                 0.4222                 0.8796

                      4                      5                      6
                      A                      A                      A
 Frequencies --    113.8081               135.9925               149.4907
 Red. masses --      6.1237                 2.9484                 4.4539
 Frc consts  --      0.0467                 0.0321                 0.0586
 IR Inten    --      5.2365                 2.0877                 3.5679

                      7                      8                      9
                      A                      A                      A
 Frequencies --    181.4577               212.9557               226.0994
 Red. masses --      3.7929                 1.8850                 2.1391
 Frc consts  --      0.0736                 0.0504                 0.0644
 IR Inten    --      0.3758                 1.5404                 3.6753

                     10                     11                     12
                      A                      A                      A
 Frequencies --    247.5285               289.4207               301.9838
 Red. masses --      1.5463                 2.6558                 3.4549
 Frc consts  --      0.0558                 0.1311                 0.1856
 IR Inten    --      0.0958                 0.7186                 2.3374

                     13                     14                     15
                      A                      A                      A
 Frequencies --    372.8007               401.6265               410.0210
 Red. masses --      2.3622                 2.4543                 2.8566
 Frc consts  --      0.1934                 0.2333                 0.2829
 IR Inten    --      3.1319                 5.7638                 6.9205

                     16                     17                     18
                      A                      A                      A
 Frequencies --    432.8980               468.2018               504.5803
 Red. masses --      3.3606                 2.3512                 3.1844
 Frc consts  --      0.3711                 0.3037                 0.4777
 IR Inten    --      0.7326                 7.7029                 1.1464

                     19                     20                     21
                      A                      A                      A
 Frequencies --    528.4239               553.7831               590.9214
 Red. masses --      5.4989                 6.3520                 2.3094
 Frc consts  --      0.9047                 1.1477                 0.4751
 IR Inten    --      1.2777                 0.1316                10.4475

                     22                     23                     24
                      A                      A                      A
 Frequencies --    621.8989               767.3184               804.0022
 Red. masses --      3.6460                 1.4485                 1.7677
 Frc consts  --      0.8308                 0.5025                 0.6732
 IR Inten    --      2.9101                96.5448                 5.0600

                     25                     26                     27
                      A                      A                      A
 Frequencies --    822.5938               854.0868               879.4165
 Red. masses --      2.8746                 2.1337                 2.9109
 Frc consts  --      1.1460                 0.9170                 1.3264
 IR Inten    --      6.4510                 1.5042                 5.7179

                     28                     29                     30
                      A                      A                      A
 Frequencies --    909.3203               926.2105               933.5334
 Red. masses --      1.6167                 3.4509                 2.4443
 Frc consts  --      0.7876                 1.7442                 1.2551
 IR Inten    --      2.4956                 1.7165                 1.2601

                     31                     32                     33
                      A                      A                      A
 Frequencies --    986.9767              1020.0622              1021.8161
 Red. masses --      2.6863                 1.7435                 2.4258
 Frc consts  --      1.5418                 1.0688                 1.4923
 IR Inten    --     12.5164                 2.3974                 2.6648

                     34                     35                     36
                      A                      A                      A
 Frequencies --   1030.3902              1055.7518              1078.4744
 Red. masses --      2.1539                 1.7378                 2.8231
 Frc consts  --      1.3474                 1.1413                 1.9346
 IR Inten    --     14.6553                 8.3505                16.1804

                     37                     38                     39
                      A                      A                      A
 Frequencies --   1094.7337              1112.9105              1141.8382
 Red. masses --      2.2014                 3.8991                 3.6092
 Frc consts  --      1.5544                 2.8454                 2.7725
 IR Inten    --      2.9319                14.9566                16.2333

                     40                     41                     42
                      A                      A                      A
 Frequencies --   1151.8162              1155.3516              1172.9546
 Red. masses --      1.3565                 1.2492                 2.2047
 Frc consts  --      1.0604                 0.9824                 1.7872
 IR Inten    --      9.1519                 4.1472                41.8116

                     43                     44                     45
                      A                      A                      A
 Frequencies --   1178.4935              1190.3932              1203.4112
 Red. masses --      2.2041                 1.5687                 2.5110
 Frc consts  --      1.8036                 1.3097                 2.1425
 IR Inten    --     29.9502                 7.4618                29.1752

                     46                     47                     48
                      A                      A                      A
 Frequencies --   1234.9293              1243.0874              1249.6094
 Red. masses --      2.4108                 1.3607                 1.5061
 Frc consts  --      2.1662                 1.2388                 1.3857
 IR Inten    --     59.7317                21.2463                 6.9478

                     49                     50                     51
                      A                      A                      A
 Frequencies --   1283.2326              1302.1100              1309.3992
 Red. masses --      1.3333                 1.7160                 1.4178
 Frc consts  --      1.2936                 1.7142                 1.4322
 IR Inten    --     14.3839                 3.2738                 0.8980

                     52                     53                     54
                      A                      A                      A
 Frequencies --   1330.9581              1338.0758              1359.7906
 Red. masses --      1.6489                 1.2839                 1.4691
 Frc consts  --      1.7210                 1.3544                 1.6005
 IR Inten    --     45.9608                 3.0702                12.9896

                     55                     56                     57
                      A                      A                      A
 Frequencies --   1377.9416              1401.0096              1409.0463
 Red. masses --      1.3335                 1.2280                 1.5109
 Frc consts  --      1.4918                 1.4202                 1.7674
 IR Inten    --      2.0855                 7.8975                47.7502

                     58                     59                     60
                      A                      A                      A
 Frequencies --   1410.5828              1444.4508              1483.8476
 Red. masses --      1.4612                 1.3351                 1.2181
 Frc consts  --      1.7130                 1.6413                 1.5802
 IR Inten    --     15.5840                14.0287                 1.9074

                     61                     62                     63
                      A                      A                      A
 Frequencies --   1493.5562              1496.1313              1506.2623
 Red. masses --      1.0960                 1.2068                 1.0925
 Frc consts  --      1.4405                 1.5915                 1.4603
 IR Inten    --      4.0238                 4.3274                 4.9241

                     64                     65                     66
                      A                      A                      A
 Frequencies --   1521.1589              1522.4539              1531.2313
 Red. masses --      1.0538                 1.0785                 1.0806
 Frc consts  --      1.4366                 1.4728                 1.4928
 IR Inten    --      7.0609                 1.8247                 0.6325

                     67                     68                     69
                      A                      A                      A
 Frequencies --   1540.3730              1546.1336              1553.6997
 Red. masses --      1.0977                 1.0577                 1.1183
 Frc consts  --      1.5345                 1.4897                 1.5905
 IR Inten    --      3.9070                12.5003                 9.4871

                     70                     71                     72
                      A                      A                      A
 Frequencies --   2363.0432              2952.6109              2966.9642
 Red. masses --     12.7072                 1.0618                 1.0828
 Frc consts  --     41.8063                 5.4539                 5.6157
 IR Inten    --      4.9552                81.8149                70.4872

                     73                     74                     75
                      A                      A                      A
 Frequencies --   2997.9253              3012.2199              3020.5637
 Red. masses --      1.0670                 1.0703                 1.0686
 Frc consts  --      5.6502                 5.7217                 5.7444
 IR Inten    --     75.7376                18.3069                35.9825

                     76                     77                     78
                      A                      A                      A
 Frequencies --   3041.2759              3064.8127              3075.6687
 Red. masses --      1.0594                 1.0605                 1.0607
 Frc consts  --      5.7732                 5.8689                 5.9119
 IR Inten    --    105.1342                14.4712                 8.1064

                     79                     80                     81
                      A                      A                      A
 Frequencies --   3079.3084              3081.9173              3088.1720
 Red. masses --      1.0757                 1.0960                 1.1026
 Frc consts  --      6.0097                 6.1333                 6.1955
 IR Inten    --     17.4134                33.1734                61.8928

                     82                     83                     84
                      A                      A                      A
 Frequencies --   3105.8542              3112.1009              3114.3111
 Red. masses --      1.0967                 1.1003                 1.0961
 Frc consts  --      6.2328                 6.2788                 6.2636
 IR Inten    --     36.2953                19.4772                44.8010

                     85                     86                     87
                      A                      A                      A
 Frequencies --   3126.5060              3127.9455              3492.9470
 Red. masses --      1.1060                 1.1019                 1.0742
 Frc consts  --      6.3697                 6.3523                 7.7215
 IR Inten    --     24.3228                27.8852                 0.2892

 - Thermochemistry -
 -------------------
 Temperature   298.150 Kelvin.  Pressure   1.00000 Atm.
 Atom     1 has atomic number  6 and mass  12.00000

 Molecular mass:   195.13716 amu.
 Principal axes and moments of inertia in atomic units:
                           1         2         3
     Eigenvalues --  1764.142313876.906244744.32705
           X            0.99998  -0.00613  -0.00159
           Y            0.00617   0.99970   0.02374
           Z            0.00145  -0.02375   0.99972
 This molecule is an asymmetric top.
 Rotational symmetry number  1.
 Warning -- assumption of classical behavior for rotation
           may cause significant error
 Rotational temperatures (Kelvin)      0.04910     0.02234     0.01826
 Rotational constants (GHZ):           1.02301     0.46551     0.38040
 Zero-point vibrational energy     712593.8 (Joules/Mol)
                                  170.31401 (Kcal/Mol)
 Warning -- explicit consideration of  21 degrees of freedom as
           vibrations may cause significant error
 Vibrational temperatures:     57.00    90.20   122.45   163.74   195.66
          (Kelvin)            215.08   261.08   306.40   325.31   356.14
                              416.41   434.49   536.38   577.85   589.93
                              622.84   673.64   725.98   760.28   796.77
                              850.20   894.77  1104.00  1156.78  1183.53
                             1228.84  1265.28  1308.31  1332.61  1343.15
                             1420.04  1467.64  1470.17  1482.50  1518.99
                             1551.68  1575.08  1601.23  1642.85  1657.21
                             1662.29  1687.62  1695.59  1712.71  1731.44
                             1776.79  1788.53  1797.91  1846.29  1873.45
                             1883.93  1914.95  1925.19  1956.44  1982.55
                             2015.74  2027.30  2029.51  2078.24  2134.93
                             2148.89  2152.60  2167.18  2188.61  2190.47
                             2203.10  2216.25  2224.54  2235.43  3399.89
                             4248.15  4268.80  4313.35  4333.91  4345.92
                             4375.72  4409.58  4425.20  4430.44  4434.19
                             4443.19  4468.63  4477.62  4480.80  4498.34
                             4500.42  5025.57

 Zero-point correction=                           0.271413 (Hartree/Particle)
 Thermal correction to Energy=                    0.285158
 Thermal correction to Enthalpy=                  0.286102
 Thermal correction to Gibbs Free Energy=         0.230740
 Sum of electronic and zero-point Energies=           -630.472557
 Sum of electronic and thermal Energies=              -630.458812
 Sum of electronic and thermal Enthalpies=            -630.457868
 Sum of electronic and thermal Free Energies=         -630.513229

                     E (Thermal)             CV                S
                      KCal/Mol        Cal/Mol-Kelvin    Cal/Mol-Kelvin
 Total                  178.939             52.262            116.519
 Electronic               0.000              0.000              0.000
 Translational            0.889              2.981             41.711
 Rotational               0.889              2.981             31.851
 Vibrational            177.162             46.301             42.957
 Vibration     1          0.594              1.981              5.278
 Vibration     2          0.597              1.972              4.371
 Vibration     3          0.601              1.960              3.770
 Vibration     4          0.607              1.938              3.203
 Vibration     5          0.614              1.917              2.860
 Vibration     6          0.618              1.903              2.679
 Vibration     7          0.630              1.865              2.313
 Vibration     8          0.644              1.821              2.018
 Vibration     9          0.650              1.801              1.910
 Vibration    10          0.661              1.767              1.748
 Vibration    11          0.686              1.693              1.477
 Vibration    12          0.694              1.670              1.406
 Vibration    13          0.744              1.528              1.068
 Vibration    14          0.767              1.467              0.957
 Vibration    15          0.774              1.448              0.927
 Vibration    16          0.794              1.399              0.849
 Vibration    17          0.825              1.321              0.743
 Vibration    18          0.860              1.240              0.647
 Vibration    19          0.883              1.187              0.591
 Vibration    20          0.909              1.131              0.536
 Vibration    21          0.948              1.051              0.466

 Optimization completed.
    -- Stationary point found.
 Normal termination of Gaussian 16 at Thu Dec 10 10:51:05 2020.

 ----------------------------------------------------------------------
 # B3LYP/6-311++G(d,p) empiricaldispersion=gd3bj scf=xqc pop=npa geom=c
 heck
 ----------------------------------------------------------------------

 ---------------------------------------
 CID_121209825_JID_4786_Energie_neutraal
 ---------------------------------------
 Structure from the checkpoint file:  "JID_4786.chk"
 Charge =  0 Multiplicity = 1

 SCF Done:  E(RB3LYP) =  -630.922500999     A.U. after   15 cycles
 Normal termination of Gaussian 16 at Thu Dec 10 10:54:50 2020.

 ----------------------------------------------------------------------
 # B3LYP/6-311++G(d,p) empiricaldispersion=gd3bj scf=xqc pop=npa geom=c
 heck
 ----------------------------------------------------------------------

 -------------------------------------
 CID_121209825_JID_4786_Energie_kation
 -------------------------------------
 Structure from the checkpoint file:  "JID_4786.chk"
 Charge =  1 Multiplicity = 2

 SCF Done:  E(UB3LYP) =  -630.627229469     A.U. after   23 cycles
 Normal termination of Gaussian 16 at Thu Dec 10 11:03:37 2020.
 Gaussian 16:  ES64L-G16RevA.03 25-Dec-2016

 ----------------------------------------------------------------------
 # B3LYP/6-311++G(d,p) empiricaldispersion=gd3bj scf=xqc pop=npa geom=c
 heck
 ----------------------------------------------------------------------

 ------------------------------------
 CID_121209825_JID_4786_Energie_anion
 ------------------------------------
 Structure from the checkpoint file:  "JID_4786.chk"
 Charge = -1 Multiplicity = 2

                         Standard orientation:
 ---------------------------------------------------------------------
 Center     Atomic      Atomic             Coordinates (Angstroms)
 Number     Number       Type             X           Y           Z
 ---------------------------------------------------------------------
      1          6           0        4.294258   -0.956476   -0.434534
      2          7           0        3.386323    0.168989   -0.250439
      3          6           0        2.292820   -0.130652    0.652262
      4          6           0        1.312844    1.053639    0.828559
      5          7           0        0.417494    0.415237   -0.143822
      6          6           0        1.118007   -0.876457   -0.034994
      7          6           0       -1.022960    0.640711   -0.142548
      8          6           0       -1.687721   -0.066020   -1.354493
      9          6           0       -1.980423   -1.542036   -1.080750
     10          8           0       -2.791198   -1.705197    0.074177
     11          6           0       -2.132442   -1.237088    1.240508
     12          6           0       -1.804865    0.256267    1.155332
     13          6           0       -1.169917    2.103962   -0.325128
     14          7           0       -1.287429    3.252603   -0.440574
     15          1           0        3.764229   -1.773674   -0.936880
     16          1           0        4.711680   -1.359990    0.507310
     17          1           0        5.124198   -0.654426   -1.080405
     18          1           0        3.903018    0.968807    0.110292
     19          1           0        2.620281   -0.598659    1.596483
     20          1           0        0.915403    1.115641    1.854275
     21          1           0        1.671561    2.043750    0.524084
     22          1           0        1.338635   -1.351564   -0.997465
     23          1           0        0.655724   -1.612250    0.636092
     24          1           0       -2.638740    0.432817   -1.567013
     25          1           0       -1.038612    0.052514   -2.227736
     26          1           0       -1.051611   -2.122636   -0.975410
     27          1           0       -2.546493   -1.968843   -1.913469
     28          1           0       -1.225472   -1.832147    1.425141
     29          1           0       -2.821313   -1.418750    2.070640
     30          1           0       -1.237832    0.573105    2.037629
     31          1           0       -2.747390    0.814987    1.161570
 ---------------------------------------------------------------------

 SCF Done:  E(UB3LYP) =  -630.912301870     A.U. after   30 cycles

 The electronic state is 2-A.
 Alpha  occ. eigenvalues --  -19.03979 -14.22519 -14.21777 -14.20280 -10.16486
 Alpha  occ. eigenvalues --  -10.13398 -10.12878 -10.12119 -10.10542 -10.10218
 Alpha  occ. eigenvalues --  -10.10180 -10.09661 -10.09098 -10.08705  -0.95582
 Alpha  occ. eigenvalues --   -0.86981  -0.82230  -0.80277  -0.73685  -0.68660
 Alpha  occ. eigenvalues --   -0.63633  -0.60119  -0.57813  -0.56402  -0.54963
 Alpha  occ. eigenvalues --   -0.49169  -0.46050  -0.44810  -0.42076  -0.40852
 Alpha  occ. eigenvalues --   -0.39635  -0.38254  -0.37718  -0.35522  -0.35439
 Alpha  occ. eigenvalues --   -0.33530  -0.31755  -0.31157  -0.30663  -0.30635
 Alpha  occ. eigenvalues --   -0.29486  -0.28748  -0.27796  -0.27477  -0.26668
 Alpha  occ. eigenvalues --   -0.25674  -0.24371  -0.23553  -0.23231  -0.21973
 Alpha  occ. eigenvalues --   -0.17675  -0.13925  -0.12343   0.04155
 Alpha virt. eigenvalues --    0.06295   0.06655   0.07607   0.08234   0.08993
 Alpha virt. eigenvalues --    0.09074   0.10054   0.10260   0.10647   0.11009
 Alpha virt. eigenvalues --    0.11493   0.11868   0.12166   0.12914   0.13263

  Beta  occ. eigenvalues --  -19.03973 -14.22517 -14.21776 -14.20258 -10.16486
  Beta  occ. eigenvalues --  -10.13383 -10.12846 -10.12116 -10.10519 -10.10201
  Beta  occ. eigenvalues --  -10.10154 -10.09654 -10.09080 -10.08663  -0.95568
  Beta  occ. eigenvalues --   -0.86963  -0.82220  -0.80252  -0.73665  -0.68628
  Beta  occ. eigenvalues --   -0.63604  -0.60066  -0.57763  -0.56356  -0.54890
  Beta  occ. eigenvalues --   -0.49111  -0.45985  -0.44766  -0.42035  -0.40809
  Beta  occ. eigenvalues --   -0.39600  -0.38216  -0.37683  -0.35490  -0.35396
  Beta  occ. eigenvalues --   -0.33494  -0.31726  -0.31120  -0.30628  -0.30592
  Beta  occ. eigenvalues --   -0.29459  -0.28725  -0.27783  -0.27429  -0.26643
  Beta  occ. eigenvalues --   -0.25656  -0.24350  -0.23531  -0.23200  -0.21941
  Beta  occ. eigenvalues --   -0.17641  -0.13874  -0.12307
  Beta virt. eigenvalues --    0.06417   0.07011   0.07522   0.08229   0.08811
  Beta virt. eigenvalues --    0.09398   0.09601   0.10395   0.10665   0.10990
  Beta virt. eigenvalues --    0.11332   0.11602   0.12022   0.12507   0.13275

 Mulliken charges and spin densities:
               1          2
     1  C    0.966091  -1.311868
     2  N   -0.194004   0.131171
     3  C   -0.109268  -0.039139
     4  C    0.653912  -1.062752
     5  N    0.243038   0.056763
     6  C    0.034523  -0.426244
     7  C    0.669580   0.014374
     8  C   -0.702707   0.345199
     9  C    0.091777  -0.525096
    10  O   -0.151416   0.053251
    11  C    1.070170  -1.496197
    12  C   -0.741301   0.222177
    13  C   -0.449619   0.092193
    14  N   -0.258345  -0.006214
    15  H   -0.316264   0.444717
    16  H   -0.357278   0.477288
    17  H   -0.292648   0.422838
    18  H    0.092477   0.123831
    19  H   -0.748428   0.969323
    20  H   -0.112645   0.246042
    21  H    0.122293   0.046717
    22  H    0.067909   0.112335
    23  H    0.290032  -0.198223
    24  H    0.119762   0.073018
    25  H    0.122724   0.042803
    26  H   -0.214052   0.377854
    27  H   -0.170860   0.376688
    28  H   -0.333917   0.493101
    29  H   -0.331308   0.540976
    30  H   -0.203930   0.337416
    31  H    0.143704   0.065657
 Sum of Mulliken charges =  -1.00000   1.00000

 Dipole moment (field-independent basis, Debye):
    X=             -3.9763    Y=              1.7849    Z=             -2.8133  Tot=              5.1876
 Quadrupole moment (field-independent basis, Debye-Ang):
   XX=           -156.6592   YY=           -139.1120   ZZ=           -126.5049
   XY=              7.1427   XZ=              0.2062   YZ=              6.2993

 Summary of Natural Population Analysis:

                                       Natural Population
                Natural  -----------------------------------------------
    Atom  No    Charge         Core      Valence    Rydberg      Total
 -----------------------------------------------------------------------
      C    1   -0.17947      0.99966     2.17132    0.00849     3.17947
      N    2   -0.33400      0.99973     2.82234    0.01193     3.83400
      C    3   -0.01362      0.99957     1.99944    0.01461     3.01362
      C    4   -0.07669      0.99963     2.06557    0.01149     3.07669
      N    5   -0.28575      0.99969     2.77236    0.01370     3.78575
      C    6   -0.07859      0.99961     2.06760    0.01138     3.07859
      C    7    0.02562      0.99946     1.96123    0.01369     2.97438
      C    8   -0.19898      0.99959     2.18951    0.00988     3.19898
      C    9   -0.01204      0.99957     2.00029    0.01218     3.01204
      O   10   -0.29884      0.99989     3.28978    0.00917     4.29884
      C   11   -0.01120      0.99957     1.99827    0.01336     3.01120
      C   12   -0.20765      0.99959     2.19782    0.01024     3.20765
      C   13    0.17097      0.99961     1.80770    0.02172     2.82903
      N   14   -0.18297      0.99979     2.67258    0.01060     3.68297
      H   15    0.09238      0.00000     0.40607    0.00156     0.40762
      H   16    0.08181      0.00000     0.41597    0.00222     0.41819
      H   17    0.09442      0.00000     0.40462    0.00096     0.40558
      H   18    0.17251      0.00000     0.32468    0.00281     0.32749
      H   19    0.08659      0.00000     0.40971    0.00370     0.41341
      H   20    0.08858      0.00000     0.40949    0.00194     0.41142
      H   21    0.09576      0.00000     0.40272    0.00152     0.40424
      H   22    0.09583      0.00000     0.40239    0.00178     0.40417
      H   23    0.08934      0.00000     0.40832    0.00234     0.41066
      H   24    0.10445      0.00000     0.39438    0.00117     0.39555
      H   25    0.11166      0.00000     0.38706    0.00128     0.38834
      H   26    0.08399      0.00000     0.41448    0.00153     0.41601
      H   27    0.09339      0.00000     0.40549    0.00111     0.40661
      H   28    0.08275      0.00000     0.41503    0.00222     0.41725
      H   29    0.09555      0.00000     0.40299    0.00146     0.40445
      H   30    0.11051      0.00000     0.38783    0.00165     0.38949
      H   31    0.10369      0.00000     0.39487    0.00144     0.39631
 =======================================================================
   * Total *   -0.00000     13.99497    38.80192    0.20311    53.00000

 Normal termination of Gaussian 16 at Thu Dec 10 11:13:52 2020.
