 Gaussian 16, Revision A.03,

 -----------------------------------------------------------
 # opt freq B3LYP/6-31G(d) empiricaldispersion=gd3bj scf=xqc
 -----------------------------------------------------------

 -------------------------------
 CID_136845535_JID_5565_neutraal
 -------------------------------
 Symbolic Z-matrix:
 Charge =  0 Multiplicity = 1

 SCF Done:  E(RB3LYP) =  -1146.49558237     A.U. after   15 cycles
 SCF Done:  E(RB3LYP) =  -1146.50369164     A.U. after   13 cycles
 SCF Done:  E(RB3LYP) =  -1146.50505747     A.U. after   12 cycles
 SCF Done:  E(RB3LYP) =  -1146.50532520     A.U. after   12 cycles
 SCF Done:  E(RB3LYP) =  -1146.50556062     A.U. after   11 cycles
 SCF Done:  E(RB3LYP) =  -1146.50567783     A.U. after   11 cycles
 SCF Done:  E(RB3LYP) =  -1146.50578089     A.U. after   12 cycles
 SCF Done:  E(RB3LYP) =  -1146.50580245     A.U. after   10 cycles
 SCF Done:  E(RB3LYP) =  -1146.50584022     A.U. after   11 cycles
 SCF Done:  E(RB3LYP) =  -1146.50588719     A.U. after   11 cycles
 SCF Done:  E(RB3LYP) =  -1146.50737257     A.U. after   11 cycles
 SCF Done:  E(RB3LYP) =  -1146.50739403     A.U. after   11 cycles
 SCF Done:  E(RB3LYP) =  -1146.50739976     A.U. after   10 cycles
 SCF Done:  E(RB3LYP) =  -1146.50740065     A.U. after    9 cycles
 SCF Done:  E(RB3LYP) =  -1146.50740097     A.U. after    7 cycles
 Optimization completed.
    -- Stationary point found.
 Normal termination of Gaussian 16 at Thu Dec 10 15:54:38 2020.

 --------------------------------------------------------------------
 #N Geom=AllCheck Guess=TCheck SCRF=Check GenChk RB3LYP/6-31G(d) Freq
 --------------------------------------------------------------------

 Structure from the checkpoint file:  "JID_5565.chk"
 -------------------------------
 CID_136845535_JID_5565_neutraal
 -------------------------------
 Charge =  0 Multiplicity = 1

 SCF Done:  E(RB3LYP) =  -1146.50740097     A.U. after    1 cycles

  Exact polarizability: 155.321  -6.155 123.772   4.769   0.134  58.716
 Approx polarizability: 222.587  -0.507 227.637  10.049  -2.572  99.097

                      1                      2                      3
                      A                      A                      A
 Frequencies --     40.4859                68.2183               109.4702
 Red. masses --      7.6487                 7.8090                 8.9686
 Frc consts  --      0.0074                 0.0214                 0.0633
 IR Inten    --      1.3327                 3.2650                 1.1935

                      4                      5                      6
                      A                      A                      A
 Frequencies --    152.5327               160.5540               199.8634
 Red. masses --      4.5236                 9.8669                 5.6650
 Frc consts  --      0.0620                 0.1499                 0.1333
 IR Inten    --     18.7931                 9.3001                 7.9970

                      7                      8                      9
                      A                      A                      A
 Frequencies --    223.5470               240.8601               263.9317
 Red. masses --      1.4539                 5.1903                11.8925
 Frc consts  --      0.0428                 0.1774                 0.4881
 IR Inten    --     55.0284                 8.7984                 2.0145

                     10                     11                     12
                      A                      A                      A
 Frequencies --    308.2546               365.8042               386.3056
 Red. masses --      7.3425                 5.0127                 1.8140
 Frc consts  --      0.4111                 0.3952                 0.1595
 IR Inten    --     15.4860                17.2765                57.2373

                     13                     14                     15
                      A                      A                      A
 Frequencies --    420.9173               461.1030               506.7460
 Red. masses --      5.5596                 2.5845                 7.2678
 Frc consts  --      0.5803                 0.3238                 1.0996
 IR Inten    --      2.0531                91.8946                58.2447

                     16                     17                     18
                      A                      A                      A
 Frequencies --    510.9170               518.7770               528.6353
 Red. masses --      8.9893                 1.5252                 6.6695
 Frc consts  --      1.3825                 0.2418                 1.0981
 IR Inten    --      0.5200                89.1717                70.2653

                     19                     20                     21
                      A                      A                      A
 Frequencies --    584.1683               600.9809               631.4311
 Red. masses --      7.9119                 2.2814                 2.5809
 Frc consts  --      1.5908                 0.4855                 0.6063
 IR Inten    --     10.1893                56.3159                30.1837

                     22                     23                     24
                      A                      A                      A
 Frequencies --    663.1346               684.9627               712.7956
 Red. masses --      1.8746                 5.6399                 9.3978
 Frc consts  --      0.4857                 1.5590                 2.8132
 IR Inten    --     19.5278                16.9362                27.2413

                     25                     26                     27
                      A                      A                      A
 Frequencies --    726.6956               742.5131               771.2763
 Red. masses --      4.8078                 5.3916                10.8688
 Frc consts  --      1.4959                 1.7514                 3.8093
 IR Inten    --     44.5895               173.5234                20.7346

                     28                     29                     30
                      A                      A                      A
 Frequencies --    834.1292               850.7575               874.0906
 Red. masses --      3.9485                 1.4266                 6.2689
 Frc consts  --      1.6186                 0.6084                 2.8220
 IR Inten    --    104.4331                10.6839                 5.5883

                     31                     32                     33
                      A                      A                      A
 Frequencies --    938.5026               965.7043              1074.3121
 Red. masses --      1.5841                 7.2446                 4.4823
 Frc consts  --      0.8221                 3.9806                 3.0480
 IR Inten    --    167.8667                 1.9934                16.7888

                     34                     35                     36
                      A                      A                      A
 Frequencies --   1105.9337              1126.7637              1140.0719
 Red. masses --      1.5671                 7.0894                 3.6394
 Frc consts  --      1.1293                 5.3031                 2.7870
 IR Inten    --      7.1081               116.4404                80.9626

                     37                     38                     39
                      A                      A                      A
 Frequencies --   1193.6647              1197.6669              1257.6596
 Red. masses --      1.9868                 2.1754                 1.7552
 Frc consts  --      1.6679                 1.8385                 1.6357
 IR Inten    --     63.7614               159.2838                52.8499

                     40                     41                     42
                      A                      A                      A
 Frequencies --   1298.0643              1359.5115              1395.4149
 Red. masses --      2.5411                 3.8461                 5.5021
 Frc consts  --      2.5227                 4.1883                 6.3122
 IR Inten    --      2.7275               100.2063                36.9918

                     43                     44                     45
                      A                      A                      A
 Frequencies --   1412.8314              1428.1064              1466.3453
 Red. masses --      4.5317                 2.0404                 3.4527
 Frc consts  --      5.3296                 2.4519                 4.3741
 IR Inten    --    109.9484               242.5666               101.5647

                     46                     47                     48
                      A                      A                      A
 Frequencies --   1491.8341              1559.2154              1581.1814
 Red. masses --      3.4026                 4.8916                 4.6012
 Frc consts  --      4.4617                 7.0067                 6.7777
 IR Inten    --     23.1733                21.6251               175.1223

                     49                     50                     51
                      A                      A                      A
 Frequencies --   1605.3414              1655.7585              1821.5394
 Red. masses --      1.3129                 5.3802                10.1077
 Frc consts  --      1.9934                 8.6905                19.7597
 IR Inten    --    130.7421               268.4811               635.3903

                     52                     53                     54
                      A                      A                      A
 Frequencies --   3275.8611              3425.9873              3558.7956
 Red. masses --      1.0975                 1.0509                 1.0762
 Frc consts  --      6.9393                 7.2674                 8.0303
 IR Inten    --      1.6756                66.6630                50.4121

                     55                     56                     57
                      A                      A                      A
 Frequencies --   3560.9443              3593.5699              3648.1728
 Red. masses --      1.0933                 1.0779                 1.0814
 Frc consts  --      8.1682                 8.2013                 8.4800
 IR Inten    --     75.6748                67.8028                99.5660

 - Thermochemistry -
 -------------------
 Temperature   298.150 Kelvin.  Pressure   1.00000 Atm.
 Atom     1 has atomic number  6 and mass  12.00000

 Molecular mass:   230.02221 amu.
 Principal axes and moments of inertia in atomic units:
                           1         2         3
     Eigenvalues --  1504.910235427.109416531.00550
           X            0.99998  -0.00366   0.00528
           Y            0.00363   0.99998   0.00520
           Z           -0.00530  -0.00518   0.99997
 This molecule is an asymmetric top.
 Rotational symmetry number  1.
 Warning -- assumption of classical behavior for rotation
           may cause significant error
 Rotational temperatures (Kelvin)      0.05755     0.01596     0.01326
 Rotational constants (GHZ):           1.19924     0.33254     0.27633
 Zero-point vibrational energy     378514.1 (Joules/Mol)
                                   90.46704 (Kcal/Mol)
 Warning -- explicit consideration of  20 degrees of freedom as
           vibrations may cause significant error
 Vibrational temperatures:     58.25    98.15   157.50   219.46   231.00
          (Kelvin)            287.56   321.63   346.54   379.74   443.51
                              526.31   555.81   605.61   663.42   729.09
                              735.10   746.40   760.59   840.49   864.68
                              908.49   954.10   985.51  1025.55  1045.55
                             1068.31  1109.69  1200.13  1224.05  1257.62
                             1350.30  1389.43  1545.70  1591.19  1621.16
                             1640.31  1717.42  1723.18  1809.49  1867.62
                             1956.03  2007.69  2032.75  2054.73  2109.74
                             2146.42  2243.36  2274.97  2309.73  2382.27
                             2620.79  4713.23  4929.23  5120.31  5123.40
                             5170.35  5248.91

 Zero-point correction=                           0.144168 (Hartree/Particle)
 Thermal correction to Energy=                    0.156762
 Thermal correction to Enthalpy=                  0.157706
 Thermal correction to Gibbs Free Energy=         0.104556
 Sum of electronic and zero-point Energies=          -1146.363233
 Sum of electronic and thermal Energies=             -1146.350639
 Sum of electronic and thermal Enthalpies=           -1146.349695
 Sum of electronic and thermal Free Energies=        -1146.402845

                     E (Thermal)             CV                S
                      KCal/Mol        Cal/Mol-Kelvin    Cal/Mol-Kelvin
 Total                   98.369             48.187            111.864
 Electronic               0.000              0.000              0.000
 Translational            0.889              2.981             42.201
 Rotational               0.889              2.981             32.345
 Vibrational             96.592             42.225             37.318
 Vibration     1          0.594              1.981              5.235
 Vibration     2          0.598              1.969              4.204
 Vibration     3          0.606              1.942              3.278
 Vibration     4          0.619              1.900              2.640
 Vibration     5          0.622              1.891              2.543
 Vibration     6          0.638              1.840              2.134
 Vibration     7          0.649              1.805              1.930
 Vibration     8          0.658              1.778              1.797
 Vibration     9          0.670              1.739              1.636
 Vibration    10          0.698              1.658              1.372
 Vibration    11          0.739              1.543              1.097
 Vibration    12          0.755              1.499              1.014
 Vibration    13          0.783              1.425              0.889
 Vibration    14          0.819              1.336              0.763
 Vibration    15          0.862              1.235              0.641
 Vibration    16          0.866              1.226              0.631
 Vibration    17          0.874              1.208              0.613
 Vibration    18          0.884              1.187              0.590
 Vibration    19          0.941              1.066              0.478
 Vibration    20          0.959              1.030              0.448

                           ! Non-Optimized Parameters !
 Normal termination of Gaussian 16 at Thu Dec 10 16:00:13 2020.

 ----------------------------------------------------------------------
 # B3LYP/6-311++G(d,p) empiricaldispersion=gd3bj scf=xqc pop=npa geom=c
 heck
 ----------------------------------------------------------------------

 ---------------------------------------
 CID_136845535_JID_5565_Energie_neutraal
 ---------------------------------------
 Structure from the checkpoint file:  "JID_5565.chk"
 Charge =  0 Multiplicity = 1

 SCF Done:  E(RB3LYP) =  -1146.76127346     A.U. after   15 cycles
 Normal termination of Gaussian 16 at Thu Dec 10 16:02:40 2020.

 ----------------------------------------------------------------------
 # B3LYP/6-311++G(d,p) empiricaldispersion=gd3bj scf=xqc pop=npa geom=c
 heck
 ----------------------------------------------------------------------

 -------------------------------------
 CID_136845535_JID_5565_Energie_kation
 -------------------------------------
 Structure from the checkpoint file:  "JID_5565.chk"
 Charge =  1 Multiplicity = 2

 SCF Done:  E(UB3LYP) =  -1146.43831822     A.U. after   22 cycles
 Normal termination of Gaussian 16 at Thu Dec 10 16:07:21 2020.
 Gaussian 16:  ES64L-G16RevA.03 25-Dec-2016

 ----------------------------------------------------------------------
 # B3LYP/6-311++G(d,p) empiricaldispersion=gd3bj scf=xqc pop=npa geom=c
 heck
 ----------------------------------------------------------------------

 ------------------------------------
 CID_136845535_JID_5565_Energie_anion
 ------------------------------------
 Structure from the checkpoint file:  "JID_5565.chk"
 Charge = -1 Multiplicity = 2

                         Standard orientation:
 ---------------------------------------------------------------------
 Center     Atomic      Atomic             Coordinates (Angstroms)
 Number     Number       Type             X           Y           Z
 ---------------------------------------------------------------------
      1          6           0        3.366739   -1.861008    0.068869
      2          7           0        2.072567   -2.118712   -0.004431
      3          6           0        1.478322   -0.884062   -0.045228
      4          6           0        2.437546    0.126430   -0.002077
      5          7           0        3.648528   -0.523771    0.073044
      6          6           0        2.110589    1.518861   -0.016498
      7          8           0        2.844885    2.494035    0.035076
      8          7           0        0.694638    1.651429   -0.082513
      9          6           0       -0.199169    0.607643   -0.144916
     10          7           0        0.132086   -0.649445   -0.146510
     11          7           0       -1.541233    1.001829   -0.190989
     12         16           0       -2.799156   -0.102484    0.151327
     13          8           0       -2.566659   -0.604127    1.496351
     14          8           0       -4.017275    0.610801   -0.201352
     15          7           0       -2.538956   -1.265182   -1.036118
     16          1           0        4.146388   -2.608719    0.120121
     17          1           0        4.554204   -0.079290    0.129530
     18          1           0        0.345826    2.597592    0.023714
     19          1           0       -1.810050    1.654035   -0.922747
     20          1           0       -1.651564   -1.732775   -0.826029
     21          1           0       -3.323498   -1.916990   -1.034704
 ---------------------------------------------------------------------

 SCF Done:  E(UB3LYP) =  -1146.76436862     A.U. after   33 cycles
 SCF Done:  E(UB3LYP) =  -1146.76436862     a.u. after    1 cycles

 The electronic state is 2-A.
 Alpha  occ. eigenvalues --  -88.98559 -19.02427 -19.02161 -18.96459 -14.25131
 Alpha  occ. eigenvalues --  -14.25111 -14.24188 -14.23897 -14.19500 -14.18581
 Alpha  occ. eigenvalues --  -10.17722 -10.14789 -10.11673 -10.09960 -10.07687
 Alpha  occ. eigenvalues --   -8.04459  -6.00753  -6.00673  -6.00651  -1.03623
 Alpha  occ. eigenvalues --   -0.92974  -0.92002  -0.90401  -0.88918  -0.82066
 Alpha  occ. eigenvalues --   -0.80065  -0.78941  -0.75597  -0.64959  -0.57947
 Alpha  occ. eigenvalues --   -0.54858  -0.52436  -0.50146  -0.48183  -0.44858
 Alpha  occ. eigenvalues --   -0.44051  -0.42777  -0.42469  -0.39400  -0.37354
 Alpha  occ. eigenvalues --   -0.35894  -0.35310  -0.34176  -0.32258  -0.30731
 Alpha  occ. eigenvalues --   -0.30526  -0.27446  -0.26347  -0.25317  -0.23552
 Alpha  occ. eigenvalues --   -0.22568  -0.21147  -0.19536  -0.18942  -0.17743
 Alpha  occ. eigenvalues --   -0.16748  -0.16137  -0.14515  -0.10858   0.04608
 Alpha virt. eigenvalues --    0.06902   0.07277   0.08023   0.09927   0.10194
 Alpha virt. eigenvalues --    0.12033   0.12504   0.13423   0.13952   0.14274
 Alpha virt. eigenvalues --    0.15021   0.15619   0.15860   0.16167   0.16252

  Beta  occ. eigenvalues --  -88.98553 -19.02421 -19.02150 -18.96289 -14.25061
  Beta  occ. eigenvalues --  -14.24909 -14.24023 -14.23860 -14.19582 -14.18685
  Beta  occ. eigenvalues --  -10.17568 -10.14582 -10.11478 -10.09757 -10.07627
  Beta  occ. eigenvalues --   -8.04452  -6.00748  -6.00662  -6.00646  -1.03592
  Beta  occ. eigenvalues --   -0.92660  -0.91975  -0.90133  -0.88691  -0.81958
  Beta  occ. eigenvalues --   -0.79949  -0.78696  -0.75481  -0.64557  -0.57812
  Beta  occ. eigenvalues --   -0.54356  -0.52230  -0.49972  -0.48045  -0.44774
  Beta  occ. eigenvalues --   -0.43851  -0.42607  -0.42345  -0.39335  -0.37190
  Beta  occ. eigenvalues --   -0.35839  -0.34548  -0.33988  -0.32097  -0.30283
  Beta  occ. eigenvalues --   -0.30011  -0.26811  -0.26132  -0.25243  -0.23522
  Beta  occ. eigenvalues --   -0.22466  -0.20788  -0.19586  -0.18638  -0.17191
  Beta  occ. eigenvalues --   -0.16743  -0.15630  -0.14371  -0.09783
  Beta virt. eigenvalues --    0.07185   0.07462   0.09101   0.09603   0.10138
  Beta virt. eigenvalues --    0.10604   0.12399   0.12564   0.13503   0.14274
  Beta virt. eigenvalues --    0.14296   0.15174   0.15545   0.16079   0.16231

 Mulliken charges and spin densities:
               1          2
     1  C    0.237035   0.140904
     2  N   -0.208192  -0.068810
     3  C    0.153925  -0.248131
     4  C    0.005794   0.113767
     5  N   -0.254602   0.065763
     6  C   -0.159410   0.142991
     7  O   -0.446038   0.065443
     8  N   -0.469328   0.169006
     9  C    0.179924  -0.087059
    10  N   -0.127937  -0.112846
    11  N   -0.461547   0.043731
    12  S    0.905037  -0.436165
    13  O   -0.202131   0.000193
    14  O   -0.199034   0.026843
    15  N   -0.530043   0.032433
    16  H    0.147912   0.006285
    17  H    0.281203   0.003900
    18  H    0.201256   0.122113
    19  H   -0.391423   0.731541
    20  H    0.308297   0.015549
    21  H    0.029303   0.272549
 Sum of Mulliken charges =  -1.00000   1.00000

 Dipole moment (field-independent basis, Debye):
    X=              2.4547    Y=             -2.6821    Z=              0.0367  Tot=              3.6360
 Quadrupole moment (field-independent basis, Debye-Ang):
   XX=           -132.1273   YY=           -125.8367   ZZ=           -110.3353
   XY=             -3.6045   XZ=              0.7347   YZ=              5.1362

 Summary of Natural Population Analysis:

                                       Natural Population
                Natural  -----------------------------------------------
    Atom  No    Charge         Core      Valence    Rydberg      Total
 -----------------------------------------------------------------------
      C    1    0.14487      0.99970     1.83852    0.01692     2.85513
      N    2   -0.27835      0.99971     2.76698    0.01167     3.77835
      C    3    0.19521      0.99946     1.78836    0.01698     2.80479
      C    4   -0.00277      0.99941     1.99314    0.01022     3.00277
      N    5   -0.23937      0.99966     2.73242    0.00729     3.73937
      C    6    0.34098      0.99960     1.63606    0.02337     2.65902
      O    7   -0.31773      0.99988     3.31217    0.00568     4.31773
      N    8   -0.28632      0.99965     2.77792    0.00875     3.78632
      C    9    0.33172      0.99961     1.65177    0.01690     2.66828
      N   10   -0.30329      0.99962     2.79303    0.01064     3.80329
      N   11   -0.42941      0.99968     2.91692    0.01281     3.92941
      S   12    1.16038      4.99944     1.73330    0.10689     6.83962
      O   13   -0.44627      0.99990     3.44078    0.00560     4.44627
      O   14   -0.45888      0.99990     3.45289    0.00608     4.45888
      N   15   -0.51183      0.99978     3.00274    0.00932     4.01183
      H   16    0.08332      0.00000     0.41578    0.00090     0.41668
      H   17    0.20058      0.00000     0.29753    0.00189     0.29942
      H   18    0.20255      0.00000     0.29510    0.00236     0.29745
      H   19    0.21360      0.00000     0.27548    0.01092     0.28640
      H   20    0.21150      0.00000     0.28550    0.00300     0.28850
      H   21    0.18953      0.00000     0.30806    0.00241     0.31047
 =======================================================================
   * Total *   -0.00000     18.99498    39.71443    0.29059    59.00000

 Normal termination of Gaussian 16 at Thu Dec 10 16:14:29 2020.
