 Gaussian 16, Revision A.03,

 -----------------------------------------------------------
 # opt freq B3LYP/6-31G(d) empiricaldispersion=gd3bj scf=xqc
 -----------------------------------------------------------

 ------------------------------
 CID_141975058_JID_985_neutraal
 ------------------------------
 Symbolic Z-matrix:
 Charge =  0 Multiplicity = 1

 SCF Done:  E(RB3LYP) =  -443.817405699     A.U. after   14 cycles
 SCF Done:  E(RB3LYP) =  -443.822480191     A.U. after   13 cycles
 SCF Done:  E(RB3LYP) =  -443.824095844     A.U. after   12 cycles
 SCF Done:  E(RB3LYP) =  -443.825099055     A.U. after   12 cycles
 SCF Done:  E(RB3LYP) =  -443.825510995     A.U. after   12 cycles
 SCF Done:  E(RB3LYP) =  -443.825736597     A.U. after   12 cycles
 SCF Done:  E(RB3LYP) =  -443.825958109     A.U. after   11 cycles
 SCF Done:  E(RB3LYP) =  -443.826126086     A.U. after   11 cycles
 SCF Done:  E(RB3LYP) =  -443.826288248     A.U. after   12 cycles
 SCF Done:  E(RB3LYP) =  -443.826383502     A.U. after   11 cycles
 SCF Done:  E(RB3LYP) =  -443.827145814     A.U. after    7 cycles
 SCF Done:  E(RB3LYP) =  -443.827147671     A.U. after    9 cycles
 SCF Done:  E(RB3LYP) =  -443.827149142     A.U. after    9 cycles
 SCF Done:  E(RB3LYP) =  -443.827150107     A.U. after    9 cycles
 SCF Done:  E(RB3LYP) =  -443.827150376     A.U. after    8 cycles
 SCF Done:  E(RB3LYP) =  -443.827150392     A.U. after    7 cycles
 Optimization completed.
    -- Stationary point found.
 Normal termination of Gaussian 16 at Tue Dec  8 14:34:10 2020.

 --------------------------------------------------------------------
 #N Geom=AllCheck Guess=TCheck SCRF=Check GenChk RB3LYP/6-31G(d) Freq
 --------------------------------------------------------------------

 Structure from the checkpoint file:  "JID_985.chk"
 ------------------------------
 CID_141975058_JID_985_neutraal
 ------------------------------
 Charge =  0 Multiplicity = 1

 SCF Done:  E(RB3LYP) =  -443.827150392     A.U. after    1 cycles

  Exact polarizability: 149.889 -23.677  77.327 -25.224  -7.267  97.252
 Approx polarizability: 249.970 -45.460 104.360 -61.720  -3.375 144.999

                      1                      2                      3
                      A                      A                      A
 Frequencies --     21.5357                32.6822                45.5872
 Red. masses --      2.7237                 2.9184                 2.8783
 Frc consts  --      0.0007                 0.0018                 0.0035
 IR Inten    --      0.0228                 0.4642                 0.2930

                      4                      5                      6
                      A                      A                      A
 Frequencies --     82.4552                99.4811               112.9188
 Red. masses --      3.3145                 1.1956                 2.7698
 Frc consts  --      0.0133                 0.0070                 0.0208
 IR Inten    --      2.6826                 0.0798                 4.4263

                      7                      8                      9
                      A                      A                      A
 Frequencies --    114.9788               124.7188               161.7260
 Red. masses --      2.6434                 2.0898                 3.3246
 Frc consts  --      0.0206                 0.0192                 0.0512
 IR Inten    --      3.4303                 0.4129                 1.8953

                     10                     11                     12
                      A                      A                      A
 Frequencies --    178.3824               231.5779               247.9644
 Red. masses --      2.4304                 1.9053                 3.0294
 Frc consts  --      0.0456                 0.0602                 0.1097
 IR Inten    --      5.3952                 2.9010                 4.5328

                     13                     14                     15
                      A                      A                      A
 Frequencies --    292.9735               324.7471               371.8984
 Red. masses --      1.3326                 1.0103                 3.1689
 Frc consts  --      0.0674                 0.0628                 0.2582
 IR Inten    --      0.0309                 0.0609                 2.5430

                     16                     17                     18
                      A                      A                      A
 Frequencies --    412.0088               511.1092               557.4641
 Red. masses --      3.2211                 1.7750                 4.5899
 Frc consts  --      0.3222                 0.2732                 0.8404
 IR Inten    --      0.8865                 4.0171                20.4376

                     19                     20                     21
                      A                      A                      A
 Frequencies --    629.5686               678.0811               810.0296
 Red. masses --      3.9720                 1.3727                 2.0360
 Frc consts  --      0.9276                 0.3719                 0.7871
 IR Inten    --      1.6641                10.9237                 2.2751

                     22                     23                     24
                      A                      A                      A
 Frequencies --    834.6723               842.4261               852.0020
 Red. masses --      1.0569                 1.0615                 3.1822
 Frc consts  --      0.4338                 0.4439                 1.3610
 IR Inten    --      2.6937                 9.5104                 1.6545

                     25                     26                     27
                      A                      A                      A
 Frequencies --    879.9778               909.8847              1007.5708
 Red. masses --      1.4025                 1.4527                 1.6409
 Frc consts  --      0.6399                 0.7086                 0.9815
 IR Inten    --      1.1112                53.6056                14.7582

                     28                     29                     30
                      A                      A                      A
 Frequencies --   1011.6275              1037.5399              1053.5619
 Red. masses --      3.2629                 1.3624                 1.1119
 Frc consts  --      1.9674                 0.8641                 0.7272
 IR Inten    --      0.0897                19.7621                17.5784

                     31                     32                     33
                      A                      A                      A
 Frequencies --   1073.4023              1187.0982              1188.6617
 Red. masses --      3.9454                 2.0576                 1.4059
 Frc consts  --      2.6784                 1.7083                 1.1704
 IR Inten    --     21.4760                87.3219                22.1862

                     34                     35                     36
                      A                      A                      A
 Frequencies --   1231.9284              1236.5688              1239.6371
 Red. masses --      1.8751                 1.4628                 1.4568
 Frc consts  --      1.6766                 1.3178                 1.3190
 IR Inten    --     64.7091                 0.7210                 0.3676

                     37                     38                     39
                      A                      A                      A
 Frequencies --   1242.2441              1268.6601              1325.0681
 Red. masses --      1.7308                 1.8799                 1.3691
 Frc consts  --      1.5737                 1.7827                 1.4164
 IR Inten    --     49.0102               101.6429                16.5820

                     40                     41                     42
                      A                      A                      A
 Frequencies --   1374.5915              1434.9293              1456.8664
 Red. masses --      1.7667                 1.1978                 1.2526
 Frc consts  --      1.9668                 1.4531                 1.5664
 IR Inten    --     37.3041                 0.7320                 0.9416

                     43                     44                     45
                      A                      A                      A
 Frequencies --   1473.5598              1498.3731              1514.3221
 Red. masses --      1.2994                 1.1763                 1.2642
 Frc consts  --      1.6624                 1.5559                 1.7080
 IR Inten    --      6.3574                 0.8056                 6.7844

                     46                     47                     48
                      A                      A                      A
 Frequencies --   1519.7879              1531.4762              1533.3990
 Red. masses --      1.0478                 1.0262                 1.0366
 Frc consts  --      1.4259                 1.4182                 1.4361
 IR Inten    --      5.9672                 5.4188                 6.7412

                     49                     50                     51
                      A                      A                      A
 Frequencies --   1535.2344              1538.6284              1543.5228
 Red. masses --      1.0449                 1.0606                 1.0507
 Frc consts  --      1.4510                 1.4793                 1.4749
 IR Inten    --      7.3497                 9.7719                 5.0580

                     52                     53                     54
                      A                      A                      A
 Frequencies --   1665.6303              1690.6873              1712.3150
 Red. masses --      5.4544                 4.6352                 4.8175
 Frc consts  --      8.9156                 7.8063                 8.3222
 IR Inten    --     43.2061                 8.5492                36.6329

                     55                     56                     57
                      A                      A                      A
 Frequencies --   3034.1508              3047.4983              3053.3958
 Red. masses --      1.0335                 1.0374                 1.0374
 Frc consts  --      5.6057                 5.6765                 5.6984
 IR Inten    --     34.1038                30.0522                24.3504

                     58                     59                     60
                      A                      A                      A
 Frequencies --   3096.8634              3097.9065              3104.8766
 Red. masses --      1.1064                 1.1021                 1.0533
 Frc consts  --      6.2518                 6.2319                 5.9824
 IR Inten    --     32.7956                19.1233                15.3179

                     61                     62                     63
                      A                      A                      A
 Frequencies --   3108.6332              3131.4640              3133.2519
 Red. masses --      1.0986                 1.1018                 1.1020
 Frc consts  --      6.2552                 6.3657                 6.3743
 IR Inten    --      7.5644                53.3494                48.8713

                     64                     65                     66
                      A                      A                      A
 Frequencies --   3160.0656              3162.0893              3196.6019
 Red. masses --      1.0603                 1.1010                 1.1186
 Frc consts  --      6.2382                 6.4864                 6.7346
 IR Inten    --     11.6273                20.5952                22.3869

                     67                     68                     69
                      A                      A                      A
 Frequencies --   3203.9952              3213.5413              3247.4076
 Red. masses --      1.0905                 1.0888                 1.1139
 Frc consts  --      6.5958                 6.6248                 6.9209
 IR Inten    --      1.3104                 9.6147                18.1111

 - Thermochemistry -
 -------------------
 Temperature   298.150 Kelvin.  Pressure   1.00000 Atm.
 Atom     1 has atomic number  6 and mass  12.00000

 Molecular mass:   141.11536 amu.
 Principal axes and moments of inertia in atomic units:
                           1         2         3
     Eigenvalues --  1624.392661985.024332398.04282
           X            0.99940   0.03454   0.00052
           Y           -0.03450   0.99884  -0.03362
           Z           -0.00169   0.03359   0.99943
 This molecule is an asymmetric top.
 Rotational symmetry number  1.
 Warning -- assumption of classical behavior for rotation
           may cause significant error
 Rotational temperatures (Kelvin)      0.05332     0.04363     0.03612
 Rotational constants (GHZ):           1.11103     0.90918     0.75259
 Zero-point vibrational energy     571094.1 (Joules/Mol)
                                  136.49478 (Kcal/Mol)
 Warning -- explicit consideration of  18 degrees of freedom as
           vibrations may cause significant error
 Vibrational temperatures:     30.99    47.02    65.59   118.63   143.13
          (Kelvin)            162.47   165.43   179.44   232.69   256.65
                              333.19   356.77   421.52   467.24   535.08
                              592.79   735.37   802.07   905.81   975.61
                             1165.45  1200.91  1212.06  1225.84  1266.09
                             1309.12  1449.67  1455.51  1492.79  1515.84
                             1544.39  1707.97  1710.22  1772.47  1779.15
                             1783.56  1787.31  1825.32  1906.48  1977.73
                             2064.54  2096.11  2120.12  2155.82  2178.77
                             2186.64  2203.45  2206.22  2208.86  2213.74
                             2220.78  2396.47  2432.52  2463.64  4365.47
                             4384.67  4393.16  4455.70  4457.20  4467.22
                             4472.63  4505.48  4508.05  4546.63  4549.54
                             4599.20  4609.83  4623.57  4672.30

 Zero-point correction=                           0.217518 (Hartree/Particle)
 Thermal correction to Energy=                    0.231645
 Thermal correction to Enthalpy=                  0.232589
 Thermal correction to Gibbs Free Energy=         0.174614
 Sum of electronic and zero-point Energies=           -443.609632
 Sum of electronic and thermal Energies=              -443.595505
 Sum of electronic and thermal Enthalpies=            -443.594561
 Sum of electronic and thermal Free Energies=         -443.652536

                     E (Thermal)             CV                S
                      KCal/Mol        Cal/Mol-Kelvin    Cal/Mol-Kelvin
 Total                  145.359             47.005            122.018
 Electronic               0.000              0.000              0.000
 Translational            0.889              2.981             40.745
 Rotational               0.889              2.981             30.426
 Vibrational            143.582             41.043             50.848
 Vibration     1          0.593              1.985              6.487
 Vibration     2          0.594              1.983              5.660
 Vibration     3          0.595              1.979              5.000
 Vibration     4          0.600              1.961              3.832
 Vibration     5          0.604              1.949              3.464
 Vibration     6          0.607              1.939              3.218
 Vibration     7          0.608              1.937              3.183
 Vibration     8          0.610              1.928              3.026
 Vibration     9          0.622              1.889              2.530
 Vibration    10          0.629              1.869              2.345
 Vibration    11          0.653              1.793              1.867
 Vibration    12          0.662              1.766              1.745
 Vibration    13          0.688              1.687              1.457
 Vibration    14          0.709              1.626              1.286
 Vibration    15          0.744              1.530              1.072
 Vibration    16          0.776              1.444              0.920
 Vibration    17          0.866              1.225              0.631
 Vibration    18          0.913              1.123              0.529

                           ! Non-Optimized Parameters !
 Normal termination of Gaussian 16 at Tue Dec  8 14:38:39 2020.

 ----------------------------------------------------------------------
 # B3LYP/6-311++G(d,p) empiricaldispersion=gd3bj scf=xqc pop=npa geom=c
 heck
 ----------------------------------------------------------------------

 --------------------------------------
 CID_141975058_JID_985_Energie_neutraal
 --------------------------------------
 Structure from the checkpoint file:  "JID_985.chk"
 Charge =  0 Multiplicity = 1

 SCF Done:  E(RB3LYP) =  -443.957757056     A.U. after   15 cycles
 Normal termination of Gaussian 16 at Tue Dec  8 14:41:21 2020.

 ----------------------------------------------------------------------
 # B3LYP/6-311++G(d,p) empiricaldispersion=gd3bj scf=xqc pop=npa geom=c
 heck
 ----------------------------------------------------------------------

 ------------------------------------
 CID_141975058_JID_985_Energie_kation
 ------------------------------------
 Structure from the checkpoint file:  "JID_985.chk"
 Charge =  1 Multiplicity = 2

 SCF Done:  E(UB3LYP) =  -443.673640429     A.U. after   20 cycles
 Normal termination of Gaussian 16 at Tue Dec  8 14:46:07 2020.
 Gaussian 16:  ES64L-G16RevA.03 25-Dec-2016

 ----------------------------------------------------------------------
 # B3LYP/6-311++G(d,p) empiricaldispersion=gd3bj scf=xqc pop=npa geom=c
 heck
 ----------------------------------------------------------------------

 -----------------------------------
 CID_141975058_JID_985_Energie_anion
 -----------------------------------
 Structure from the checkpoint file:  "JID_985.chk"
 Charge = -1 Multiplicity = 2

                         Standard orientation:
 ---------------------------------------------------------------------
 Center     Atomic      Atomic             Coordinates (Angstroms)
 Number     Number       Type             X           Y           Z
 ---------------------------------------------------------------------
      1          6           0       -1.962427   -1.927182   -0.875704
      2          6           0       -0.678190   -2.581391   -0.362305
      3          6           0       -0.773376    2.010175   -1.613106
      4          8           0       -0.982144    1.537003   -0.291716
      5          6           0        0.015688    0.820284    0.305711
      6          6           0        1.221316    0.551561   -0.258945
      7          6           0        2.254129   -0.232333    0.383417
      8          6           0        3.434705   -0.518220   -0.189617
      9          7           0       -0.282650    0.339610    1.576049
     10          6           0       -1.429888    0.560099    2.095521
     11          1           0       -2.833105   -2.248840   -0.291893
     12          1           0       -2.154814   -2.189539   -1.922949
     13          1           0       -1.908971   -0.835578   -0.808690
     14          1           0       -0.479163   -2.295347    0.675489
     15          1           0       -0.744665   -3.674808   -0.406802
     16          1           0        0.191406   -2.273303   -0.952080
     17          1           0       -1.689074    2.532300   -1.894777
     18          1           0       -0.595850    1.177620   -2.305145
     19          1           0        0.074277    2.705467   -1.655686
     20          1           0        1.438518    0.924578   -1.254354
     21          1           0        2.027023   -0.598720    1.380214
     22          1           0        4.184354   -1.113713    0.321597
     23          1           0        3.687506   -0.166007   -1.187502
     24          1           0       -2.226992    1.121960    1.603286
     25          1           0       -1.626482    0.162678    3.090846
 ---------------------------------------------------------------------

 SCF Done:  E(UB3LYP) =  -443.959491846     A.U. after   28 cycles

 The electronic state is 2-A.
 Alpha  occ. eigenvalues --  -19.01040 -14.12152 -10.10308 -10.07675 -10.03233
 Alpha  occ. eigenvalues --  -10.02533 -10.01137 -10.00700  -9.99378  -9.99101
 Alpha  occ. eigenvalues --   -0.92942  -0.74497  -0.63532  -0.62361  -0.59427
 Alpha  occ. eigenvalues --   -0.55649  -0.48755  -0.46777  -0.42872  -0.38861
 Alpha  occ. eigenvalues --   -0.35389  -0.34721  -0.34518  -0.30670  -0.30626
 Alpha  occ. eigenvalues --   -0.29539  -0.27230  -0.26204  -0.24247  -0.23782
 Alpha  occ. eigenvalues --   -0.23529  -0.21677  -0.21485  -0.19866  -0.19529
 Alpha  occ. eigenvalues --   -0.15707  -0.14730  -0.08983  -0.05689   0.05856
 Alpha virt. eigenvalues --    0.08325   0.09336   0.10171   0.10922   0.11614
 Alpha virt. eigenvalues --    0.11916   0.12563   0.13138   0.13269   0.14474
 Alpha virt. eigenvalues --    0.15158   0.15293   0.16394   0.16871   0.17519

  Beta  occ. eigenvalues --  -19.01015 -14.11984 -10.10309 -10.07463 -10.03224
  Beta  occ. eigenvalues --  -10.02532 -10.01143 -10.00158  -9.99145  -9.98905
  Beta  occ. eigenvalues --   -0.92834  -0.73845  -0.63128  -0.62349  -0.59253
  Beta  occ. eigenvalues --   -0.55307  -0.48738  -0.45758  -0.42517  -0.38662
  Beta  occ. eigenvalues --   -0.34922  -0.34582  -0.34378  -0.30655  -0.30616
  Beta  occ. eigenvalues --   -0.29346  -0.26989  -0.26041  -0.24138  -0.23439
  Beta  occ. eigenvalues --   -0.22694  -0.21628  -0.21473  -0.19766  -0.19394
  Beta  occ. eigenvalues --   -0.14782  -0.13091  -0.08723  -0.03803
  Beta virt. eigenvalues --    0.08237   0.09244   0.10120   0.10880   0.11412
  Beta virt. eigenvalues --    0.11746   0.11989   0.12715   0.13083   0.13398
  Beta virt. eigenvalues --    0.14475   0.15156   0.15382   0.16643   0.17118

 Mulliken charges and spin densities:
               1          2
     1  C   -0.118959  -0.283760
     2  C   -0.449469   0.063785
     3  C   -0.304245  -0.005327
     4  O   -0.107978   0.011961
     5  C   -0.549285   0.055513
     6  C    0.114911   0.186467
     7  C    0.130405  -0.054959
     8  C   -0.821352   0.253168
     9  N   -0.015686  -0.003965
    10  C   -0.320120   0.618604
    11  H   -0.049103   0.149782
    12  H    0.075319   0.009641
    13  H    0.049351   0.111760
    14  H    0.151187  -0.017382
    15  H    0.103554   0.001477
    16  H    0.144490  -0.000879
    17  H    0.132162   0.005005
    18  H    0.137808  -0.007809
    19  H    0.128502  -0.001138
    20  H    0.098545  -0.009268
    21  H    0.151075  -0.002543
    22  H    0.093046  -0.011441
    23  H    0.058025  -0.009634
    24  H    0.057127  -0.035144
    25  H    0.110690  -0.023913
 Sum of Mulliken charges =  -1.00000   1.00000

 Dipole moment (field-independent basis, Debye):
    X=             -1.8614    Y=              0.4724    Z=             -4.5740  Tot=              4.9608
 Quadrupole moment (field-independent basis, Debye-Ang):
   XX=            -97.0538   YY=            -78.6573   ZZ=            -79.0124
   XY=             -0.2895   XZ=              4.2025   YZ=             -6.8285

 Summary of Natural Population Analysis:

                                       Natural Population
                Natural  -----------------------------------------------
    Atom  No    Charge         Core      Valence    Rydberg      Total
 -----------------------------------------------------------------------
      C    1   -0.28672      0.99968     2.28220    0.00484     3.28672
      C    2   -0.29014      0.99968     2.28547    0.00499     3.29014
      C    3   -0.09903      0.99962     2.09131    0.00811     3.09903
      O    4   -0.28243      0.99985     3.27226    0.01032     4.28243
      C    5    0.27221      0.99940     1.71003    0.01836     2.72779
      C    6   -0.14540      0.99948     2.13521    0.01070     3.14540
      C    7   -0.09639      0.99957     2.08670    0.01012     3.09639
      C    8   -0.18345      0.99960     2.17448    0.00937     3.18345
      N    9   -0.25300      0.99966     2.73969    0.01365     3.75300
      C   10    0.08028      0.99967     1.90421    0.01584     2.91972
      H   11    0.09021      0.00000     0.40822    0.00157     0.40979
      H   12    0.08317      0.00000     0.41557    0.00126     0.41683
      H   13    0.10649      0.00000     0.39141    0.00209     0.39351
      H   14    0.10964      0.00000     0.38868    0.00168     0.39036
      H   15    0.08201      0.00000     0.41692    0.00107     0.41799
      H   16    0.10237      0.00000     0.39670    0.00093     0.39763
      H   17    0.08338      0.00000     0.41570    0.00092     0.41662
      H   18    0.08119      0.00000     0.41704    0.00177     0.41881
      H   19    0.08001      0.00000     0.41827    0.00172     0.41999
      H   20    0.08403      0.00000     0.41449    0.00148     0.41597
      H   21    0.10142      0.00000     0.39740    0.00118     0.39858
      H   22    0.08058      0.00000     0.41842    0.00100     0.41942
      H   23    0.07632      0.00000     0.42251    0.00117     0.42368
      H   24    0.06136      0.00000     0.43698    0.00166     0.43864
      H   25    0.06188      0.00000     0.43702    0.00110     0.43812
 =======================================================================
   * Total *    0.00000      9.99622    28.87689    0.12689    39.00000

 Normal termination of Gaussian 16 at Tue Dec  8 14:53:40 2020.
