 Gaussian 16, Revision A.03,

 -----------------------------------------------------------
 # opt freq B3LYP/6-31G(d) empiricaldispersion=gd3bj scf=xqc
 -----------------------------------------------------------

 --------------------------------
 CID_104919443_JID_10656_neutraal
 --------------------------------
 Symbolic Z-matrix:
 Charge =  0 Multiplicity = 1

 SCF Done:  E(RB3LYP) =  -950.958040983     A.U. after   16 cycles
 SCF Done:  E(RB3LYP) =  -950.966457088     A.U. after   13 cycles
 SCF Done:  E(RB3LYP) =  -950.968251065     A.U. after   13 cycles
 SCF Done:  E(RB3LYP) =  -950.968886227     A.U. after   14 cycles
 SCF Done:  E(RB3LYP) =  -950.969720779     A.U. after   13 cycles
 SCF Done:  E(RB3LYP) =  -950.969560375     A.U. after   13 cycles
 SCF Done:  E(RB3LYP) =  -950.970381221     A.U. after   12 cycles
 SCF Done:  E(RB3LYP) =  -950.970684970     A.U. after   13 cycles
 SCF Done:  E(RB3LYP) =  -950.970868383     A.U. after   12 cycles
 SCF Done:  E(RB3LYP) =  -950.970981836     A.U. after   12 cycles
 SCF Done:  E(RB3LYP) =  -950.971212561     A.U. after    9 cycles
 SCF Done:  E(RB3LYP) =  -950.971216269     A.U. after   10 cycles
 SCF Done:  E(RB3LYP) =  -950.971217892     A.U. after    9 cycles
 SCF Done:  E(RB3LYP) =  -950.971218354     A.U. after    8 cycles
 SCF Done:  E(RB3LYP) =  -950.971218437     A.U. after    7 cycles
 SCF Done:  E(RB3LYP) =  -950.971218463     A.U. after    7 cycles
 Optimization completed.
    -- Stationary point found.
 Normal termination of Gaussian 16 at Mon Dec 14 17:54:23 2020.

 --------------------------------------------------------------------
 #N Geom=AllCheck Guess=TCheck SCRF=Check GenChk RB3LYP/6-31G(d) Freq
 --------------------------------------------------------------------

 Structure from the checkpoint file:  "JID_10656.chk"
 --------------------------------
 CID_104919443_JID_10656_neutraal
 --------------------------------
 Charge =  0 Multiplicity = 1

 SCF Done:  E(RB3LYP) =  -950.971218463     A.U. after    1 cycles

  Exact polarizability: 207.005   2.885 172.905  11.873   3.527 142.841
 Approx polarizability: 286.841   9.260 275.134  23.043   8.212 224.076

                      1                      2                      3
                      A                      A                      A
 Frequencies --     19.5884                24.6312                47.9981
 Red. masses --      5.2438                 4.3018                 9.1327
 Frc consts  --      0.0012                 0.0015                 0.0124
 IR Inten    --      1.0128                 0.1306                 1.6049

                      4                      5                      6
                      A                      A                      A
 Frequencies --     57.7101                66.9460                76.6409
 Red. masses --      3.6727                 2.0795                 2.2823
 Frc consts  --      0.0072                 0.0055                 0.0079
 IR Inten    --      0.3625                 0.6531                 0.4117

                      7                      8                      9
                      A                      A                      A
 Frequencies --     98.1081               100.6133               113.2559
 Red. masses --      3.0345                 4.8347                 1.3377
 Frc consts  --      0.0172                 0.0288                 0.0101
 IR Inten    --      0.4196                 0.8843                 1.2685

                     10                     11                     12
                      A                      A                      A
 Frequencies --    124.2155               131.6592               153.0305
 Red. masses --      1.3918                 1.6458                 3.2884
 Frc consts  --      0.0127                 0.0168                 0.0454
 IR Inten    --      0.8401                 1.3112                 0.2897

                     13                     14                     15
                      A                      A                      A
 Frequencies --    158.8762               176.7730               204.4306
 Red. masses --      5.0247                 3.5117                 1.9518
 Frc consts  --      0.0747                 0.0647                 0.0481
 IR Inten    --      0.5378                 3.1471                 0.5005

                     16                     17                     18
                      A                      A                      A
 Frequencies --    235.2662               250.1087               262.7772
 Red. masses --      1.6601                 1.8175                 2.3042
 Frc consts  --      0.0541                 0.0670                 0.0937
 IR Inten    --      0.5945                 1.8924                 4.2482

                     19                     20                     21
                      A                      A                      A
 Frequencies --    271.7509               298.1673               331.7498
 Red. masses --      3.5450                 4.6978                 4.4732
 Frc consts  --      0.1542                 0.2461                 0.2901
 IR Inten    --      1.1510                 5.2567                 4.6287

                     22                     23                     24
                      A                      A                      A
 Frequencies --    356.8291               359.5934               363.0645
 Red. masses --      3.3140                 3.2577                 3.0722
 Frc consts  --      0.2486                 0.2482                 0.2386
 IR Inten    --      0.1712                 1.7554                 2.1877

                     25                     26                     27
                      A                      A                      A
 Frequencies --    394.8654               439.3474               452.3704
 Red. masses --      4.6971                 5.1689                 7.0193
 Frc consts  --      0.4315                 0.5878                 0.8463
 IR Inten    --      6.6874                18.3042                 1.8760

                     28                     29                     30
                      A                      A                      A
 Frequencies --    487.9282               516.3235               574.7595
 Red. masses --      5.1516                 5.0661                 4.7985
 Frc consts  --      0.7226                 0.7957                 0.9340
 IR Inten    --     17.6722                 3.9767                 2.9160

                     31                     32                     33
                      A                      A                      A
 Frequencies --    597.4015               615.9105               629.8990
 Red. masses --      2.8688                 2.5850                 2.0888
 Frc consts  --      0.6032                 0.5778                 0.4883
 IR Inten    --     16.6685                 2.1830                21.8315

                     34                     35                     36
                      A                      A                      A
 Frequencies --    641.6445               654.2478               680.7320
 Red. masses --      2.5706                 1.7815                 4.4156
 Frc consts  --      0.6236                 0.4493                 1.2056
 IR Inten    --     72.4922                31.7433                16.0425

                     37                     38                     39
                      A                      A                      A
 Frequencies --    714.9070               761.0348               762.3309
 Red. masses --      2.6506                 4.3862                 4.5372
 Frc consts  --      0.7982                 1.4968                 1.5535
 IR Inten    --     19.1019                84.3090                 5.4896

                     40                     41                     42
                      A                      A                      A
 Frequencies --    784.6817               788.1670               799.0610
 Red. masses --      2.4080                 5.7788                 1.2909
 Frc consts  --      0.8736                 2.1151                 0.4856
 IR Inten    --     22.6851                34.5953                 3.7054

                     43                     44                     45
                      A                      A                      A
 Frequencies --    834.1387               840.0451               869.1996
 Red. masses --      2.5424                 2.5851                 4.0499
 Frc consts  --      1.0422                 1.0748                 1.8027
 IR Inten    --     20.2935                 2.3207                 6.4474

                     46                     47                     48
                      A                      A                      A
 Frequencies --    975.2185               995.9104              1002.5836
 Red. masses --      2.5021                 1.8188                 1.9954
 Frc consts  --      1.4020                 1.0629                 1.1818
 IR Inten    --      6.7012                 1.8928                 0.6694

                     49                     50                     51
                      A                      A                      A
 Frequencies --   1048.0978              1058.3105              1080.5422
 Red. masses --      2.8703                 1.5604                 1.5592
 Frc consts  --      1.8577                 1.0297                 1.0726
 IR Inten    --     27.5349                 1.6784                 1.3182

                     52                     53                     54
                      A                      A                      A
 Frequencies --   1088.3036              1093.0097              1102.9937
 Red. masses --      2.2655                 2.2090                 1.4718
 Frc consts  --      1.5809                 1.5549                 1.0550
 IR Inten    --      3.1485                 0.7219                 0.2041

                     55                     56                     57
                      A                      A                      A
 Frequencies --   1103.7951              1121.8774              1135.0723
 Red. masses --      2.4114                 1.6307                 2.4773
 Frc consts  --      1.7310                 1.2093                 1.8805
 IR Inten    --    162.9687                 0.6314                80.6432

                     58                     59                     60
                      A                      A                      A
 Frequencies --   1160.9370              1173.0983              1200.1131
 Red. masses --      5.2931                 3.6825                 3.0833
 Frc consts  --      4.2032                 2.9858                 2.6164
 IR Inten    --     49.5532                47.1007               280.1133

                     61                     62                     63
                      A                      A                      A
 Frequencies --   1244.5399              1298.3294              1312.5290
 Red. masses --      2.5786                 1.1604                 1.1512
 Frc consts  --      2.3532                 1.1525                 1.1685
 IR Inten    --     97.0264                 0.0149                 0.6742

                     64                     65                     66
                      A                      A                      A
 Frequencies --   1332.6334              1341.4433              1352.5458
 Red. masses --      3.3781                 8.6930                 2.7124
 Frc consts  --      3.5346                 9.2164                 2.9236
 IR Inten    --    291.8426                20.2760               119.9761

                     67                     68                     69
                      A                      A                      A
 Frequencies --   1364.2668              1394.1952              1396.4656
 Red. masses --      2.0405                 1.8422                 2.8343
 Frc consts  --      2.2376                 2.1098                 3.2566
 IR Inten    --     47.9868                 8.1872                97.4394

                     70                     71                     72
                      A                      A                      A
 Frequencies --   1423.1811              1444.0826              1444.8681
 Red. masses --      1.2838                 1.3290                 1.2973
 Frc consts  --      1.5320                 1.6329                 1.5956
 IR Inten    --     10.7743                 4.1831                 8.5441

                     73                     74                     75
                      A                      A                      A
 Frequencies --   1449.6692              1450.8516              1487.3752
 Red. masses --      1.3849                 2.0901                 1.1182
 Frc consts  --      1.7148                 2.5922                 1.4575
 IR Inten    --     15.2632                54.9337                 1.6269

                     76                     77                     78
                      A                      A                      A
 Frequencies --   1506.6594              1507.6163              1510.1788
 Red. masses --      1.0510                 1.0905                 1.0520
 Frc consts  --      1.4057                 1.4603                 1.4136
 IR Inten    --      5.5017                 0.8543                12.1702

                     79                     80                     81
                      A                      A                      A
 Frequencies --   1513.5104              1522.2402              1523.1733
 Red. masses --      1.0439                 1.0394                 1.0389
 Frc consts  --      1.4089                 1.4191                 1.4201
 IR Inten    --      7.5130                 4.8153                 7.7241

                     82                     83                     84
                      A                      A                      A
 Frequencies --   1526.7718              1527.8895              1529.2708
 Red. masses --      1.1284                 1.1055                 1.0620
 Frc consts  --      1.5497                 1.5206                 1.4633
 IR Inten    --     32.0812                40.4087                11.7273

                     85                     86                     87
                      A                      A                      A
 Frequencies --   1544.0408              1588.1874              1610.3489
 Red. masses --      3.4150                 5.2400                 8.4699
 Frc consts  --      4.7969                 7.7873                12.9410
 IR Inten    --    359.1498               107.9343               106.4030

                     88                     89                     90
                      A                      A                      A
 Frequencies --   1709.8627              1788.4091              1804.9463
 Red. masses --      7.5694                 9.6691                 9.3861
 Frc consts  --     13.0388                18.2209                18.0163
 IR Inten    --     86.2674               391.8481               174.7588

                     91                     92                     93
                      A                      A                      A
 Frequencies --   3021.4315              3029.3641              3044.0597
 Red. masses --      1.0607                 1.0607                 1.1007
 Frc consts  --      5.7053                 5.7350                 6.0093
 IR Inten    --     24.6842                17.0792                13.5748

                     94                     95                     96
                      A                      A                      A
 Frequencies --   3052.2891              3056.0980              3063.5183
 Red. masses --      1.0997                 1.0385                 1.0409
 Frc consts  --      6.0365                 5.7146                 5.7559
 IR Inten    --     11.4280                11.3438                14.9626

                     97                     98                     99
                      A                      A                      A
 Frequencies --   3067.8317              3069.0695              3111.9362
 Red. masses --      1.0363                 1.0357                 1.1005
 Frc consts  --      5.7462                 5.7477                 6.2790
 IR Inten    --     32.1340                18.8815                 6.6164

                    100                    101                    102
                      A                      A                      A
 Frequencies --   3114.1453              3136.7138              3138.1238
 Red. masses --      1.0997                 1.1023                 1.1029
 Frc consts  --      6.2836                 6.3897                 6.3994
 IR Inten    --     14.9695                26.7730                31.3621

                    103                    104                    105
                      A                      A                      A
 Frequencies --   3146.1275              3147.4259              3161.4071
 Red. masses --      1.1028                 1.1027                 1.1006
 Frc consts  --      6.4312                 6.4361                 6.4809
 IR Inten    --     18.7922                19.8202                 8.0640

                    106                    107                    108
                      A                      A                      A
 Frequencies --   3176.3732              3587.9097              3697.8480
 Red. masses --      1.0950                 1.0758                 1.0641
 Frc consts  --      6.5094                 8.1593                 8.5726
 IR Inten    --     27.0157                51.7664                62.2315

 - Thermochemistry -
 -------------------
 Temperature   298.150 Kelvin.  Pressure   1.00000 Atm.
 Atom     1 has atomic number  6 and mass  12.00000

 Molecular mass:   278.13789 amu.
 Principal axes and moments of inertia in atomic units:
                           1         2         3
     Eigenvalues --  3734.082008086.862879228.83160
           X            0.99973  -0.01680   0.01604
           Y            0.01728   0.99939  -0.03030
           Z           -0.01552   0.03057   0.99941
 This molecule is an asymmetric top.
 Rotational symmetry number  1.
 Warning -- assumption of classical behavior for rotation
           may cause significant error
 Rotational temperatures (Kelvin)      0.02320     0.01071     0.00939
 Rotational constants (GHZ):           0.48332     0.22317     0.19555
 Zero-point vibrational energy     811872.0 (Joules/Mol)
                                  194.04206 (Kcal/Mol)
 Warning -- explicit consideration of  32 degrees of freedom as
           vibrations may cause significant error
 Vibrational temperatures:     28.18    35.44    69.06    83.03    96.32
          (Kelvin)            110.27   141.16   144.76   162.95   178.72
                              189.43   220.18   228.59   254.34   294.13
                              338.50   359.85   378.08   390.99   429.00
                              477.31   513.40   517.37   522.37   568.12
                              632.12   650.86   702.02   742.87   826.95
                              859.53   886.16   906.28   923.18   941.32
                              979.42  1028.59  1094.96  1096.82  1128.98
                             1134.00  1149.67  1200.14  1208.64  1250.58
                             1403.12  1432.89  1442.49  1507.98  1522.67
                             1554.66  1565.83  1572.60  1586.96  1588.11
                             1614.13  1633.12  1670.33  1687.83  1726.70
                             1790.62  1868.01  1888.44  1917.36  1930.04
                             1946.01  1962.88  2005.94  2009.20  2047.64
                             2077.71  2078.84  2085.75  2087.45  2140.00
                             2167.75  2169.12  2172.81  2177.60  2190.16
                             2191.51  2196.68  2198.29  2200.28  2221.53
                             2285.05  2316.93  2460.11  2573.12  2596.92
                             4347.17  4358.58  4379.72  4391.56  4397.04
                             4407.72  4413.93  4415.71  4477.38  4480.56
                             4513.03  4515.06  4526.58  4528.44  4548.56
                             4570.09  5162.20  5320.38

 Zero-point correction=                           0.309226 (Hartree/Particle)
 Thermal correction to Energy=                    0.330454
 Thermal correction to Enthalpy=                  0.331398
 Thermal correction to Gibbs Free Energy=         0.257262
 Sum of electronic and zero-point Energies=           -950.661993
 Sum of electronic and thermal Energies=              -950.640765
 Sum of electronic and thermal Enthalpies=            -950.639820
 Sum of electronic and thermal Free Energies=         -950.713957

                     E (Thermal)             CV                S
                      KCal/Mol        Cal/Mol-Kelvin    Cal/Mol-Kelvin
 Total                  207.363             76.488            156.033
 Electronic               0.000              0.000              0.000
 Translational            0.889              2.981             42.767
 Rotational               0.889              2.981             33.988
 Vibrational            205.585             70.526             79.278
 Vibration     1          0.593              1.986              6.675
 Vibration     2          0.593              1.985              6.221
 Vibration     3          0.595              1.978              4.898
 Vibration     4          0.596              1.974              4.534
 Vibration     5          0.598              1.970              4.241
 Vibration     6          0.599              1.965              3.975
 Vibration     7          0.604              1.950              3.492
 Vibration     8          0.604              1.949              3.442
 Vibration     9          0.607              1.938              3.212
 Vibration    10          0.610              1.929              3.034
 Vibration    11          0.612              1.922              2.922
 Vibration    12          0.619              1.899              2.634
 Vibration    13          0.621              1.893              2.563
 Vibration    14          0.628              1.871              2.362
 Vibration    15          0.640              1.834              2.093
 Vibration    16          0.655              1.787              1.838
 Vibration    17          0.663              1.763              1.730
 Vibration    18          0.670              1.741              1.643
 Vibration    19          0.675              1.725              1.585
 Vibration    20          0.691              1.677              1.427
 Vibration    21          0.714              1.612              1.252
 Vibration    22          0.732              1.561              1.136
 Vibration    23          0.734              1.556              1.124
 Vibration    24          0.737              1.548              1.109
 Vibration    25          0.762              1.481              0.982
 Vibration    26          0.799              1.384              0.829
 Vibration    27          0.811              1.356              0.789
 Vibration    28          0.844              1.277              0.689
 Vibration    29          0.871              1.214              0.619
 Vibration    30          0.931              1.086              0.495
 Vibration    31          0.955              1.037              0.454
 Vibration    32          0.975              0.998              0.423

                           ! Non-Optimized Parameters !
 Normal termination of Gaussian 16 at Mon Dec 14 18:12:47 2020.

 ----------------------------------------------------------------------
 # B3LYP/6-311++G(d,p) empiricaldispersion=gd3bj scf=xqc pop=npa geom=c
 heck
 ----------------------------------------------------------------------

 ----------------------------------------
 CID_104919443_JID_10656_Energie_neutraal
 ----------------------------------------
 Structure from the checkpoint file:  "JID_10656.chk"
 Charge =  0 Multiplicity = 1

 SCF Done:  E(RB3LYP) =  -951.243930036     A.U. after   16 cycles
 Normal termination of Gaussian 16 at Mon Dec 14 18:20:19 2020.

 ----------------------------------------------------------------------
 # B3LYP/6-311++G(d,p) empiricaldispersion=gd3bj scf=xqc pop=npa geom=c
 heck
 ----------------------------------------------------------------------

 --------------------------------------
 CID_104919443_JID_10656_Energie_kation
 --------------------------------------
 Structure from the checkpoint file:  "JID_10656.chk"
 Charge =  1 Multiplicity = 2

 SCF Done:  E(UB3LYP) =  -950.942693616     A.U. after   28 cycles
 Normal termination of Gaussian 16 at Mon Dec 14 18:37:26 2020.
 Gaussian 16:  ES64L-G16RevA.03 25-Dec-2016

 ----------------------------------------------------------------------
 # B3LYP/6-311++G(d,p) empiricaldispersion=gd3bj scf=xqc pop=npa geom=c
 heck
 ----------------------------------------------------------------------

 -------------------------------------
 CID_104919443_JID_10656_Energie_anion
 -------------------------------------
 Structure from the checkpoint file:  "JID_10656.chk"
 Charge = -1 Multiplicity = 2

                         Standard orientation:
 ---------------------------------------------------------------------
 Center     Atomic      Atomic             Coordinates (Angstroms)
 Number     Number       Type             X           Y           Z
 ---------------------------------------------------------------------
      1          6           0        3.929223   -2.577688    0.782518
      2          6           0        3.917124   -1.066830    0.559501
      3          6           0        2.604682   -0.518436    0.058604
      4          6           0        2.430339    0.867524   -0.212145
      5          7           0        1.279577    1.310811   -0.707749
      6          7           0        0.271148    0.464537   -0.926048
      7          6           0        0.454757   -0.812195   -0.587949
      8          7           0        1.597881   -1.356841   -0.127217
      9          7           0       -0.589283   -1.701865   -0.762456
     10          6           0       -1.959674   -1.462679   -0.736129
     11          8           0       -2.737148   -2.399859   -0.756610
     12          6           0       -2.473903   -0.046910   -0.855804
     13          6           0       -2.794595    0.694018    0.224025
     14          6           0       -3.450885    2.049629    0.183344
     15          6           0       -2.428431    0.166203    1.560249
     16          8           0       -1.764164   -0.830799    1.785638
     17          8           0       -2.904546    0.936262    2.572776
     18          6           0       -2.703032    0.327519   -2.291483
     19          6           0        3.531074    1.873520    0.023947
     20          6           0        3.155960    3.314115   -0.323361
     21          1           0        3.173106   -2.872956    1.515079
     22          1           0        4.911423   -2.895740    1.145943
     23          1           0        3.711145   -3.114282   -0.145171
     24          1           0        4.173111   -0.541293    1.490807
     25          1           0        4.703902   -0.777940   -0.152129
     26          1           0       -0.352019   -2.667834   -0.564509
     27          1           0       -4.364029    2.055414    0.787475
     28          1           0       -2.786580    2.812622    0.605074
     29          1           0       -3.710515    2.352442   -0.831303
     30          1           0       -2.603585    0.500835    3.391558
     31          1           0       -1.734098    0.377077   -2.802064
     32          1           0       -3.305581   -0.444798   -2.783729
     33          1           0       -3.199626    1.290736   -2.409455
     34          1           0        3.841941    1.812042    1.077040
     35          1           0        4.416624    1.569174   -0.552943
     36          1           0        2.297810    3.650396    0.265006
     37          1           0        4.001604    3.979462   -0.121287
     38          1           0        2.881123    3.406570   -1.377430
 ---------------------------------------------------------------------

 SCF Done:  E(UB3LYP) =  -951.261114518     A.U. after   30 cycles

 The electronic state is 2-A.
 Alpha  occ. eigenvalues --  -19.05218 -18.97992 -18.97540 -14.21654 -14.16984
 Alpha  occ. eigenvalues --  -14.16838 -14.15343 -10.17001 -10.16114 -10.12441
 Alpha  occ. eigenvalues --  -10.07369 -10.06141 -10.06123 -10.06085 -10.06023
 Alpha  occ. eigenvalues --  -10.05839 -10.05796 -10.05696 -10.05173 -10.05006
 Alpha  occ. eigenvalues --   -0.98820  -0.92889  -0.89103  -0.88113  -0.81006
 Alpha  occ. eigenvalues --   -0.76745  -0.70788  -0.69728  -0.65543  -0.63151
 Alpha  occ. eigenvalues --   -0.62812  -0.57137  -0.56212  -0.54327  -0.52735
 Alpha  occ. eigenvalues --   -0.50453  -0.48126  -0.46470  -0.41810  -0.40713
 Alpha  occ. eigenvalues --   -0.39547  -0.36738  -0.36386  -0.35210  -0.34229
 Alpha  occ. eigenvalues --   -0.34106  -0.33302  -0.33245  -0.32590  -0.31096
 Alpha  occ. eigenvalues --   -0.30785  -0.30413  -0.29382  -0.29142  -0.27870
 Alpha  occ. eigenvalues --   -0.27078  -0.26604  -0.26303  -0.26233  -0.25749
 Alpha  occ. eigenvalues --   -0.25431  -0.24799  -0.23754  -0.23714  -0.20935
 Alpha  occ. eigenvalues --   -0.19770  -0.17938  -0.17269  -0.15909  -0.15692
 Alpha  occ. eigenvalues --   -0.14614  -0.13057  -0.10612  -0.07443   0.03899
 Alpha virt. eigenvalues --    0.06971   0.07380   0.08049   0.08412   0.08954
 Alpha virt. eigenvalues --    0.10023   0.10253   0.10461   0.10720   0.11435
 Alpha virt. eigenvalues --    0.11619   0.12410   0.12571   0.13376   0.13607

  Beta  occ. eigenvalues --  -19.05186 -18.97901 -18.97532 -14.21656 -14.16532
  Beta  occ. eigenvalues --  -14.16359 -14.14938 -10.16872 -10.16126 -10.12517
  Beta  occ. eigenvalues --  -10.07203 -10.06223 -10.06126 -10.05988 -10.05872
  Beta  occ. eigenvalues --  -10.05799 -10.05736 -10.05708 -10.05172 -10.05005
  Beta  occ. eigenvalues --   -0.98694  -0.92858  -0.88957  -0.87518  -0.80694
  Beta  occ. eigenvalues --   -0.76000  -0.70570  -0.69503  -0.65440  -0.63007
  Beta  occ. eigenvalues --   -0.62510  -0.57021  -0.55736  -0.54255  -0.52579
  Beta  occ. eigenvalues --   -0.50362  -0.48002  -0.46158  -0.41595  -0.40493
  Beta  occ. eigenvalues --   -0.39380  -0.36601  -0.36220  -0.34910  -0.34059
  Beta  occ. eigenvalues --   -0.33944  -0.33182  -0.33080  -0.32465  -0.31005
  Beta  occ. eigenvalues --   -0.30560  -0.30259  -0.29146  -0.28771  -0.27715
  Beta  occ. eigenvalues --   -0.27004  -0.26490  -0.26200  -0.26064  -0.25669
  Beta  occ. eigenvalues --   -0.25358  -0.24495  -0.23608  -0.23594  -0.20442
  Beta  occ. eigenvalues --   -0.18401  -0.17548  -0.15767  -0.15492  -0.15050
  Beta  occ. eigenvalues --   -0.14321  -0.12468  -0.09638  -0.06822
  Beta virt. eigenvalues --    0.07345   0.08006   0.08357   0.08380   0.08932
  Beta virt. eigenvalues --    0.09992   0.10157   0.10263   0.10788   0.11391
  Beta virt. eigenvalues --    0.11578   0.11746   0.12409   0.12553   0.13372

 Mulliken charges and spin densities:
               1          2
     1  C   -0.749092   0.006849
     2  C   -0.202411  -0.041795
     3  C    0.069726   0.239573
     4  C   -0.073036  -0.074294
     5  N    0.062787   0.304649
     6  N   -0.043267   0.121163
     7  C   -0.409786  -0.016486
     8  N   -0.010110   0.190130
     9  N   -0.071777  -0.000853
    10  C   -0.505779   0.000041
    11  O   -0.258097  -0.002362
    12  C    0.578438   0.091897
    13  C    0.461530   0.025897
    14  C   -0.706635  -0.000468
    15  C   -0.071651   0.078553
    16  O   -0.297799   0.032646
    17  O   -0.172868   0.006009
    18  C   -0.539616  -0.006391
    19  C   -0.089524  -0.019940
    20  C   -0.732801   0.001376
    21  H    0.163727  -0.000875
    22  H    0.102395  -0.000516
    23  H    0.149363   0.000474
    24  H    0.122796   0.020915
    25  H    0.121360   0.019153
    26  H    0.317875  -0.001582
    27  H    0.155797   0.003055
    28  H    0.184875   0.000499
    29  H    0.090802  -0.000263
    30  H    0.260860  -0.000296
    31  H    0.165291   0.020883
    32  H    0.173196   0.001010
    33  H    0.095388   0.003880
    34  H    0.125310  -0.000291
    35  H    0.124681  -0.001940
    36  H    0.155085   0.000367
    37  H    0.100541   0.000247
    38  H    0.152425  -0.000915
 Sum of Mulliken charges =  -1.00000   1.00000

 Dipole moment (field-independent basis, Debye):
    X=              1.6712    Y=              2.2762    Z=              0.9717  Tot=              2.9864
 Quadrupole moment (field-independent basis, Debye-Ang):
   XX=           -154.6978   YY=           -146.8185   ZZ=           -125.7840
   XY=             -9.3398   XZ=              1.0548   YZ=              2.0375

 Summary of Natural Population Analysis:

                                       Natural Population
                Natural  -----------------------------------------------
    Atom  No    Charge         Core      Valence    Rydberg      Total
 -----------------------------------------------------------------------
      C    1   -0.28335      0.99968     2.27881    0.00486     3.28335
      C    2   -0.20653      0.99962     2.20111    0.00580     3.20653
      C    3    0.17223      0.99953     1.81475    0.01349     2.82777
      C    4    0.03941      0.99952     1.94727    0.01380     2.96059
      N    5   -0.03863      0.99967     2.52475    0.01421     3.53863
      N    6   -0.13443      0.99967     2.61647    0.01829     3.63443
      C    7    0.26959      0.99961     1.71258    0.01822     2.73041
      N    8   -0.21303      0.99964     2.70249    0.01091     3.71303
      N    9   -0.31074      0.99961     2.79756    0.01357     3.81074
      C   10    0.35221      0.99961     1.62533    0.02285     2.64779
      O   11   -0.31640      0.99987     3.31021    0.00632     4.31640
      C   12    0.04010      0.99942     1.94611    0.01437     2.95990
      C   13   -0.07222      0.99936     2.06283    0.01003     3.07222
      C   14   -0.29090      0.99965     2.28637    0.00488     3.29090
      C   15    0.40669      0.99965     1.56736    0.02630     2.59331
      O   16   -0.30647      0.99987     3.29886    0.00774     4.30647
      O   17   -0.35054      0.99988     3.34541    0.00525     4.35054
      C   18   -0.29983      0.99961     2.29548    0.00474     3.29983
      C   19   -0.19811      0.99962     2.19271    0.00577     3.19811
      C   20   -0.28339      0.99967     2.27859    0.00513     3.28339
      H   21    0.10291      0.00000     0.39614    0.00095     0.39709
      H   22    0.08711      0.00000     0.41198    0.00090     0.41289
      H   23    0.10045      0.00000     0.39859    0.00096     0.39955
      H   24    0.09911      0.00000     0.39955    0.00134     0.40089
      H   25    0.09783      0.00000     0.40080    0.00137     0.40217
      H   26    0.20043      0.00000     0.29796    0.00161     0.29957
      H   27    0.10209      0.00000     0.39686    0.00105     0.39791
      H   28    0.10508      0.00000     0.39396    0.00097     0.39492
      H   29    0.09582      0.00000     0.40331    0.00087     0.40418
      H   30    0.23567      0.00000     0.26164    0.00269     0.26433
      H   31    0.11976      0.00000     0.37895    0.00129     0.38024
      H   32    0.10415      0.00000     0.39472    0.00113     0.39585
      H   33    0.09714      0.00000     0.40197    0.00089     0.40286
      H   34    0.09325      0.00000     0.40529    0.00147     0.40675
      H   35    0.09242      0.00000     0.40609    0.00149     0.40758
      H   36    0.10297      0.00000     0.39600    0.00103     0.39703
      H   37    0.08564      0.00000     0.41343    0.00093     0.41436
      H   38    0.10252      0.00000     0.39644    0.00104     0.39748
 =======================================================================
   * Total *    0.00000     19.99277    53.75872    0.24851    74.00000

 Normal termination of Gaussian 16 at Mon Dec 14 18:56:11 2020.
