 Gaussian 16, Revision A.03,

 -----------------------------------------------------------
 # opt freq B3LYP/6-31G(d) empiricaldispersion=gd3bj scf=xqc
 -----------------------------------------------------------

 -------------------------------
 CID_131846788_JID_1554_neutraal
 -------------------------------
 Symbolic Z-matrix:
 Charge =  0 Multiplicity = 1

 SCF Done:  E(RB3LYP) =  -504.297270965     A.U. after   13 cycles
 SCF Done:  E(RB3LYP) =  -504.300034986     A.U. after   11 cycles
 SCF Done:  E(RB3LYP) =  -504.300483074     A.U. after   10 cycles
 SCF Done:  E(RB3LYP) =  -504.300839622     A.U. after   10 cycles
 SCF Done:  E(RB3LYP) =  -504.300969704     A.U. after   10 cycles
 SCF Done:  E(RB3LYP) =  -504.301097452     A.U. after   10 cycles
 SCF Done:  E(RB3LYP) =  -504.301180611     A.U. after   10 cycles
 SCF Done:  E(RB3LYP) =  -504.301229846     A.U. after   10 cycles
 SCF Done:  E(RB3LYP) =  -504.301267873     A.U. after   10 cycles
 SCF Done:  E(RB3LYP) =  -504.301275846     A.U. after    9 cycles
 SCF Done:  E(RB3LYP) =  -504.301338135     A.U. after    8 cycles
 SCF Done:  E(RB3LYP) =  -504.301350301     A.U. after    9 cycles
 SCF Done:  E(RB3LYP) =  -504.301350280     A.U. after    7 cycles
 SCF Done:  E(RB3LYP) =  -504.301353193     A.U. after   10 cycles
 SCF Done:  E(RB3LYP) =  -504.301354307     A.U. after    9 cycles
 SCF Done:  E(RB3LYP) =  -504.301354397     A.U. after    7 cycles
 Optimization completed.
    -- Stationary point found.

 1\1\GINC-NODE120\FOpt\RB3LYP\6-31G(d)\C9H18O2\VSC10255\08-Dec-2020\0\\
 # opt freq B3LYP/6-31G(d) empiricaldispersion=gd3bj scf=xqc\\CID_13184
 6788_JID_1554_neutraal\\0,1\C,-2.7601590515,-1.4925652761,-2.619298733
 8\C,-1.336006137,-0.9425660454,-2.4549764409\C,-1.1670982072,0.2968376
 853,-3.3465550311\C,-0.9414038001,-0.6438996521,-0.9797950753\C,-1.296
 7087496,-1.7869322244,0.0013938469\C,-2.6560595379,-1.3947058912,0.593
 375467\C,-2.7270570879,0.1332949645,0.4166489165\O,-1.6834086074,0.494
 3877298,-0.4812526052\C,-2.5209279716,0.9327736341,1.7009277921\O,-3.9

 Normal termination of Gaussian 16 at Tue Dec  8 20:26:21 2020.

 --------------------------------------------------------------------
 #N Geom=AllCheck Guess=TCheck SCRF=Check GenChk RB3LYP/6-31G(d) Freq
 --------------------------------------------------------------------

 Structure from the checkpoint file:  "JID_1554.chk"
 -------------------------------
 CID_131846788_JID_1554_neutraal
 -------------------------------
 Charge =  0 Multiplicity = 1

 SCF Done:  E(RB3LYP) =  -504.301354397     A.U. after    1 cycles

  Exact polarizability: 106.383  -0.912  95.720  -0.517   0.646  91.613
 Approx polarizability: 136.073   1.585 133.988   0.909   1.945 133.544

                      1                      2                      3
                      A                      A                      A
 Frequencies --     41.1191                91.5407               139.0027
 Red. masses --      3.6839                 2.6237                 2.6927
 Frc consts  --      0.0037                 0.0130                 0.0307
 IR Inten    --      0.3453                 0.3136                 0.1871

                      4                      5                      6
                      A                      A                      A
 Frequencies --    204.9551               215.8980               233.0357
 Red. masses --      1.2429                 1.2786                 2.1486
 Frc consts  --      0.0308                 0.0351                 0.0687
 IR Inten    --      0.8980                 0.5427                 0.7939

                      7                      8                      9
                      A                      A                      A
 Frequencies --    260.9936               275.5632               295.2651
 Red. masses --      1.7667                 1.0749                 1.5120
 Frc consts  --      0.0709                 0.0481                 0.0777
 IR Inten    --     13.0994                 0.1576                43.7131

                     10                     11                     12
                      A                      A                      A
 Frequencies --    305.0157               336.1366               365.8501
 Red. masses --      1.1901                 1.8166                 2.0740
 Frc consts  --      0.0652                 0.1209                 0.1636
 IR Inten    --      0.4888                18.8175                22.0830

                     13                     14                     15
                      A                      A                      A
 Frequencies --    370.4840               388.5353               399.1414
 Red. masses --      2.6973                 2.1593                 2.5792
 Frc consts  --      0.2181                 0.1921                 0.2421
 IR Inten    --     19.1685                 0.2286                16.2785

                     16                     17                     18
                      A                      A                      A
 Frequencies --    438.9991               474.8773               526.0197
 Red. masses --      2.1783                 2.7451                 4.0069
 Frc consts  --      0.2473                 0.3647                 0.6532
 IR Inten    --      2.5787                 4.6854                28.0824

                     19                     20                     21
                      A                      A                      A
 Frequencies --    567.5046               599.6518               620.2950
 Red. masses --      2.7402                 3.9380                 3.3204
 Frc consts  --      0.5200                 0.8343                 0.7527
 IR Inten    --      1.0126                12.8922                 2.3383

                     22                     23                     24
                      A                      A                      A
 Frequencies --    734.0715               783.1513               859.9091
 Red. masses --      2.1653                 3.6949                 2.0893
 Frc consts  --      0.6875                 1.3352                 0.9102
 IR Inten    --      1.1791                 3.8313                 3.1946

                     25                     26                     27
                      A                      A                      A
 Frequencies --    900.6383               904.4403               944.7752
 Red. masses --      2.2727                 2.2765                 1.2404
 Frc consts  --      1.0861                 1.0972                 0.6524
 IR Inten    --      9.5033                10.7000                 1.3880

                     28                     29                     30
                      A                      A                      A
 Frequencies --    950.0939               961.8512               968.9872
 Red. masses --      1.7334                 1.7384                 2.2112
 Frc consts  --      0.9219                 0.9476                 1.2232
 IR Inten    --      7.3461                 3.7330                66.2782

                     31                     32                     33
                      A                      A                      A
 Frequencies --    984.8661              1022.3522              1028.8960
 Red. masses --      1.4931                 2.1061                 2.1134
 Frc consts  --      0.8533                 1.2969                 1.3182
 IR Inten    --      3.6049                39.6179                 6.2696

                     34                     35                     36
                      A                      A                      A
 Frequencies --   1056.4826              1089.4154              1121.7270
 Red. masses --      1.6717                 1.4516                 2.1157
 Frc consts  --      1.0994                 1.0150                 1.5685
 IR Inten    --     58.4769                42.7368                14.6914

                     37                     38                     39
                      A                      A                      A
 Frequencies --   1142.3110              1147.6217              1178.6500
 Red. masses --      1.8488                 2.0164                 2.0201
 Frc consts  --      1.4214                 1.5647                 1.6534
 IR Inten    --     28.8585               161.0300                35.8078

                     40                     41                     42
                      A                      A                      A
 Frequencies --   1202.2359              1224.0701              1236.7785
 Red. masses --      2.0351                 2.0026                 2.4136
 Frc consts  --      1.7330                 1.7679                 2.1752
 IR Inten    --      2.7411                 6.3194                13.6448

                     43                     44                     45
                      A                      A                      A
 Frequencies --   1288.6308              1297.4664              1344.1201
 Red. masses --      1.8081                 1.9056                 1.4102
 Frc consts  --      1.7690                 1.8901                 1.5011
 IR Inten    --     54.7727                 3.7967                24.5564

                     46                     47                     48
                      A                      A                      A
 Frequencies --   1357.0846              1363.5578              1389.1885
 Red. masses --      1.3522                 1.4643                 1.5217
 Frc consts  --      1.4672                 1.6041                 1.7302
 IR Inten    --      4.4497                 0.9592                 1.2542

                     49                     50                     51
                      A                      A                      A
 Frequencies --   1412.9416              1428.4800              1434.8613
 Red. masses --      1.7994                 1.2812                 1.2945
 Frc consts  --      2.1165                 1.5403                 1.5702
 IR Inten    --     25.5820                 3.8219                 8.1908

                     52                     53                     54
                      A                      A                      A
 Frequencies --   1437.5945              1452.4879              1512.4012
 Red. masses --      1.2805                 1.2220                 1.0629
 Frc consts  --      1.5592                 1.5189                 1.4324
 IR Inten    --     20.9082                 7.9221                 2.2778

                     55                     56                     57
                      A                      A                      A
 Frequencies --   1515.1656              1517.1108              1521.0898
 Red. masses --      1.0595                 1.0500                 1.0535
 Frc consts  --      1.4330                 1.4239                 1.4361
 IR Inten    --      0.4742                 2.6362                 2.8764

                     58                     59                     60
                      A                      A                      A
 Frequencies --   1525.2591              1528.9392              1536.3985
 Red. masses --      1.0733                 1.0596                 1.0651
 Frc consts  --      1.4711                 1.4594                 1.4813
 IR Inten    --      2.7628                 1.0275                 5.2858

                     61                     62                     63
                      A                      A                      A
 Frequencies --   1540.8228              1550.4969              1558.7422
 Red. masses --      1.0641                 1.0554                 1.0583
 Frc consts  --      1.4884                 1.4948                 1.5150
 IR Inten    --      9.7202                 7.6259                10.3699

                     64                     65                     66
                      A                      A                      A
 Frequencies --   3012.5425              3053.3971              3053.5289
 Red. masses --      1.0828                 1.0363                 1.0355
 Frc consts  --      5.7899                 5.6924                 5.6884
 IR Inten    --     27.9894                33.7505                 8.4326

                     67                     68                     69
                      A                      A                      A
 Frequencies --   3057.1849              3060.7163              3067.9767
 Red. masses --      1.0382                 1.0396                 1.0617
 Frc consts  --      5.7173                 5.7379                 5.8879
 IR Inten    --     17.0765                24.3367                30.4410

                     70                     71                     72
                      A                      A                      A
 Frequencies --   3095.8397              3110.9310              3114.7719
 Red. masses --      1.0646                 1.1014                 1.1002
 Frc consts  --      6.0118                 6.2801                 6.2890
 IR Inten    --     20.1190                25.8037                15.8472

                     73                     74                     75
                      A                      A                      A
 Frequencies --   3120.7979              3122.5892              3125.4497
 Red. masses --      1.1012                 1.1016                 1.1019
 Frc consts  --      6.3191                 6.3284                 6.3417
 IR Inten    --     36.4441                27.9723                45.4826

                     76                     77                     78
                      A                      A                      A
 Frequencies --   3134.4570              3137.8999              3142.2230
 Red. masses --      1.1025                 1.1038                 1.1018
 Frc consts  --      6.3819                 6.4034                 6.4095
 IR Inten    --     22.0977                25.6008                17.8677

                     79                     80                     81
                      A                      A                      A
 Frequencies --   3149.9749              3150.8790              3729.1131
 Red. masses --      1.1010                 1.1001                 1.0654
 Frc consts  --      6.4367                 6.4351                 8.7289
 IR Inten    --     15.2332                29.6695                14.9082

 - Thermochemistry -
 -------------------
 Temperature   298.150 Kelvin.  Pressure   1.00000 Atm.
 Atom     1 has atomic number  6 and mass  12.00000

 Molecular mass:   158.13068 amu.
 Principal axes and moments of inertia in atomic units:
                           1         2         3
     Eigenvalues --  1170.013201959.897112191.35889
           X            0.99954  -0.02949  -0.00643
           Y            0.02935   0.99934  -0.02144
           Z            0.00706   0.02124   0.99975
 This molecule is an asymmetric top.
 Rotational symmetry number  1.
 Warning -- assumption of classical behavior for rotation
           may cause significant error
 Rotational temperatures (Kelvin)      0.07403     0.04419     0.03953
 Rotational constants (GHZ):           1.54250     0.92083     0.82357
 Zero-point vibrational energy     691120.5 (Joules/Mol)
                                  165.18176 (Kcal/Mol)
 Warning -- explicit consideration of  21 degrees of freedom as
           vibrations may cause significant error
 Vibrational temperatures:     59.16   131.71   199.99   294.88   310.63
          (Kelvin)            335.29   375.51   396.47   424.82   438.85
                              483.63   526.38   533.04   559.02   574.28
                              631.62   683.24   756.83   816.51   862.77
                              892.47  1056.17  1126.78  1237.22  1295.82
                             1301.29  1359.32  1366.97  1383.89  1394.16
                             1417.00  1470.94  1480.35  1520.04  1567.43
                             1613.92  1643.53  1651.17  1695.81  1729.75
                             1761.16  1779.45  1854.05  1866.76  1933.89
                             1952.54  1961.86  1998.73  2032.91  2055.26
                             2064.45  2068.38  2089.81  2176.01  2179.99
                             2182.78  2188.51  2194.51  2199.80  2210.53
                             2216.90  2230.82  2242.68  4334.38  4393.16
                             4393.35  4398.61  4403.69  4414.13  4454.22
                             4475.94  4481.46  4490.13  4492.71  4496.83
                             4509.78  4514.74  4520.96  4532.11  4533.41
                             5365.36

 Zero-point correction=                           0.263234 (Hartree/Particle)
 Thermal correction to Energy=                    0.275549
 Thermal correction to Enthalpy=                  0.276493
 Thermal correction to Gibbs Free Energy=         0.226108
 Sum of electronic and zero-point Energies=           -504.038121
 Sum of electronic and thermal Energies=              -504.025805
 Sum of electronic and thermal Enthalpies=            -504.024861
 Sum of electronic and thermal Free Energies=         -504.075246

                     E (Thermal)             CV                S
                      KCal/Mol        Cal/Mol-Kelvin    Cal/Mol-Kelvin
 Total                  172.910             48.595            106.044
 Electronic               0.000              0.000              0.000
 Translational            0.889              2.981             41.084
 Rotational               0.889              2.981             29.998
 Vibrational            171.132             42.634             34.962
 Vibration     1          0.594              1.981              5.204
 Vibration     2          0.602              1.955              3.627
 Vibration     3          0.615              1.914              2.818
 Vibration     4          0.640              1.833              2.088
 Vibration     5          0.645              1.817              1.993
 Vibration     6          0.654              1.790              1.855
 Vibration     7          0.669              1.744              1.655
 Vibration     8          0.677              1.719              1.561
 Vibration     9          0.689              1.683              1.444
 Vibration    10          0.696              1.664              1.389
 Vibration    11          0.717              1.603              1.230
 Vibration    12          0.739              1.543              1.097
 Vibration    13          0.742              1.533              1.078
 Vibration    14          0.757              1.495              1.006
 Vibration    15          0.765              1.472              0.966
 Vibration    16          0.799              1.385              0.830
 Vibration    17          0.832              1.306              0.724
 Vibration    18          0.881              1.192              0.596
 Vibration    19          0.923              1.102              0.509
 Vibration    20          0.958              1.033              0.450
 Vibration    21          0.980              0.989              0.416

 Optimization completed.
    -- Stationary point found.

 1\1\GINC-NODE120\Freq\RB3LYP\6-31G(d)\C9H18O2\VSC10255\08-Dec-2020\0\\
 #N Geom=AllCheck Guess=TCheck SCRF=Check GenChk RB3LYP/6-31G(d) Freq\\
 CID_131846788_JID_1554_neutraal\\0,1\C,-2.7601590515,-1.4925652761,-2.
 6192987338\C,-1.336006137,-0.9425660454,-2.4549764409\C,-1.1670982072,
 0.2968376853,-3.3465550311\C,-0.9414038001,-0.6438996521,-0.9797950753
 \C,-1.2967087496,-1.7869322244,0.0013938469\C,-2.6560595379,-1.3947058
 912,0.593375467\C,-2.7270570879,0.1332949645,0.4166489165\O,-1.6834086
 074,0.4943877298,-0.4812526052\C,-2.5209279716,0.9327736341,1.70092779

 Normal termination of Gaussian 16 at Tue Dec  8 20:34:13 2020.

 ----------------------------------------------------------------------
 # B3LYP/6-311++G(d,p) empiricaldispersion=gd3bj scf=xqc pop=npa geom=c
 heck
 ----------------------------------------------------------------------

 ---------------------------------------
 CID_131846788_JID_1554_Energie_neutraal
 ---------------------------------------
 Structure from the checkpoint file:  "JID_1554.chk"
 Charge =  0 Multiplicity = 1

 SCF Done:  E(RB3LYP) =  -504.453270142     A.U. after   13 cycles
 Normal termination of Gaussian 16 at Tue Dec  8 20:37:34 2020.

 ----------------------------------------------------------------------
 # B3LYP/6-311++G(d,p) empiricaldispersion=gd3bj scf=xqc pop=npa geom=c
 heck
 ----------------------------------------------------------------------

 -------------------------------------
 CID_131846788_JID_1554_Energie_kation
 -------------------------------------
 Structure from the checkpoint file:  "JID_1554.chk"
 Charge =  1 Multiplicity = 2

 SCF Done:  E(UB3LYP) =  -504.120114725     A.U. after   21 cycles
 Normal termination of Gaussian 16 at Tue Dec  8 20:45:08 2020.
 Gaussian 16:  ES64L-G16RevA.03 25-Dec-2016

 ------------------------------------
 CID_131846788_JID_1554_Energie_anion
 ------------------------------------
 Structure from the checkpoint file:  "JID_1554.chk"
 Charge = -1 Multiplicity = 2

                         Standard orientation:
 ---------------------------------------------------------------------
 Center     Atomic      Atomic             Coordinates (Angstroms)
 Number     Number       Type             X           Y           Z
 ---------------------------------------------------------------------
      1          6           0        1.474725   -1.642459    0.803096
      2          6           0        1.837729   -0.277460    0.200834
      3          6           0        2.442132   -0.486143   -1.195845
      4          6           0        0.654053    0.731907    0.166728
      5          6           0       -0.129520    0.814909    1.498876
      6          6           0       -1.319173   -0.136407    1.320432
      7          6           0       -1.504855   -0.239601   -0.204669
      8          8           0       -0.336702    0.312689   -0.801505
      9          6           0       -2.704471    0.529194   -0.753217
     10          8           0       -1.616082   -1.617823   -0.527178
     11          6           0        1.127690    2.119954   -0.273234
     12          1           0        0.666876   -2.116174    0.237648
     13          1           0        1.159350   -1.565314    1.848841
     14          1           0        2.347455   -2.304542    0.776227
     15          1           0        2.603269    0.182244    0.844086
     16          1           0        1.675248   -0.855725   -1.883859
     17          1           0        2.859459    0.433709   -1.616015
     18          1           0        3.249843   -1.224992   -1.153883
     19          1           0        0.492746    0.561008    2.361775
     20          1           0       -0.483496    1.840973    1.646131
     21          1           0       -2.224879    0.229067    1.812225
     22          1           0       -1.108441   -1.135009    1.706466
     23          1           0       -2.696951    0.501713   -1.848920
     24          1           0       -3.639234    0.089181   -0.392842
     25          1           0       -2.659787    1.578786   -0.444773
     26          1           0       -1.610201   -1.676588   -1.496639
     27          1           0        1.881296    2.509658    0.420713
     28          1           0        1.560109    2.098099   -1.276212
     29          1           0        0.279751    2.811609   -0.289500
 ---------------------------------------------------------------------

 SCF Done:  E(UB3LYP) =  -504.436279934     A.U. after   27 cycles

 The electronic state is 2-A.
 Alpha  occ. eigenvalues --  -19.01810 -19.01055 -10.16597 -10.12070 -10.06640
 Alpha  occ. eigenvalues --  -10.06208 -10.06113 -10.05269 -10.05019 -10.04741
 Alpha  occ. eigenvalues --  -10.04551  -0.95884  -0.89636  -0.70745  -0.67733
 Alpha  occ. eigenvalues --   -0.64714  -0.61088  -0.57310  -0.54489  -0.50397
 Alpha  occ. eigenvalues --   -0.48229  -0.44649  -0.40052  -0.38115  -0.36312
 Alpha  occ. eigenvalues --   -0.34980  -0.33033  -0.32638  -0.31232  -0.30782
 Alpha  occ. eigenvalues --   -0.29615  -0.28110  -0.27894  -0.27245  -0.26396
 Alpha  occ. eigenvalues --   -0.25475  -0.24626  -0.23832  -0.23080  -0.22131
 Alpha  occ. eigenvalues --   -0.21529  -0.20276  -0.18437  -0.15317   0.04768
 Alpha virt. eigenvalues --    0.07045   0.07507   0.08198   0.09283   0.09688
 Alpha virt. eigenvalues --    0.10040   0.10355   0.10879   0.12313   0.12601
 Alpha virt. eigenvalues --    0.12934   0.13193   0.13433   0.14408   0.15042

  Beta  occ. eigenvalues --  -19.01786 -19.01042 -10.16595 -10.12067 -10.06628
  Beta  occ. eigenvalues --  -10.06184 -10.06093 -10.05228 -10.04992 -10.04719
  Beta  occ. eigenvalues --  -10.04532  -0.95853  -0.89592  -0.70720  -0.67699
  Beta  occ. eigenvalues --   -0.64679  -0.61037  -0.57264  -0.54422  -0.50343
  Beta  occ. eigenvalues --   -0.48175  -0.44599  -0.40011  -0.38077  -0.36261
  Beta  occ. eigenvalues --   -0.34938  -0.33000  -0.32600  -0.31195  -0.30747
  Beta  occ. eigenvalues --   -0.29587  -0.28080  -0.27859  -0.27222  -0.26363
  Beta  occ. eigenvalues --   -0.25445  -0.24577  -0.23801  -0.23045  -0.22103
  Beta  occ. eigenvalues --   -0.21497  -0.20250  -0.18406  -0.15296
  Beta virt. eigenvalues --    0.07033   0.07989   0.08434   0.08708   0.10035
  Beta virt. eigenvalues --    0.10211   0.10580   0.10878   0.11269   0.12823
  Beta virt. eigenvalues --    0.13085   0.13202   0.13556   0.13878   0.14675

 Mulliken charges and spin densities:
               1          2
     1  C    0.311229  -0.926444
     2  C   -1.348982   1.172588
     3  C    0.734442  -1.343118
     4  C   -1.159078   1.529413
     5  C    1.515794  -2.029841
     6  C   -0.573306   0.188375
     7  C   -1.439379   1.261263
     8  O    0.020773   0.017691
     9  C    2.308100  -2.777865
    10  O   -0.193397   0.032365
    11  C    1.384550  -1.659076
    12  H   -0.029655   0.283902
    13  H    0.044542   0.072997
    14  H    0.004228   0.132738
    15  H   -0.457306   0.628570
    16  H   -0.102727   0.272998
    17  H   -0.055923   0.175975
    18  H   -0.116363   0.243777
    19  H   -0.159112   0.343086
    20  H   -0.214538   0.379584
    21  H   -0.599340   0.785545
    22  H    0.192131  -0.006039
    23  H   -0.349682   0.498896
    24  H   -0.166111   0.330093
    25  H   -0.219452   0.377852
    26  H   -0.037292   0.286072
    27  H   -0.223935   0.379692
    28  H   -0.013945   0.147541
    29  H   -0.056268   0.201370
 Sum of Mulliken charges =  -1.00000   1.00000

 Dipole moment (field-independent basis, Debye):
    X=              1.0051    Y=             -1.5668    Z=             -0.3090  Tot=              1.8869
 Quadrupole moment (field-independent basis, Debye-Ang):
   XX=           -126.9493   YY=           -109.8079   ZZ=           -108.9848
   XY=              0.9076   XZ=             -1.7622   YZ=             -3.4705

 Summary of Natural Population Analysis:

                                       Natural Population
                Natural  -----------------------------------------------
    Atom  No    Charge         Core      Valence    Rydberg      Total
 -----------------------------------------------------------------------
      C    1   -0.29133      0.99964     2.28610    0.00559     3.29133
      C    2   -0.11879      0.99954     2.10749    0.01175     3.11879
      C    3   -0.28453      0.99965     2.27946    0.00542     3.28453
      C    4    0.14227      0.99951     1.83989    0.01833     2.85773
      C    5   -0.20049      0.99958     2.19133    0.00958     3.20049
      C    6   -0.20492      0.99957     2.19650    0.00885     3.20492
      C    7    0.28319      0.99956     1.69682    0.02044     2.71681
      O    8   -0.32517      0.99986     3.31487    0.01044     4.32517
      C    9   -0.29748      0.99960     2.29135    0.00654     3.29748
      O   10   -0.37539      0.99988     3.36915    0.00636     4.37539
      C   11   -0.28829      0.99960     2.28170    0.00699     3.28829
      H   12    0.10943      0.00000     0.38882    0.00175     0.39057
      H   13    0.09703      0.00000     0.40190    0.00107     0.40297
      H   14    0.09672      0.00000     0.40236    0.00091     0.40328
      H   15    0.09494      0.00000     0.40296    0.00210     0.40506
      H   16    0.10407      0.00000     0.39448    0.00145     0.39593
      H   17    0.09784      0.00000     0.40110    0.00106     0.40216
      H   18    0.09609      0.00000     0.40290    0.00100     0.40391
      H   19    0.10583      0.00000     0.39279    0.00138     0.39417
      H   20    0.10163      0.00000     0.39665    0.00172     0.39837
      H   21    0.10552      0.00000     0.39319    0.00129     0.39448
      H   22    0.10842      0.00000     0.38995    0.00163     0.39158
      H   23    0.10193      0.00000     0.39658    0.00149     0.39807
      H   24    0.10147      0.00000     0.39722    0.00131     0.39853
      H   25    0.10383      0.00000     0.39454    0.00164     0.39617
      H   26    0.23101      0.00000     0.26571    0.00328     0.26899
      H   27    0.10055      0.00000     0.39808    0.00136     0.39945
      H   28    0.10251      0.00000     0.39638    0.00111     0.39749
      H   29    0.10208      0.00000     0.39667    0.00125     0.39792
 =======================================================================
   * Total *    0.00000     10.99598    32.86693    0.13709    44.00000

 Normal termination of Gaussian 16 at Tue Dec  8 20:55:00 2020.
