 Gaussian 16, Revision A.03,

 -----------------------------------------------------------
 # opt freq B3LYP/6-31G(d) empiricaldispersion=gd3bj scf=xqc
 -----------------------------------------------------------

 -------------------------------
 CID_137181119_JID_5195_neutraal
 -------------------------------
 Symbolic Z-matrix:
 Charge =  0 Multiplicity = 1

 SCF Done:  E(RB3LYP) =  -718.478552209     A.U. after   15 cycles
 SCF Done:  E(RB3LYP) =  -718.482960820     A.U. after   13 cycles
 SCF Done:  E(RB3LYP) =  -718.483813879     A.U. after   12 cycles
 SCF Done:  E(RB3LYP) =  -718.484110357     A.U. after   12 cycles
 SCF Done:  E(RB3LYP) =  -718.484027264     A.U. after   13 cycles
 SCF Done:  E(RB3LYP) =  -718.484345657     A.U. after   11 cycles
 SCF Done:  E(RB3LYP) =  -718.484508064     A.U. after   11 cycles
 SCF Done:  E(RB3LYP) =  -718.484541637     A.U. after   10 cycles
 SCF Done:  E(RB3LYP) =  -718.484549931     A.U. after    9 cycles
 SCF Done:  E(RB3LYP) =  -718.484553914     A.U. after    8 cycles
 SCF Done:  E(RB3LYP) =  -718.484808002     A.U. after    9 cycles
 SCF Done:  E(RB3LYP) =  -718.484809493     A.U. after    9 cycles
 SCF Done:  E(RB3LYP) =  -718.484809478     A.U. after    7 cycles
 SCF Done:  E(RB3LYP) =  -718.484809978     A.U. after    9 cycles
 SCF Done:  E(RB3LYP) =  -718.484810007     A.U. after    6 cycles
 Optimization completed.
    -- Stationary point found.
 Normal termination of Gaussian 16 at Thu Dec 10 14:56:05 2020.

 --------------------------------------------------------------------
 #N Geom=AllCheck Guess=TCheck SCRF=Check GenChk RB3LYP/6-31G(d) Freq
 --------------------------------------------------------------------

 Structure from the checkpoint file:  "JID_5195.chk"
 -------------------------------
 CID_137181119_JID_5195_neutraal
 -------------------------------
 Charge =  0 Multiplicity = 1

 SCF Done:  E(RB3LYP) =  -718.484810007     A.U. after    1 cycles

  Exact polarizability: 168.096   4.424 127.891  -8.062   1.443  72.139
 Approx polarizability: 242.245   1.910 218.359 -18.097   4.081 115.975

                      1                      2                      3
                      A                      A                      A
 Frequencies --     50.5772                66.6668                69.7378
 Red. masses --      4.7119                 1.4585                 2.7879
 Frc consts  --      0.0071                 0.0038                 0.0080
 IR Inten    --      0.8704                 1.1889                 2.5095

                      4                      5                      6
                      A                      A                      A
 Frequencies --     78.0337               126.8236               152.4759
 Red. masses --      3.5818                 2.4496                 3.0025
 Frc consts  --      0.0129                 0.0232                 0.0411
 IR Inten    --      5.1190                 1.7867                 0.7909

                      7                      8                      9
                      A                      A                      A
 Frequencies --    162.4411               186.3240               234.5238
 Red. masses --      3.2142                 2.2928                 4.6051
 Frc consts  --      0.0500                 0.0469                 0.1492
 IR Inten    --      0.3691                 1.3322                 2.3265

                     10                     11                     12
                      A                      A                      A
 Frequencies --    258.9861               285.5594               308.8211
 Red. masses --      2.7948                 3.3838                 4.2369
 Frc consts  --      0.1104                 0.1626                 0.2381
 IR Inten    --      1.1644                 1.7516                 6.8026

                     13                     14                     15
                      A                      A                      A
 Frequencies --    337.6252               382.4516               450.1857
 Red. masses --      7.2936                 7.0981                 5.1142
 Frc consts  --      0.4899                 0.6117                 0.6107
 IR Inten    --      0.6156                 7.8719                 5.6015

                     16                     17                     18
                      A                      A                      A
 Frequencies --    491.1067               503.7756               543.9584
 Red. masses --      1.8800                 2.9717                 1.6476
 Frc consts  --      0.2671                 0.4444                 0.2872
 IR Inten    --     23.5595                32.9727                13.7484

                     19                     20                     21
                      A                      A                      A
 Frequencies --    568.9049               578.9304               665.8815
 Red. masses --      1.2641                 4.3042                 2.3670
 Frc consts  --      0.2411                 0.8499                 0.6184
 IR Inten    --    182.1081                11.1757                12.0978

                     22                     23                     24
                      A                      A                      A
 Frequencies --    669.8169               671.8039               700.4521
 Red. masses --      2.4480                 3.7800                 4.0476
 Frc consts  --      0.6471                 1.0051                 1.1701
 IR Inten    --     10.1589                 0.9404                35.5702

                     25                     26                     27
                      A                      A                      A
 Frequencies --    710.1085               745.2688               753.6623
 Red. masses --      5.1947                 5.5699                 6.4963
 Frc consts  --      1.5433                 1.8227                 2.1741
 IR Inten    --     10.3560                 4.9953                27.2741

                     28                     29                     30
                      A                      A                      A
 Frequencies --    786.6200               838.0835               957.4300
 Red. masses --      8.7867                 1.4480                 5.8339
 Frc consts  --      3.2034                 0.5992                 3.1508
 IR Inten    --     12.9703                14.4672                 4.4343

                     31                     32                     33
                      A                      A                      A
 Frequencies --    971.3104              1009.7590              1025.9637
 Red. masses --      2.6809                 1.6498                 4.3048
 Frc consts  --      1.4902                 0.9911                 2.6698
 IR Inten    --      3.9171                 7.6642               177.5895

                     34                     35                     36
                      A                      A                      A
 Frequencies --   1068.5971              1084.4097              1100.1426
 Red. masses --      1.3877                 1.4951                 2.5448
 Frc consts  --      0.9336                 1.0359                 1.8147
 IR Inten    --      3.7533                 2.0940                84.0739

                     37                     38                     39
                      A                      A                      A
 Frequencies --   1140.2820              1163.1439              1203.3910
 Red. masses --      1.5970                 3.0989                 3.2642
 Frc consts  --      1.2234                 2.4702                 2.7851
 IR Inten    --    114.6817               104.6837                30.9356

                     40                     41                     42
                      A                      A                      A
 Frequencies --   1209.0228              1240.5371              1299.7729
 Red. masses --      3.2942                 2.0096                 4.6699
 Frc consts  --      2.8370                 1.8221                 4.6483
 IR Inten    --     13.1629               119.1120                28.4000

                     43                     44                     45
                      A                      A                      A
 Frequencies --   1311.0859              1333.3001              1401.7558
 Red. masses --      3.1461                 3.1575                 4.8308
 Frc consts  --      3.1863                 3.3071                 5.5926
 IR Inten    --     16.7170                15.4026                38.6450

                     46                     47                     48
                      A                      A                      A
 Frequencies --   1424.2316              1443.9000              1450.8223
 Red. masses --      2.4050                 1.4387                 2.9330
 Frc consts  --      2.8743                 1.7672                 3.6374
 IR Inten    --      0.8814                17.5592                87.2554

                     49                     50                     51
                      A                      A                      A
 Frequencies --   1456.3713              1484.0829              1503.4370
 Red. masses --      1.3979                 3.8527                 1.5483
 Frc consts  --      1.7469                 4.9996                 2.0620
 IR Inten    --      1.9355                14.1875                11.5327

                     52                     53                     54
                      A                      A                      A
 Frequencies --   1509.5796              1516.8224              1527.8101
 Red. masses --      1.0589                 1.1022                 1.1094
 Frc consts  --      1.4217                 1.4942                 1.5257
 IR Inten    --      1.9718                 8.2619                 4.8865

                     55                     56                     57
                      A                      A                      A
 Frequencies --   1538.9833              1556.8493              1617.7848
 Red. masses --      1.7184                 3.9493                 8.4986
 Frc consts  --      2.3980                 5.6397                13.1051
 IR Inten    --      5.6463                79.5646               119.2972

                     58                     59                     60
                      A                      A                      A
 Frequencies --   1639.5762              1824.8271              3041.9229
 Red. masses --      5.6181                 9.4993                 1.0395
 Frc consts  --      8.8982                18.6375                 5.6673
 IR Inten    --     16.0108               280.5290                40.7646

                     61                     62                     63
                      A                      A                      A
 Frequencies --   3049.5787              3095.7884              3111.7635
 Red. masses --      1.0365                 1.0994                 1.1009
 Frc consts  --      5.6796                 6.2081                 6.2808
 IR Inten    --     31.8519                20.0175                27.2049

                     64                     65                     66
                      A                      A                      A
 Frequencies --   3119.6276              3128.0866              3268.4766
 Red. masses --      1.1008                 1.0998                 1.0974
 Frc consts  --      6.3118                 6.3402                 6.9072
 IR Inten    --      8.7365                13.2905                 4.7099

                     67                     68                     69
                      A                      A                      A
 Frequencies --   3653.5634              3656.2613              3706.2505
 Red. masses --      1.0812                 1.0809                 1.0644
 Frc consts  --      8.5035                 8.5137                 8.6142
 IR Inten    --    112.5495                56.6736                78.8977

 - Thermochemistry -
 -------------------
 Temperature   298.150 Kelvin.  Pressure   1.00000 Atm.
 Atom     1 has atomic number  6 and mass  12.00000

 Molecular mass:   206.08038 amu.
 Principal axes and moments of inertia in atomic units:
                           1         2         3
     Eigenvalues --  1703.868494067.427675206.86099
           X            0.99976   0.02177   0.00337
           Y           -0.02184   0.99957   0.01966
           Z           -0.00294  -0.01973   0.99980
 This molecule is an asymmetric top.
 Rotational symmetry number  1.
 Warning -- assumption of classical behavior for rotation
           may cause significant error
 Rotational temperatures (Kelvin)      0.05083     0.02129     0.01663
 Rotational constants (GHZ):           1.05920     0.44371     0.34661
 Zero-point vibrational energy     509764.1 (Joules/Mol)
                                  121.83655 (Kcal/Mol)
 Warning -- explicit consideration of  20 degrees of freedom as
           vibrations may cause significant error
 Vibrational temperatures:     72.77    95.92   100.34   112.27   182.47
          (Kelvin)            219.38   233.72   268.08   337.43   372.62
                              410.86   444.32   485.77   550.26   647.72
                              706.59   724.82   782.63   818.53   832.95
                              958.05   963.72   966.58  1007.79  1021.69
                             1072.28  1084.35  1131.77  1205.82  1377.53
                             1397.50  1452.82  1476.13  1537.47  1560.22
                             1582.86  1640.61  1673.50  1731.41  1739.51
                             1784.86  1870.08  1886.36  1918.32  2016.81
                             2049.15  2077.45  2087.41  2095.39  2135.26
                             2163.11  2171.95  2182.37  2198.18  2214.25
                             2239.96  2327.63  2358.98  2625.52  4376.65
                             4387.66  4454.15  4477.13  4488.45  4500.62
                             4702.61  5256.66  5260.54  5332.47

 Zero-point correction=                           0.194159 (Hartree/Particle)
 Thermal correction to Energy=                    0.207877
 Thermal correction to Enthalpy=                  0.208822
 Thermal correction to Gibbs Free Energy=         0.153091
 Sum of electronic and zero-point Energies=           -718.290651
 Sum of electronic and thermal Energies=              -718.276933
 Sum of electronic and thermal Enthalpies=            -718.275988
 Sum of electronic and thermal Free Energies=         -718.331719

                     E (Thermal)             CV                S
                      KCal/Mol        Cal/Mol-Kelvin    Cal/Mol-Kelvin
 Total                  130.445             50.656            117.294
 Electronic               0.000              0.000              0.000
 Translational            0.889              2.981             41.873
 Rotational               0.889              2.981             31.957
 Vibrational            128.668             44.695             43.464
 Vibration     1          0.595              1.977              4.795
 Vibration     2          0.598              1.970              4.249
 Vibration     3          0.598              1.969              4.161
 Vibration     4          0.599              1.964              3.940
 Vibration     5          0.611              1.926              2.994
 Vibration     6          0.619              1.900              2.641
 Vibration     7          0.623              1.888              2.521
 Vibration     8          0.632              1.859              2.264
 Vibration     9          0.654              1.788              1.844
 Vibration    10          0.668              1.748              1.669
 Vibration    11          0.683              1.700              1.500
 Vibration    12          0.698              1.657              1.369
 Vibration    13          0.718              1.600              1.223
 Vibration    14          0.752              1.508              1.029
 Vibration    15          0.809              1.360              0.795
 Vibration    16          0.847              1.270              0.681
 Vibration    17          0.859              1.242              0.649
 Vibration    18          0.899              1.153              0.557
 Vibration    19          0.925              1.099              0.506
 Vibration    20          0.936              1.077              0.487

 Optimization completed.
    -- Stationary point found.
 Normal termination of Gaussian 16 at Thu Dec 10 15:03:01 2020.

 ----------------------------------------------------------------------
 # B3LYP/6-311++G(d,p) empiricaldispersion=gd3bj scf=xqc pop=npa geom=c
 heck
 ----------------------------------------------------------------------

 ---------------------------------------
 CID_137181119_JID_5195_Energie_neutraal
 ---------------------------------------
 Structure from the checkpoint file:  "JID_5195.chk"
 Charge =  0 Multiplicity = 1

 SCF Done:  E(RB3LYP) =  -718.693337072     A.U. after   16 cycles
 Normal termination of Gaussian 16 at Thu Dec 10 15:06:13 2020.

 ----------------------------------------------------------------------
 # B3LYP/6-311++G(d,p) empiricaldispersion=gd3bj scf=xqc pop=npa geom=c
 heck
 ----------------------------------------------------------------------

 -------------------------------------
 CID_137181119_JID_5195_Energie_kation
 -------------------------------------
 Structure from the checkpoint file:  "JID_5195.chk"
 Charge =  1 Multiplicity = 2

 SCF Done:  E(UB3LYP) =  -718.398173058     A.U. after   29 cycles
 Normal termination of Gaussian 16 at Thu Dec 10 15:14:23 2020.
 Gaussian 16:  ES64L-G16RevA.03 25-Dec-2016

 ----------------------------------------------------------------------
 # B3LYP/6-311++G(d,p) empiricaldispersion=gd3bj scf=xqc pop=npa geom=c
 heck
 ----------------------------------------------------------------------

 ------------------------------------
 CID_137181119_JID_5195_Energie_anion
 ------------------------------------
 Structure from the checkpoint file:  "JID_5195.chk"
 Charge = -1 Multiplicity = 2

                         Standard orientation:
 ---------------------------------------------------------------------
 Center     Atomic      Atomic             Coordinates (Angstroms)
 Number     Number       Type             X           Y           Z
 ---------------------------------------------------------------------
      1          6           0        1.146770    1.430130    1.372531
      2          6           0        1.550998    0.330970    0.441954
      3          6           0        2.828950    0.056125   -0.020453
      4          7           0        2.709504   -1.056376   -0.801525
      5          7           0        1.456598   -1.537917   -0.881067
      6          6           0        0.738236   -0.691060   -0.131177
      7          6           0       -0.691460   -0.928025    0.061649
      8          6           0       -1.748622   -0.019702   -0.013004
      9          7           0       -2.885449   -0.762777    0.273919
     10          6           0       -2.486143   -2.038990    0.491945
     11          7           0       -1.177628   -2.177236    0.376360
     12          6           0       -1.834107    1.369469   -0.425291
     13          8           0       -0.920983    2.085068   -0.785154
     14          8           0       -3.130607    1.816345   -0.378888
     15          6           0        4.131600    0.752846    0.197445
     16          1           0        1.960408    1.686444    2.060823
     17          1           0        0.283049    1.129074    1.975223
     18          1           0        0.858264    2.334349    0.827235
     19          1           0        3.443686   -1.534565   -1.301951
     20          1           0       -3.823282   -0.388071    0.286809
     21          1           0       -3.179722   -2.831251    0.740046
     22          1           0       -3.098271    2.739920   -0.688002
     23          1           0        4.328939    1.506720   -0.575636
     24          1           0        4.130611    1.268367    1.162581
     25          1           0        4.970522    0.047272    0.197818
 ---------------------------------------------------------------------

 SCF Done:  E(UB3LYP) =  -718.690127922     A.U. after   33 cycles
 SCF Done:  E(UB3LYP) =  -718.690127922     a.u. after    1 cycles

 The electronic state is 2-A.
 Alpha  occ. eigenvalues --  -19.03672 -18.95657 -14.25102 -14.23553 -14.19050
 Alpha  occ. eigenvalues --  -14.16803 -10.14402 -10.09901 -10.08154 -10.06822
 Alpha  occ. eigenvalues --  -10.06576 -10.05958 -10.05924 -10.04045 -10.03979
 Alpha  occ. eigenvalues --   -0.96887  -0.91437  -0.88901  -0.87393  -0.75003
 Alpha  occ. eigenvalues --   -0.69908  -0.68065  -0.63241  -0.60381  -0.56555
 Alpha  occ. eigenvalues --   -0.54127  -0.50143  -0.49048  -0.44143  -0.42519
 Alpha  occ. eigenvalues --   -0.40892  -0.38951  -0.35341  -0.34323  -0.33525
 Alpha  occ. eigenvalues --   -0.33123  -0.31705  -0.31075  -0.30070  -0.29385
 Alpha  occ. eigenvalues --   -0.28719  -0.27910  -0.27673  -0.26884  -0.26779
 Alpha  occ. eigenvalues --   -0.24105  -0.19582  -0.16958  -0.16145  -0.14954
 Alpha  occ. eigenvalues --   -0.14448  -0.13212  -0.10628  -0.09850   0.04923
 Alpha virt. eigenvalues --    0.06632   0.07674   0.08862   0.09133   0.10530
 Alpha virt. eigenvalues --    0.10763   0.11521   0.12489   0.13378   0.13798
 Alpha virt. eigenvalues --    0.14447   0.14657   0.15361   0.16217   0.16330

  Beta  occ. eigenvalues --  -19.03610 -18.95345 -14.25050 -14.23348 -14.18941
  Beta  occ. eigenvalues --  -14.16890 -10.14076 -10.09775 -10.08167 -10.06782
  Beta  occ. eigenvalues --  -10.06531 -10.05967 -10.05712 -10.04038 -10.03956
  Beta  occ. eigenvalues --   -0.96573  -0.91318  -0.88670  -0.86926  -0.74798
  Beta  occ. eigenvalues --   -0.69797  -0.67991  -0.62839  -0.60304  -0.56499
  Beta  occ. eigenvalues --   -0.53587  -0.49974  -0.48858  -0.44078  -0.42338
  Beta  occ. eigenvalues --   -0.40756  -0.38864  -0.34922  -0.34137  -0.33375
  Beta  occ. eigenvalues --   -0.32217  -0.31580  -0.30931  -0.29862  -0.29054
  Beta  occ. eigenvalues --   -0.28207  -0.27765  -0.27529  -0.26809  -0.26566
  Beta  occ. eigenvalues --   -0.24050  -0.18344  -0.16268  -0.16020  -0.14957
  Beta  occ. eigenvalues --   -0.14184  -0.12722  -0.10436  -0.08884
  Beta virt. eigenvalues --    0.07499   0.07709   0.08854   0.09499   0.10139
  Beta virt. eigenvalues --    0.10703   0.11204   0.11513   0.12731   0.13715
  Beta virt. eigenvalues --    0.13836   0.14548   0.14805   0.15419   0.16257

 Mulliken charges and spin densities:
               1          2
     1  C   -0.815608  -0.235951
     2  C    0.534951  -0.241675
     3  C   -1.071850   1.482033
     4  N   -0.288798   0.047764
     5  N   -0.051360   0.076070
     6  C   -0.291882   0.029132
     7  C   -0.338205   0.157075
     8  C    0.241251   0.038960
     9  N   -0.188946   0.069950
    10  C    0.205374   0.103742
    11  N   -0.076406  -0.042775
    12  C   -0.343221   0.222349
    13  O   -0.395028   0.105069
    14  O   -0.242152   0.010888
    15  C    1.684456  -2.251396
    16  H    0.127283  -0.025466
    17  H    0.094809   0.037990
    18  H    0.166986   0.026016
    19  H    0.135494   0.179182
    20  H    0.292894  -0.000727
    21  H    0.133168  -0.007074
    22  H    0.262752   0.002401
    23  H    0.005116   0.160369
    24  H   -0.178252   0.314837
    25  H   -0.602824   0.741236
 Sum of Mulliken charges =  -1.00000   1.00000

 Dipole moment (field-independent basis, Debye):
    X=             -6.3122    Y=              1.8739    Z=              1.0423  Tot=              6.6664
 Quadrupole moment (field-independent basis, Debye-Ang):
   XX=           -131.4963   YY=           -114.5653   ZZ=           -101.0219
   XY=              1.0949   XZ=             -3.3486   YZ=              0.5715

 Summary of Natural Population Analysis:

                                       Natural Population
                Natural  -----------------------------------------------
    Atom  No    Charge         Core      Valence    Rydberg      Total
 -----------------------------------------------------------------------
      C    1   -0.29430      0.99964     2.28995    0.00471     3.29430
      C    2   -0.04922      0.99943     2.04026    0.00953     3.04922
      C    3    0.06469      0.99949     1.92404    0.01178     2.93531
      N    4   -0.16524      0.99965     2.65260    0.01299     3.66524
      N    5   -0.13330      0.99971     2.62106    0.01253     3.63330
      C    6    0.05433      0.99951     1.92858    0.01759     2.94567
      C    7    0.10657      0.99948     1.87942    0.01452     2.89343
      C    8    0.00413      0.99946     1.98426    0.01215     2.99587
      N    9   -0.24147      0.99966     2.73479    0.00702     3.74147
      C   10    0.12101      0.99969     1.86197    0.01732     2.87899
      N   11   -0.26077      0.99972     2.75201    0.00904     3.76077
      C   12    0.41733      0.99965     1.56022    0.02281     2.58267
      O   13   -0.29187      0.99987     3.28559    0.00640     4.29187
      O   14   -0.36820      0.99988     3.36151    0.00680     4.36820
      C   15   -0.29942      0.99964     2.29416    0.00562     3.29942
      H   16    0.09294      0.00000     0.40604    0.00102     0.40706
      H   17    0.10393      0.00000     0.39482    0.00125     0.39607
      H   18    0.11471      0.00000     0.38354    0.00175     0.38529
      H   19    0.19236      0.00000     0.30493    0.00272     0.30764
      H   20    0.20290      0.00000     0.29588    0.00122     0.29710
      H   21    0.08217      0.00000     0.41679    0.00104     0.41783
      H   22    0.23194      0.00000     0.26318    0.00488     0.26806
      H   23    0.10287      0.00000     0.39614    0.00099     0.39713
      H   24    0.10643      0.00000     0.39254    0.00104     0.39357
      H   25    0.10549      0.00000     0.39176    0.00274     0.39451
 =======================================================================
   * Total *    0.00000     14.99448    38.81604    0.18948    54.00000

 Normal termination of Gaussian 16 at Thu Dec 10 15:23:48 2020.
