 Gaussian 16, Revision A.03,

 -----------------------------------------------------------
 # opt freq B3LYP/6-31G(d) empiricaldispersion=gd3bj scf=xqc
 -----------------------------------------------------------

 -------------------------------
 CID_135135351_JID_6570_neutraal
 -------------------------------
 Symbolic Z-matrix:
 Charge =  0 Multiplicity = 1

 SCF Done:  E(RB3LYP) =  -1479.32950257     A.U. after   16 cycles
 SCF Done:  E(RB3LYP) =  -1479.34291899     A.U. after   13 cycles
 SCF Done:  E(RB3LYP) =  -1479.34508992     A.U. after   12 cycles
 SCF Done:  E(RB3LYP) =  -1479.34508809     A.U. after   13 cycles
 SCF Done:  E(RB3LYP) =  -1479.34595339     A.U. after   12 cycles
 SCF Done:  E(RB3LYP) =  -1479.34661382     A.U. after   13 cycles
 SCF Done:  E(RB3LYP) =  -1479.34733635     A.U. after   12 cycles
 SCF Done:  E(RB3LYP) =  -1479.34830712     A.U. after   13 cycles
 SCF Done:  E(RB3LYP) =  -1479.34892601     A.U. after   13 cycles
 SCF Done:  E(RB3LYP) =  -1479.34927345     A.U. after   13 cycles
 SCF Done:  E(RB3LYP) =  -1479.34989515     A.U. after   12 cycles
 SCF Done:  E(RB3LYP) =  -1479.34991032     A.U. after   12 cycles
 SCF Done:  E(RB3LYP) =  -1479.34990848     A.U. after   11 cycles
 SCF Done:  E(RB3LYP) =  -1479.34991513     A.U. after   11 cycles
 SCF Done:  E(RB3LYP) =  -1479.34991539     A.U. after    9 cycles
 SCF Done:  E(RB3LYP) =  -1479.34991579     A.U. after   10 cycles
 Optimization completed.
    -- Stationary point found.
 Normal termination of Gaussian 16 at Thu Dec 10 23:48:14 2020.

 --------------------------------------------------------------------
 #N Geom=AllCheck Guess=TCheck SCRF=Check GenChk RB3LYP/6-31G(d) Freq
 --------------------------------------------------------------------

 Structure from the checkpoint file:  "JID_6570.chk"
 -------------------------------
 CID_135135351_JID_6570_neutraal
 -------------------------------
 Charge =  0 Multiplicity = 1

 SCF Done:  E(RB3LYP) =  -1479.34991579     A.U. after    1 cycles

  Exact polarizability: 217.941 -17.691 169.787   6.904   7.322  75.035
 Approx polarizability: 324.462 -27.595 317.704  13.625  21.403 126.661

                      1                      2                      3
                      A                      A                      A
 Frequencies --     20.9744                27.7187                39.8365
 Red. masses --      8.3069                 9.3445                10.0693
 Frc consts  --      0.0022                 0.0042                 0.0094
 IR Inten    --      1.2762                 1.3234                 0.5539

                      4                      5                      6
                      A                      A                      A
 Frequencies --     68.8797               125.7204               166.3419
 Red. masses --      8.6373                 6.4500                 6.2604
 Frc consts  --      0.0241                 0.0601                 0.1021
 IR Inten    --      1.0000                 3.8963                 3.6448

                      7                      8                      9
                      A                      A                      A
 Frequencies --    169.4347               193.0844               248.1717
 Red. masses --      5.9094                 5.9187                 8.1052
 Frc consts  --      0.1000                 0.1300                 0.2941
 IR Inten    --     18.7729                 1.2800                10.4034

                     10                     11                     12
                      A                      A                      A
 Frequencies --    299.8046               330.4369               348.7886
 Red. masses --      6.6116                 6.7833                 3.9109
 Frc consts  --      0.3501                 0.4364                 0.2803
 IR Inten    --      8.2598                 1.7391                 1.3486

                     13                     14                     15
                      A                      A                      A
 Frequencies --    372.8298               390.8008               414.6920
 Red. masses --      8.9650                 4.1170                 2.0510
 Frc consts  --      0.7342                 0.3705                 0.2078
 IR Inten    --      7.6780                13.4830                83.4117

                     16                     17                     18
                      A                      A                      A
 Frequencies --    436.6995               438.8838               510.3902
 Red. masses --      3.3394                 2.5515                 7.6866
 Frc consts  --      0.3752                 0.2896                 1.1798
 IR Inten    --      4.7726               100.1273                 1.9028

                     19                     20                     21
                      A                      A                      A
 Frequencies --    520.8596               525.2195               553.3751
 Red. masses --      4.6732                 3.2752                 4.5933
 Frc consts  --      0.7470                 0.5323                 0.8287
 IR Inten    --     40.7466               102.9681                12.2860

                     22                     23                     24
                      A                      A                      A
 Frequencies --    586.6763               608.0848               638.0827
 Red. masses --      5.0528                 5.7711                 1.5897
 Frc consts  --      1.0247                 1.2573                 0.3813
 IR Inten    --     15.2661                 4.2200                44.0105

                     25                     26                     27
                      A                      A                      A
 Frequencies --    668.4391               716.3165               717.5509
 Red. masses --      6.4091                 7.2611                10.2812
 Frc consts  --      1.6872                 2.1951                 3.1189
 IR Inten    --      6.8462                33.3622                62.3773

                     28                     29                     30
                      A                      A                      A
 Frequencies --    734.3366               769.6121               780.0687
 Red. masses --      3.0151                 1.4901                 5.4275
 Frc consts  --      0.9579                 0.5200                 1.9459
 IR Inten    --      5.5753                51.5905                54.0194

                     31                     32                     33
                      A                      A                      A
 Frequencies --    819.0052               869.5643               892.4469
 Red. masses --      6.8736                 1.3530                 4.0379
 Frc consts  --      2.7165                 0.6028                 1.8948
 IR Inten    --     14.5011                 0.6983                 9.8156

                     34                     35                     36
                      A                      A                      A
 Frequencies --    919.1529               942.7557               960.7912
 Red. masses --      2.4135                 1.3516                 4.1407
 Frc consts  --      1.2014                 0.7078                 2.2521
 IR Inten    --      9.7591                 1.5029                26.7049

                     37                     38                     39
                      A                      A                      A
 Frequencies --    986.0908              1050.3470              1083.1806
 Red. masses --      1.2631                 2.2475                 4.5369
 Frc consts  --      0.7236                 1.4609                 3.1362
 IR Inten    --      0.0077                 5.2343                 8.0378

                     40                     41                     42
                      A                      A                      A
 Frequencies --   1130.0303              1156.8222              1162.9928
 Red. masses --      1.3867                 1.4476                 6.0903
 Frc consts  --      1.0433                 1.1414                 4.8534
 IR Inten    --     81.0981                 8.2366               223.7969

                     43                     44                     45
                      A                      A                      A
 Frequencies --   1190.6552              1196.4425              1232.2995
 Red. masses --      2.1384                 1.2163                 1.3393
 Frc consts  --      1.7861                 1.0258                 1.1983
 IR Inten    --    134.2844                 8.5685                67.9834

                     46                     47                     48
                      A                      A                      A
 Frequencies --   1237.7860              1286.1894              1327.5348
 Red. masses --      1.2463                 2.2452                 2.4573
 Frc consts  --      1.1250                 2.1883                 2.5515
 IR Inten    --     30.9968                 5.2960                17.5386

                     49                     50                     51
                      A                      A                      A
 Frequencies --   1351.3020              1366.6864              1476.4085
 Red. masses --      3.0698                 5.7049                 1.1885
 Frc consts  --      3.3027                 6.2782                 1.5264
 IR Inten    --    494.2857                21.9050               104.3103

                     52                     53                     54
                      A                      A                      A
 Frequencies --   1486.4162              1508.2826              1516.9146
 Red. masses --      2.4101                 2.5318                 1.9227
 Frc consts  --      3.1373                 3.3934                 2.6066
 IR Inten    --     17.9427                18.9436               202.6590

                     55                     56                     57
                      A                      A                      A
 Frequencies --   1609.8643              1622.6120              1665.7179
 Red. masses --      9.1857                 5.6231                 7.0108
 Frc consts  --     14.0263                 8.7228                11.4610
 IR Inten    --    198.5291                 2.4823                46.4497

                     58                     59                     60
                      A                      A                      A
 Frequencies --   1765.9624              3120.7256              3197.2256
 Red. masses --      7.4899                 1.0604                 1.0861
 Frc consts  --     13.7623                 6.0847                 6.5411
 IR Inten    --    487.2213                 2.9245                 0.8619

                     61                     62                     63
                      A                      A                      A
 Frequencies --   3208.4739              3208.9782              3218.3717
 Red. masses --      1.0900                 1.1066                 1.0944
 Frc consts  --      6.6114                 6.7138                 6.6789
 IR Inten    --      7.7107                 1.4108                16.7933

                     64                     65                     66
                      A                      A                      A
 Frequencies --   3225.4592              3582.6822              3590.0926
 Red. masses --      1.0963                 1.0664                 1.0766
 Frc consts  --      6.7198                 8.0649                 8.1758
 IR Inten    --      9.6296                51.0756                56.6906

 - Thermochemistry -
 -------------------
 Temperature   298.150 Kelvin.  Pressure   1.00000 Atm.
 Atom     1 has atomic number  6 and mass  12.00000

 Molecular mass:   255.99764 amu.
 Principal axes and moments of inertia in atomic units:
                           1         2         3
     Eigenvalues --  2216.645007097.859208877.07433
           X            0.99987  -0.01560   0.00300
           Y            0.01558   0.99985   0.00716
           Z           -0.00311  -0.00711   0.99997
 This molecule is an asymmetric top.
 Rotational symmetry number  1.
 Warning -- assumption of classical behavior for rotation
           may cause significant error
 Rotational temperatures (Kelvin)      0.03907     0.01220     0.00976
 Rotational constants (GHZ):           0.81418     0.25427     0.20330
 Zero-point vibrational energy     440156.2 (Joules/Mol)
                                  105.19986 (Kcal/Mol)
 Warning -- explicit consideration of  23 degrees of freedom as
           vibrations may cause significant error
 Vibrational temperatures:     30.18    39.88    57.32    99.10   180.88
          (Kelvin)            239.33   243.78   277.81   357.06   431.35
                              475.43   501.83   536.42   562.28   596.65
                              628.31   631.46   734.34   749.40   755.67
                              796.18   844.10   874.90   918.06   961.73
                             1030.62  1032.40  1056.55  1107.30  1122.34
                             1178.37  1251.11  1284.03  1322.46  1356.42
                             1382.36  1418.76  1511.22  1558.46  1625.86
                             1664.41  1673.29  1713.09  1721.41  1773.00
                             1780.90  1850.54  1910.03  1944.22  1966.36
                             2124.22  2138.62  2170.08  2182.50  2316.24
                             2334.58  2396.60  2540.83  4490.03  4600.09
                             4616.28  4617.00  4630.52  4640.72  5154.68
                             5165.34

 Zero-point correction=                           0.167647 (Hartree/Particle)
 Thermal correction to Energy=                    0.182060
 Thermal correction to Enthalpy=                  0.183005
 Thermal correction to Gibbs Free Energy=         0.123590
 Sum of electronic and zero-point Energies=          -1479.182269
 Sum of electronic and thermal Energies=             -1479.167855
 Sum of electronic and thermal Enthalpies=           -1479.166911
 Sum of electronic and thermal Free Energies=        -1479.226325

                     E (Thermal)             CV                S
                      KCal/Mol        Cal/Mol-Kelvin    Cal/Mol-Kelvin
 Total                  114.245             54.245            125.047
 Electronic               0.000              0.000              0.000
 Translational            0.889              2.981             42.520
 Rotational               0.889              2.981             33.301
 Vibrational            112.467             48.283             49.226
 Vibration     1          0.593              1.986              6.540
 Vibration     2          0.593              1.984              5.986
 Vibration     3          0.594              1.981              5.267
 Vibration     4          0.598              1.969              4.185
 Vibration     5          0.611              1.927              3.010
 Vibration     6          0.624              1.884              2.476
 Vibration     7          0.625              1.880              2.442
 Vibration     8          0.635              1.849              2.198
 Vibration     9          0.662              1.766              1.744
 Vibration    10          0.692              1.674              1.418
 Vibration    11          0.713              1.615              1.258
 Vibration    12          0.726              1.578              1.172
 Vibration    13          0.744              1.528              1.068
 Vibration    14          0.758              1.490              0.997
 Vibration    15          0.778              1.438              0.910
 Vibration    16          0.797              1.390              0.837
 Vibration    17          0.799              1.385              0.830
 Vibration    18          0.866              1.227              0.633
 Vibration    19          0.876              1.204              0.608
 Vibration    20          0.880              1.194              0.598
 Vibration    21          0.909              1.132              0.537
 Vibration    22          0.944              1.060              0.473
 Vibration    23          0.967              1.015              0.436

                           ! Non-Optimized Parameters !
 Normal termination of Gaussian 16 at Thu Dec 10 23:55:20 2020.

 ----------------------------------------------------------------------
 # B3LYP/6-311++G(d,p) empiricaldispersion=gd3bj scf=xqc pop=npa geom=c
 heck
 ----------------------------------------------------------------------

 ---------------------------------------
 CID_135135351_JID_6570_Energie_neutraal
 ---------------------------------------
 Structure from the checkpoint file:  "JID_6570.chk"
 Charge =  0 Multiplicity = 1

 SCF Done:  E(RB3LYP) =  -1479.60223220     A.U. after   16 cycles
 Normal termination of Gaussian 16 at Thu Dec 10 23:58:12 2020.

 ----------------------------------------------------------------------
 # B3LYP/6-311++G(d,p) empiricaldispersion=gd3bj scf=xqc pop=npa geom=c
 heck
 ----------------------------------------------------------------------

 -------------------------------------
 CID_135135351_JID_6570_Energie_kation
 -------------------------------------
 Structure from the checkpoint file:  "JID_6570.chk"
 Charge =  1 Multiplicity = 2

 SCF Done:  E(UB3LYP) =  -1479.29061665     A.U. after   32 cycles
 Normal termination of Gaussian 16 at Fri Dec 11 00:06:31 2020.
 Gaussian 16:  ES64L-G16RevA.03 25-Dec-2016

 ----------------------------------------------------------------------
 # B3LYP/6-311++G(d,p) empiricaldispersion=gd3bj scf=xqc pop=npa geom=c
 heck
 ----------------------------------------------------------------------

 ------------------------------------
 CID_135135351_JID_6570_Energie_anion
 ------------------------------------
 Structure from the checkpoint file:  "JID_6570.chk"
 Charge = -1 Multiplicity = 2

                         Standard orientation:
 ---------------------------------------------------------------------
 Center     Atomic      Atomic             Coordinates (Angstroms)
 Number     Number       Type             X           Y           Z
 ---------------------------------------------------------------------
      1          6           0       -3.669050    2.095170    0.104138
      2          6           0       -4.555326    1.033318   -0.132223
      3          6           0       -4.092167   -0.276937   -0.240750
      4          6           0       -2.723798   -0.498204   -0.103689
      5          6           0       -1.818118    0.563534    0.133963
      6          6           0       -2.302676    1.871704    0.237223
      7          7           0       -0.482076    0.196427    0.228012
      8          6           0       -0.344774   -1.081180    0.089500
      9         16           0       -1.836930   -2.017439   -0.181302
     10          7           0        0.854197   -1.770197    0.132955
     11          6           0        2.123904   -1.318037    0.474240
     12          8           0        3.086298   -2.051320    0.279105
     13          6           0        2.297868    0.062650    1.019770
     14         16           0        2.661111    1.323692   -0.338559
     15          8           0        3.573466    2.277738    0.342256
     16          8           0        3.498176    0.280148   -1.343068
     17          1           0       -4.055456    3.106669    0.182498
     18          1           0       -5.617964    1.231344   -0.233212
     19          1           0       -4.778727   -1.096852   -0.424594
     20          1           0       -1.606195    2.684142    0.415649
     21          1           0        0.864650   -2.719690   -0.222240
     22          1           0        1.438288    0.455579    1.558551
     23          1           0        3.204546    0.082732    1.628221
     24          1           0        4.000418   -0.392226   -0.833234
 ---------------------------------------------------------------------

 SCF Done:  E(UB3LYP) =  -1479.62554679     A.U. after   29 cycles

 The electronic state is 2-A.
 Alpha  occ. eigenvalues --  -88.85832 -88.75708 -19.03434 -18.98291 -18.95438
 Alpha  occ. eigenvalues --  -14.23997 -14.17520 -10.13384 -10.12915 -10.09252
 Alpha  occ. eigenvalues --  -10.09022 -10.07524 -10.07060 -10.06630 -10.05962
 Alpha  occ. eigenvalues --  -10.05666  -7.93161  -7.84386  -5.89582  -5.89260
 Alpha  occ. eigenvalues --   -5.88684  -5.80694  -5.80381  -5.79895  -0.95647
 Alpha  occ. eigenvalues --   -0.91665  -0.88566  -0.85894  -0.79845  -0.73454
 Alpha  occ. eigenvalues --   -0.68380  -0.64913  -0.62966  -0.61298  -0.54524
 Alpha  occ. eigenvalues --   -0.52556  -0.49658  -0.48247  -0.45544  -0.40615
 Alpha  occ. eigenvalues --   -0.39997  -0.37931  -0.37357  -0.35662  -0.33945
 Alpha  occ. eigenvalues --   -0.33381  -0.32709  -0.31974  -0.31530  -0.29858
 Alpha  occ. eigenvalues --   -0.28807  -0.28070  -0.27946  -0.25778  -0.25014
 Alpha  occ. eigenvalues --   -0.24124  -0.22984  -0.21527  -0.19030  -0.18766
 Alpha  occ. eigenvalues --   -0.17995  -0.16046  -0.14928  -0.12777  -0.12712
 Alpha  occ. eigenvalues --   -0.10831   0.03204
 Alpha virt. eigenvalues --    0.07245   0.08838   0.08963   0.09041   0.09530
 Alpha virt. eigenvalues --    0.09777   0.10674   0.11185   0.12032   0.12785
 Alpha virt. eigenvalues --    0.12897   0.13144   0.14231   0.14497   0.15075

  Beta  occ. eigenvalues --  -88.85772 -88.75684 -19.03431 -18.98243 -18.94942
  Beta  occ. eigenvalues --  -14.24159 -14.17413 -10.12907 -10.12460 -10.09227
  Beta  occ. eigenvalues --  -10.08992 -10.07550 -10.07031 -10.06682 -10.05818
  Beta  occ. eigenvalues --  -10.05544  -7.93100  -7.84365  -5.89539  -5.89152
  Beta  occ. eigenvalues --   -5.88598  -5.80690  -5.80377  -5.79805  -0.95544
  Beta  occ. eigenvalues --   -0.90900  -0.88495  -0.85435  -0.79687  -0.73284
  Beta  occ. eigenvalues --   -0.68195  -0.64597  -0.62740  -0.61061  -0.54160
  Beta  occ. eigenvalues --   -0.52095  -0.49455  -0.48082  -0.45338  -0.40388
  Beta  occ. eigenvalues --   -0.39832  -0.37711  -0.37053  -0.35434  -0.33453
  Beta  occ. eigenvalues --   -0.33207  -0.32550  -0.31710  -0.30867  -0.29587
  Beta  occ. eigenvalues --   -0.28619  -0.27741  -0.27101  -0.25643  -0.24813
  Beta  occ. eigenvalues --   -0.22890  -0.22691  -0.21424  -0.18681  -0.18506
  Beta  occ. eigenvalues --   -0.16893  -0.15871  -0.14605  -0.12365  -0.12185
  Beta  occ. eigenvalues --   -0.09950
  Beta virt. eigenvalues --    0.07233   0.08803   0.08896   0.09081   0.09336
  Beta virt. eigenvalues --    0.09791   0.10579   0.11039   0.11585   0.12199
  Beta virt. eigenvalues --    0.12848   0.13008   0.13465   0.14321   0.14544

 Mulliken charges and spin densities:
               1          2
     1  C   -0.263069  -0.031035
     2  C   -0.239947   0.122013
     3  C    0.049072   0.008859
     4  C    1.665438   0.032697
     5  C   -1.587511  -0.032058
     6  C   -0.545729   0.102893
     7  N    0.082609   0.057891
     8  C    0.142283   0.243017
     9  S   -0.489148   0.048002
    10  N   -0.053248  -0.079388
    11  C   -0.095858   0.293680
    12  O   -0.428917   0.167539
    13  C   -0.548249  -0.007708
    14  S    0.348086   0.060821
    15  O   -0.419362   0.015767
    16  O   -0.262429  -0.008578
    17  H    0.137183   0.003059
    18  H    0.115478  -0.008948
    19  H    0.133808  -0.001661
    20  H    0.135241  -0.005521
    21  H    0.279740   0.006176
    22  H    0.242663  -0.001870
    23  H    0.301833   0.016397
    24  H    0.300033  -0.002045
 Sum of Mulliken charges =  -1.00000   1.00000

 Dipole moment (field-independent basis, Debye):
    X=             -5.1899    Y=             -1.3577    Z=              0.2842  Tot=              5.3720
 Quadrupole moment (field-independent basis, Debye-Ang):
   XX=           -164.0896   YY=           -129.0340   ZZ=           -117.6644
   XY=             -2.5812   XZ=              1.2439   YZ=              1.4826

 Summary of Natural Population Analysis:

                                       Natural Population
                Natural  -----------------------------------------------
    Atom  No    Charge         Core      Valence    Rydberg      Total
 -----------------------------------------------------------------------
      C    1   -0.12098      0.99958     2.11222    0.00918     3.12098
      C    2   -0.09005      0.99958     2.08077    0.00969     3.09005
      C    3   -0.11201      0.99951     2.10272    0.00978     3.11201
      C    4   -0.09748      0.99939     2.08841    0.00968     3.09748
      C    5    0.07031      0.99944     1.91801    0.01225     2.92969
      C    6   -0.08233      0.99952     2.07398    0.00882     3.08233
      N    7   -0.27097      0.99961     2.75627    0.01510     3.77097
      C    8    0.22813      0.99961     1.75418    0.01808     2.77187
      S    9    0.14249      4.99947     2.83892    0.01912     7.85751
      N   10   -0.33304      0.99962     2.82399    0.00942     3.83304
      C   11    0.38848      0.99968     1.58961    0.02224     2.61152
      O   12   -0.28667      0.99988     3.27966    0.00713     4.28667
      C   13   -0.32245      0.99954     2.31179    0.01112     3.32245
      S   14    0.73343      4.99957     2.20123    0.06577     7.26657
      O   15   -0.46753      0.99992     3.45995    0.00765     4.46753
      O   16   -0.44865      0.99992     3.44036    0.00837     4.44865
      H   17    0.09415      0.00000     0.40485    0.00100     0.40585
      H   18    0.09174      0.00000     0.40725    0.00101     0.40826
      H   19    0.09655      0.00000     0.40189    0.00156     0.40345
      H   20    0.10135      0.00000     0.39720    0.00144     0.39865
      H   21    0.19837      0.00000     0.29930    0.00233     0.30163
      H   22    0.12472      0.00000     0.37321    0.00207     0.37528
      H   23    0.11625      0.00000     0.38246    0.00128     0.38375
      H   24    0.24620      0.00000     0.25071    0.00309     0.25380
 =======================================================================
   * Total *   -0.00000     23.99384    41.74895    0.25721    66.00000

 Normal termination of Gaussian 16 at Fri Dec 11 00:13:19 2020.
