 Gaussian 16, Revision A.03,

 -----------------------------------------------------------
 # opt freq B3LYP/6-31G(d) empiricaldispersion=gd3bj scf=xqc
 -----------------------------------------------------------

 --------------------------------
 CID_104381101_JID_10420_neutraal
 --------------------------------
 Symbolic Z-matrix:
 Charge =  0 Multiplicity = 1

 SCF Done:  E(RB3LYP) =  -969.417905084     A.U. after   15 cycles
 SCF Done:  E(RB3LYP) =  -969.425088326     A.U. after   13 cycles
 SCF Done:  E(RB3LYP) =  -969.426278197     A.U. after   13 cycles
 SCF Done:  E(RB3LYP) =  -969.426517005     A.U. after   12 cycles
 SCF Done:  E(RB3LYP) =  -969.426673388     A.U. after   13 cycles
 SCF Done:  E(RB3LYP) =  -969.427368452     A.U. after   12 cycles
 SCF Done:  E(RB3LYP) =  -969.427647690     A.U. after   12 cycles
 SCF Done:  E(RB3LYP) =  -969.427401237     A.U. after   13 cycles
 SCF Done:  E(RB3LYP) =  -969.427914052     A.U. after   13 cycles
 SCF Done:  E(RB3LYP) =  -969.428146969     A.U. after   11 cycles
 SCF Done:  E(RB3LYP) =  -969.428335605     A.U. after    8 cycles
 SCF Done:  E(RB3LYP) =  -969.428335693     A.U. after    8 cycles
 SCF Done:  E(RB3LYP) =  -969.428335749     A.U. after    7 cycles
 SCF Done:  E(RB3LYP) =  -969.428335770     A.U. after    7 cycles
 Optimization completed.
    -- Stationary point found.
 Normal termination of Gaussian 16 at Thu Dec 17 20:30:19 2020.

 --------------------------------------------------------------------
 #N Geom=AllCheck Guess=TCheck SCRF=Check GenChk RB3LYP/6-31G(d) Freq
 --------------------------------------------------------------------

 Structure from the checkpoint file:  "JID_10420.chk"
 --------------------------------
 CID_104381101_JID_10420_neutraal
 --------------------------------
 Charge =  0 Multiplicity = 1

 SCF Done:  E(RB3LYP) =  -969.428335770     A.U. after    1 cycles

  Exact polarizability: 194.552  10.399 167.193   5.155  -9.309 128.481
 Approx polarizability: 264.406  12.461 260.188  12.460 -24.782 190.898

                      1                      2                      3
                      A                      A                      A
 Frequencies --     15.5098                26.1447                30.8904
 Red. masses --      3.7722                 3.8409                 4.0977
 Frc consts  --      0.0005                 0.0015                 0.0023
 IR Inten    --      0.6655                 1.5807                 0.3222

                      4                      5                      6
                      A                      A                      A
 Frequencies --     42.2790                54.2697                63.4018
 Red. masses --      4.6481                 5.2853                 2.8213
 Frc consts  --      0.0049                 0.0092                 0.0067
 IR Inten    --      1.2980                 1.5402                 4.4194

                      7                      8                      9
                      A                      A                      A
 Frequencies --     74.3650                76.3919                89.7707
 Red. masses --      4.0808                 6.7033                 5.1999
 Frc consts  --      0.0133                 0.0230                 0.0247
 IR Inten    --      1.7548                 0.8160                 5.5063

                     10                     11                     12
                      A                      A                      A
 Frequencies --    114.4835               128.5661               177.1010
 Red. masses --      3.9808                 2.8935                 3.4411
 Frc consts  --      0.0307                 0.0282                 0.0636
 IR Inten    --      0.8818                 3.2837                 0.9917

                     13                     14                     15
                      A                      A                      A
 Frequencies --    187.9683               209.5429               226.7429
 Red. masses --      1.3703                 4.7735                 1.9173
 Frc consts  --      0.0285                 0.1235                 0.0581
 IR Inten    --      1.7753                 2.5527                 1.1704

                     16                     17                     18
                      A                      A                      A
 Frequencies --    234.3097               261.6264               273.3530
 Red. masses --      1.4088                 3.3269                 2.2063
 Frc consts  --      0.0456                 0.1342                 0.0971
 IR Inten    --      0.5576                11.6965                 6.0349

                     19                     20                     21
                      A                      A                      A
 Frequencies --    280.9644               296.7064               301.5254
 Red. masses --      1.8611                 2.6857                 1.0809
 Frc consts  --      0.0866                 0.1393                 0.0579
 IR Inten    --      1.4654                 1.2892                 0.1032

                     22                     23                     24
                      A                      A                      A
 Frequencies --    341.3566               346.1820               356.1716
 Red. masses --      2.6342                 2.6463                 2.3287
 Frc consts  --      0.1808                 0.1868                 0.1741
 IR Inten    --      2.0718                 0.2600                 2.3867

                     25                     26                     27
                      A                      A                      A
 Frequencies --    420.4283               426.8610               442.5806
 Red. masses --      2.9936                 2.6636                 3.9314
 Frc consts  --      0.3118                 0.2860                 0.4537
 IR Inten    --      4.8441                 4.1910                 1.0531

                     28                     29                     30
                      A                      A                      A
 Frequencies --    458.7986               487.8769               520.1969
 Red. masses --      2.6041                 3.9197                 3.3239
 Frc consts  --      0.3230                 0.5497                 0.5300
 IR Inten    --      1.2842                 4.2192                23.1559

                     31                     32                     33
                      A                      A                      A
 Frequencies --    556.7327               568.0381               596.1370
 Red. masses --      3.3320                 4.3536                 2.0970
 Frc consts  --      0.6085                 0.8277                 0.4391
 IR Inten    --     13.4176                 7.1574                34.7192

                     34                     35                     36
                      A                      A                      A
 Frequencies --    604.3133               638.1439               656.4494
 Red. masses --      2.2133                 3.2642                 1.9853
 Frc consts  --      0.4762                 0.7832                 0.5040
 IR Inten    --     28.5928                14.2352                20.5754

                     37                     38                     39
                      A                      A                      A
 Frequencies --    704.4022               737.2657               766.3014
 Red. masses --      2.2994                 1.7135                 4.3848
 Frc consts  --      0.6722                 0.5488                 1.5171
 IR Inten    --     84.7085               132.9630                 5.2749

                     40                     41                     42
                      A                      A                      A
 Frequencies --    777.9914               808.7720               842.2727
 Red. masses --      2.0675                11.3814                 2.9672
 Frc consts  --      0.7373                 4.3863                 1.2402
 IR Inten    --     40.8289                 2.6553                16.6633

                     43                     44                     45
                      A                      A                      A
 Frequencies --    846.0560               867.8452               923.1646
 Red. masses --      2.7852                 3.1287                 2.2591
 Frc consts  --      1.1746                 1.3884                 1.1343
 IR Inten    --      9.2535                 4.5678                 6.3945

                     46                     47                     48
                      A                      A                      A
 Frequencies --    946.7378               955.0214               979.7220
 Red. masses --      1.7827                 1.6902                 1.2025
 Frc consts  --      0.9414                 0.9083                 0.6801
 IR Inten    --      0.8600                 0.9247                 0.1339

                     49                     50                     51
                      A                      A                      A
 Frequencies --    987.3849              1003.0116              1023.9318
 Red. masses --      2.2246                 3.2023                 4.6139
 Frc consts  --      1.2778                 1.8981                 2.8501
 IR Inten    --     31.9147                21.1750                 6.0518

                     52                     53                     54
                      A                      A                      A
 Frequencies --   1056.5027              1061.2738              1062.9532
 Red. masses --      2.2894                 2.2497                 1.3958
 Frc consts  --      1.5056                 1.4929                 0.9292
 IR Inten    --     10.0227                 9.7903                 0.0691

                     55                     56                     57
                      A                      A                      A
 Frequencies --   1093.4591              1131.8405              1145.3851
 Red. masses --      1.9917                 3.1035                 3.1656
 Frc consts  --      1.4031                 2.3425                 2.4469
 IR Inten    --     20.8044                80.1439                15.0019

                     58                     59                     60
                      A                      A                      A
 Frequencies --   1176.1339              1177.9224              1195.6793
 Red. masses --      3.1427                 3.9915                 1.3843
 Frc consts  --      2.5614                 3.2630                 1.1661
 IR Inten    --     81.2111                38.9430                11.2993

                     61                     62                     63
                      A                      A                      A
 Frequencies --   1223.0442              1226.7496              1245.4775
 Red. masses --      2.3138                 1.4978                 2.6869
 Frc consts  --      2.0392                 1.3281                 2.4557
 IR Inten    --      0.7178                22.1066                 1.6845

                     64                     65                     66
                      A                      A                      A
 Frequencies --   1252.3586              1259.7855              1288.9543
 Red. masses --      1.3679                 2.8059                 1.5642
 Frc consts  --      1.2641                 2.6237                 1.5311
 IR Inten    --     79.5247                 8.3849                 6.9019

                     67                     68                     69
                      A                      A                      A
 Frequencies --   1299.8142              1311.5606              1327.8279
 Red. masses --      2.6972                 1.2173                 2.6953
 Frc consts  --      2.6849                 1.2337                 2.7999
 IR Inten    --     97.9957                12.3428                33.7683

                     70                     71                     72
                      A                      A                      A
 Frequencies --   1358.3974              1396.6264              1402.5496
 Red. masses --      1.5508                 1.3512                 3.4896
 Frc consts  --      1.6860                 1.5529                 4.0445
 IR Inten    --     71.2175                19.6737                46.3216

                     73                     74                     75
                      A                      A                      A
 Frequencies --   1422.8313              1424.8490              1425.7058
 Red. masses --      1.2932                 1.2126                 1.2571
 Frc consts  --      1.5425                 1.4504                 1.5055
 IR Inten    --     15.0410                 4.8382                19.6820

                     76                     77                     78
                      A                      A                      A
 Frequencies --   1433.6134              1452.0793              1458.1589
 Red. masses --      1.7663                 4.6256                 1.2419
 Frc consts  --      2.1388                 5.7465                 1.5557
 IR Inten    --     39.5471                71.3660                 1.2097

                     79                     80                     81
                      A                      A                      A
 Frequencies --   1494.0513              1502.0364              1504.7503
 Red. masses --      1.5429                 1.7270                 1.1830
 Frc consts  --      2.0292                 2.2957                 1.5782
 IR Inten    --     28.2419                 8.3960                 4.5272

                     82                     83                     84
                      A                      A                      A
 Frequencies --   1508.4518              1509.3228              1517.0691
 Red. masses --      1.0593                 1.3369                 1.1801
 Frc consts  --      1.4201                 1.7944                 1.6002
 IR Inten    --      2.4512                38.4127                 7.2885

                     85                     86                     87
                      A                      A                      A
 Frequencies --   1517.8923              1520.5728              1523.0641
 Red. masses --      1.2803                 1.1090                 1.4897
 Frc consts  --      1.7380                 1.5107                 2.0360
 IR Inten    --     18.4478                14.1678                27.7639

                     88                     89                     90
                      A                      A                      A
 Frequencies --   1530.1345              1530.5467              1536.8187
 Red. masses --      1.0797                 1.0926                 1.1789
 Frc consts  --      1.4893                 1.5080                 1.6405
 IR Inten    --      4.1818                 0.5047                20.2323

                     91                     92                     93
                      A                      A                      A
 Frequencies --   1537.8193              1544.1247              1550.8172
 Red. masses --      1.0682                 1.0738                 1.1586
 Frc consts  --      1.4884                 1.5085                 1.6417
 IR Inten    --      3.2405                 7.1901                 5.7249

                     94                     95                     96
                      A                      A                      A
 Frequencies --   1585.2500              1777.4527              1785.1652
 Red. masses --      3.2873                 9.1226                 7.5546
 Frc consts  --      4.8672                16.9810                14.1846
 IR Inten    --     49.3249               421.3869               233.0027

                     97                     98                     99
                      A                      A                      A
 Frequencies --   3012.1453              3036.3989              3044.2184
 Red. masses --      1.0368                 1.0617                 1.0375
 Frc consts  --      5.5424                 5.7670                 5.6647
 IR Inten    --     51.9719                58.9693                22.1158

                    100                    101                    102
                      A                      A                      A
 Frequencies --   3044.2719              3054.4652              3059.1891
 Red. masses --      1.0727                 1.0350                 1.0364
 Frc consts  --      5.8570                 5.6896                 5.7145
 IR Inten    --     34.6069                23.0872                14.5583

                    103                    104                    105
                      A                      A                      A
 Frequencies --   3070.6283              3083.2806              3100.9793
 Red. masses --      1.1036                 1.0762                 1.0903
 Frc consts  --      6.1309                 6.0280                 6.1773
 IR Inten    --     34.4380                 5.2072                43.8048

                    106                    107                    108
                      A                      A                      A
 Frequencies --   3108.3720              3122.4195              3123.6661
 Red. masses --      1.1031                 1.1034                 1.1025
 Frc consts  --      6.2798                 6.3383                 6.3382
 IR Inten    --     21.2333                17.0738                11.8257

                    109                    110                    111
                      A                      A                      A
 Frequencies --   3130.6757              3137.4202              3141.0392
 Red. masses --      1.1003                 1.0998                 1.1020
 Frc consts  --      6.3537                 6.3783                 6.4061
 IR Inten    --     42.8757                37.6444                 9.3029

                    112                    113                    114
                      A                      A                      A
 Frequencies --   3146.1928              3149.1383              3218.0861
 Red. masses --      1.1012                 1.1012                 1.0902
 Frc consts  --      6.4221                 6.4341                 6.6519
 IR Inten    --     40.8604                12.9346                 3.0643

                    115                    116                    117
                      A                      A                      A
 Frequencies --   3568.2419              3574.8123              3660.5687
 Red. masses --      1.0748                 1.0752                 1.0815
 Frc consts  --      8.0631                 8.0955                 8.5383
 IR Inten    --     19.4928                46.7239                76.1608

 - Thermochemistry -
 -------------------
 Temperature   298.150 Kelvin.  Pressure   1.00000 Atm.
 Atom     1 has atomic number  6 and mass  12.00000

 Molecular mass:   283.16444 amu.
 Principal axes and moments of inertia in atomic units:
                           1         2         3
     Eigenvalues --  4008.468107841.499949507.49731
           X            0.99965   0.02249  -0.01378
           Y           -0.02235   0.99970   0.00995
           Z            0.01400  -0.00964   0.99986
 This molecule is an asymmetric top.
 Rotational symmetry number  1.
 Warning -- assumption of classical behavior for rotation
           may cause significant error
 Rotational temperatures (Kelvin)      0.02161     0.01105     0.00911
 Rotational constants (GHZ):           0.45023     0.23015     0.18982
 Zero-point vibrational energy     912925.0 (Joules/Mol)
                                  218.19432 (Kcal/Mol)
 Warning -- explicit consideration of  34 degrees of freedom as
           vibrations may cause significant error
 Vibrational temperatures:     22.32    37.62    44.44    60.83    78.08
          (Kelvin)             91.22   106.99   109.91   129.16   164.72
                              184.98   254.81   270.44   301.49   326.23
                              337.12   376.42   393.29   404.25   426.89
                              433.83   491.14   498.08   512.45   604.90
                              614.16   636.77   660.11   701.95   748.45
                              801.01   817.28   857.71   869.47   918.15
                              944.48  1013.48  1060.76  1102.54  1119.36
                             1163.64  1211.84  1217.29  1248.64  1328.23
                             1362.14  1374.06  1409.60  1420.63  1443.11
                             1473.21  1520.07  1526.94  1529.35  1573.24
                             1628.47  1647.95  1692.19  1694.77  1720.32
                             1759.69  1765.02  1791.96  1801.86  1812.55
                             1854.52  1870.14  1887.04  1910.45  1954.43
                             2009.43  2017.96  2047.14  2050.04  2051.27
                             2062.65  2089.22  2097.97  2149.61  2161.10
                             2165.00  2170.33  2171.58  2182.72  2183.91
                             2187.77  2191.35  2201.52  2202.12  2211.14
                             2212.58  2221.65  2231.28  2280.82  2557.36
                             2568.45  4333.81  4368.70  4379.95  4380.03
                             4394.69  4401.49  4417.95  4436.15  4461.62
                             4472.25  4492.47  4494.26  4504.34  4514.05
                             4519.25  4526.67  4530.91  4630.11  5133.90
                             5143.36  5266.74

 Zero-point correction=                           0.347715 (Hartree/Particle)
 Thermal correction to Energy=                    0.369365
 Thermal correction to Enthalpy=                  0.370309
 Thermal correction to Gibbs Free Energy=         0.294124
 Sum of electronic and zero-point Energies=           -969.080621
 Sum of electronic and thermal Energies=              -969.058970
 Sum of electronic and thermal Enthalpies=            -969.058026
 Sum of electronic and thermal Free Energies=         -969.134212

                     E (Thermal)             CV                S
                      KCal/Mol        Cal/Mol-Kelvin    Cal/Mol-Kelvin
 Total                  231.780             78.271            160.346
 Electronic               0.000              0.000              0.000
 Translational            0.889              2.981             42.821
 Rotational               0.889              2.981             34.057
 Vibrational            230.003             72.309             83.469
 Vibration     1          0.593              1.986              7.139
 Vibration     2          0.593              1.985              6.102
 Vibration     3          0.594              1.984              5.771
 Vibration     4          0.595              1.980              5.149
 Vibration     5          0.596              1.976              4.655
 Vibration     6          0.597              1.972              4.348
 Vibration     7          0.599              1.966              4.034
 Vibration     8          0.599              1.965              3.982
 Vibration     9          0.602              1.956              3.665
 Vibration    10          0.607              1.937              3.191
 Vibration    11          0.611              1.925              2.967
 Vibration    12          0.628              1.871              2.359
 Vibration    13          0.633              1.856              2.248
 Vibration    14          0.642              1.826              2.048
 Vibration    15          0.650              1.800              1.905
 Vibration    16          0.654              1.788              1.846
 Vibration    17          0.669              1.743              1.651
 Vibration    18          0.676              1.722              1.575
 Vibration    19          0.681              1.709              1.528
 Vibration    20          0.690              1.680              1.435
 Vibration    21          0.694              1.671              1.408
 Vibration    22          0.721              1.593              1.206
 Vibration    23          0.724              1.583              1.184
 Vibration    24          0.732              1.563              1.139
 Vibration    25          0.783              1.426              0.891
 Vibration    26          0.789              1.412              0.869
 Vibration    27          0.802              1.377              0.819
 Vibration    28          0.817              1.341              0.770
 Vibration    29          0.844              1.277              0.689
 Vibration    30          0.875              1.205              0.610
 Vibration    31          0.912              1.125              0.530
 Vibration    32          0.924              1.100              0.508
 Vibration    33          0.954              1.040              0.456
 Vibration    34          0.963              1.023              0.442

 Optimization completed.
    -- Stationary point found.
 Normal termination of Gaussian 16 at Thu Dec 17 20:53:45 2020.

 ----------------------------------------------------------------------
 # B3LYP/6-311++G(d,p) empiricaldispersion=gd3bj scf=xqc pop=npa geom=c
 heck
 ----------------------------------------------------------------------

 ----------------------------------------
 CID_104381101_JID_10420_Energie_neutraal
 ----------------------------------------
 Structure from the checkpoint file:  "JID_10420.chk"
 Charge =  0 Multiplicity = 1

 SCF Done:  E(RB3LYP) =  -969.713135569     A.U. after   15 cycles
 Normal termination of Gaussian 16 at Thu Dec 17 21:04:35 2020.

 ----------------------------------------------------------------------
 # B3LYP/6-311++G(d,p) empiricaldispersion=gd3bj scf=xqc pop=npa geom=c
 heck
 ----------------------------------------------------------------------

 --------------------------------------
 CID_104381101_JID_10420_Energie_kation
 --------------------------------------
 Structure from the checkpoint file:  "JID_10420.chk"
 Charge =  1 Multiplicity = 2

 SCF Done:  E(UB3LYP) =  -969.398034305     A.U. after   33 cycles
 SCF Done:  E(UB3LYP) =  -969.398034305     a.u. after    1 cycles
 Normal termination of Gaussian 16 at Thu Dec 17 21:38:31 2020.
 Gaussian 16:  ES64L-G16RevA.03 25-Dec-2016

 ----------------------------------------------------------------------
 # B3LYP/6-311++G(d,p) empiricaldispersion=gd3bj scf=xqc pop=npa geom=c
 heck
 ----------------------------------------------------------------------

 -------------------------------------
 CID_104381101_JID_10420_Energie_anion
 -------------------------------------
 Structure from the checkpoint file:  "JID_10420.chk"
 Charge = -1 Multiplicity = 2

                         Standard orientation:
 ---------------------------------------------------------------------
 Center     Atomic      Atomic             Coordinates (Angstroms)
 Number     Number       Type             X           Y           Z
 ---------------------------------------------------------------------
      1          6           0       -2.733958   -2.083640   -0.853030
      2          6           0       -3.179414   -1.039347    0.192323
      3          6           0       -4.689670   -0.780920    0.057037
      4          6           0       -2.864300   -1.558301    1.610062
      5          6           0       -2.398704    0.231364   -0.039507
      6          7           0       -1.083319    0.373300    0.059261
      7          6           0       -0.862711    1.688704   -0.262255
      8          7           0       -1.966047    2.369226   -0.554884
      9          7           0       -2.924460    1.427692   -0.401537
     10          6           0        0.474787    2.358985   -0.371748
     11          8           0        0.624851    3.315906   -1.118812
     12          7           0        1.520605    1.838075    0.344174
     13          6           0        1.515906    0.947716    1.499693
     14          6           0        2.774078    0.083036    1.402964
     15          8           0        3.876112    0.612602    1.506260
     16          7           0        2.628237   -1.261044    1.201147
     17          6           0        1.497235   -1.914219    0.546225
     18          6           0        1.476077   -1.657189   -0.961419
     19          8           0        2.702752   -2.073564   -1.543670
     20          6           0        3.509374   -1.008662   -2.022952
     21          1           0       -3.264737   -3.027968   -0.689069
     22          1           0       -1.659277   -2.270203   -0.778147
     23          1           0       -2.949091   -1.740129   -1.870559
     24          1           0       -5.240296   -1.709405    0.235687
     25          1           0       -5.041246   -0.043371    0.788331
     26          1           0       -4.952867   -0.434211   -0.949621
     27          1           0       -1.792198   -1.738662    1.727207
     28          1           0       -3.173541   -0.835783    2.373009
     29          1           0       -3.396455   -2.498634    1.790865
     30          1           0       -3.890247    1.676098   -0.559466
     31          1           0        2.380996    2.360658    0.215048
     32          1           0        1.595575    1.521884    2.432268
     33          1           0        0.590660    0.381800    1.508782
     34          1           0        3.523457   -1.708491    1.032286
     35          1           0        1.593986   -2.987482    0.736524
     36          1           0        0.555866   -1.578486    0.985604
     37          1           0        0.659097   -2.231364   -1.419639
     38          1           0        1.284225   -0.594770   -1.150671
     39          1           0        2.992502   -0.430727   -2.803210
     40          1           0        3.812848   -0.321619   -1.221019
     41          1           0        4.403710   -1.464579   -2.455922
 ---------------------------------------------------------------------

 SCF Done:  E(UB3LYP) =  -969.712587665     A.U. after   33 cycles
 SCF Done:  E(UB3LYP) =  -969.712587665     a.u. after    1 cycles

 The electronic state is 2-A.
 Alpha  occ. eigenvalues --  -19.05240 -19.01877 -18.99281 -14.30585 -14.26524
 Alpha  occ. eigenvalues --  -14.25204 -14.24748 -14.21991 -10.20088 -10.18386
 Alpha  occ. eigenvalues --  -10.15770 -10.13943 -10.13920 -10.13527 -10.13263
 Alpha  occ. eigenvalues --  -10.13226 -10.11732 -10.07656 -10.07573 -10.07459
 Alpha  occ. eigenvalues --   -0.99210  -0.97089  -0.96257  -0.94563  -0.85251
 Alpha  occ. eigenvalues --   -0.83819  -0.81138  -0.76799  -0.71426  -0.68551
 Alpha  occ. eigenvalues --   -0.65425  -0.61263  -0.60850  -0.60499  -0.58201
 Alpha  occ. eigenvalues --   -0.55633  -0.55067  -0.50768  -0.50483  -0.47981
 Alpha  occ. eigenvalues --   -0.43988  -0.43365  -0.42995  -0.41588  -0.40609
 Alpha  occ. eigenvalues --   -0.39952  -0.38672  -0.38285  -0.38199  -0.37181
 Alpha  occ. eigenvalues --   -0.35963  -0.35132  -0.35017  -0.34193  -0.33241
 Alpha  occ. eigenvalues --   -0.32529  -0.31394  -0.31143  -0.30760  -0.30295
 Alpha  occ. eigenvalues --   -0.30083  -0.29003  -0.28388  -0.27743  -0.25783
 Alpha  occ. eigenvalues --   -0.25762  -0.24960  -0.23487  -0.21388  -0.20679
 Alpha  occ. eigenvalues --   -0.19969  -0.19097  -0.17969  -0.17847  -0.17094
 Alpha  occ. eigenvalues --   -0.16159   0.03473
 Alpha virt. eigenvalues --    0.05266   0.05974   0.06659   0.06975   0.07590
 Alpha virt. eigenvalues --    0.07714   0.08240   0.08683   0.09289   0.09577
 Alpha virt. eigenvalues --    0.09993   0.10266   0.10394   0.10891   0.11426

  Beta  occ. eigenvalues --  -19.05238 -19.01870 -18.99213 -14.30522 -14.26521
  Beta  occ. eigenvalues --  -14.25194 -14.24625 -14.21976 -10.20081 -10.18315
  Beta  occ. eigenvalues --  -10.15781 -10.13942 -10.13914 -10.13512 -10.13256
  Beta  occ. eigenvalues --  -10.13216 -10.11729 -10.07622 -10.07543 -10.07392
  Beta  occ. eigenvalues --   -0.99107  -0.97075  -0.96252  -0.94439  -0.85240
  Beta  occ. eigenvalues --   -0.83764  -0.81061  -0.76718  -0.71331  -0.68538
  Beta  occ. eigenvalues --   -0.65381  -0.61247  -0.60751  -0.60438  -0.58043
  Beta  occ. eigenvalues --   -0.55571  -0.55049  -0.50741  -0.50415  -0.47916
  Beta  occ. eigenvalues --   -0.43911  -0.43343  -0.42969  -0.41556  -0.40575
  Beta  occ. eigenvalues --   -0.39918  -0.38520  -0.38232  -0.38188  -0.37106
  Beta  occ. eigenvalues --   -0.35894  -0.35072  -0.34928  -0.34168  -0.33228
  Beta  occ. eigenvalues --   -0.32445  -0.31321  -0.31116  -0.30696  -0.30239
  Beta  occ. eigenvalues --   -0.29834  -0.28981  -0.28344  -0.27679  -0.25722
  Beta  occ. eigenvalues --   -0.25702  -0.24949  -0.23396  -0.21200  -0.20645
  Beta  occ. eigenvalues --   -0.19898  -0.19059  -0.17840  -0.17701  -0.16930
  Beta  occ. eigenvalues --   -0.15986
  Beta virt. eigenvalues --    0.05767   0.06170   0.06483   0.06964   0.07452
  Beta virt. eigenvalues --    0.07869   0.08222   0.08519   0.09053   0.09660
  Beta virt. eigenvalues --    0.09875   0.10282   0.10344   0.10744   0.11155

 Mulliken charges and spin densities:
               1          2
     1  C    0.170146  -0.750535
     2  C   -2.337878   2.841591
     3  C    1.572661  -2.224100
     4  C    0.625517  -1.270438
     5  C    2.097811  -2.284913
     6  N   -0.031162  -0.050267
     7  C    0.173119  -0.008843
     8  N    0.189114  -0.158006
     9  N   -0.430476   0.339178
    10  C   -0.975295   0.861687
    11  O   -0.300685   0.022239
    12  N   -0.240359   0.019845
    13  C    0.183872  -0.293151
    14  C   -0.368102   0.173049
    15  O   -0.315677   0.006797
    16  N   -0.099478   0.012433
    17  C   -0.109988  -0.175316
    18  C   -0.476587  -0.022599
    19  O   -0.091210   0.004382
    20  C   -0.272925  -0.025290
    21  H   -0.200195   0.364336
    22  H    0.038936   0.088411
    23  H   -0.073261   0.238319
    24  H   -0.403377   0.582698
    25  H   -0.531841   0.693972
    26  H   -0.334361   0.479429
    27  H   -0.045161   0.171282
    28  H   -0.136001   0.312315
    29  H   -0.214621   0.379941
    30  H    0.028782   0.338591
    31  H    0.304977   0.023368
    32  H    0.092363   0.126340
    33  H    0.213296  -0.051992
    34  H    0.283981   0.027187
    35  H   -0.030071   0.239512
    36  H    0.124138  -0.041555
    37  H    0.169633   0.058450
    38  H    0.316314  -0.080794
    39  H    0.109971   0.017076
    40  H    0.195124   0.003542
    41  H    0.128956   0.011826
 Sum of Mulliken charges =  -1.00000   1.00000

 Dipole moment (field-independent basis, Debye):
    X=              8.2166    Y=             -2.3732    Z=             -0.0233  Tot=              8.5525
 Quadrupole moment (field-independent basis, Debye-Ang):
   XX=           -219.2030   YY=           -181.3070   ZZ=           -153.2766
   XY=            -11.1268   XZ=             -2.8211   YZ=              6.4451

 Summary of Natural Population Analysis:

                                       Natural Population
                Natural  -----------------------------------------------
    Atom  No    Charge         Core      Valence    Rydberg      Total
 -----------------------------------------------------------------------
      C    1   -0.27597      0.99963     2.26935    0.00700     3.27597
      C    2   -0.06918      0.99955     2.05669    0.01294     3.06918
      C    3   -0.28830      0.99964     2.28083    0.00783     3.28830
      C    4   -0.27595      0.99963     2.26935    0.00698     3.27595
      C    5    0.20702      0.99956     1.77459    0.01883     2.79298
      N    6   -0.28264      0.99967     2.77365    0.00932     3.78264
      C    7    0.12177      0.99959     1.86010    0.01854     2.87823
      N    8   -0.11625      0.99971     2.60503    0.01152     3.61625
      N    9   -0.16624      0.99963     2.65523    0.01138     3.66624
      C   10    0.32997      0.99962     1.64811    0.02229     2.67003
      O   11   -0.30030      0.99988     3.29523    0.00519     4.30030
      N   12   -0.31564      0.99968     2.80711    0.00886     3.81564
      C   13   -0.13525      0.99957     2.12541    0.01027     3.13525
      C   14    0.34224      0.99968     1.63557    0.02251     2.65776
      O   15   -0.32663      0.99988     3.32063    0.00611     4.32663
      N   16   -0.31486      0.99967     2.80538    0.00981     3.81486
      C   17   -0.10584      0.99961     2.09500    0.01123     3.10584
      C   18   -0.01819      0.99958     2.00668    0.01194     3.01819
      O   19   -0.30565      0.99989     3.29678    0.00898     4.30565
      C   20   -0.09957      0.99962     2.09146    0.00849     3.09957
      H   21    0.10276      0.00000     0.39609    0.00114     0.39724
      H   22    0.10140      0.00000     0.39719    0.00141     0.39860
      H   23    0.10202      0.00000     0.39699    0.00100     0.39798
      H   24    0.10873      0.00000     0.38925    0.00202     0.39127
      H   25    0.10533      0.00000     0.39201    0.00266     0.39467
      H   26    0.10226      0.00000     0.39553    0.00222     0.39774
      H   27    0.10124      0.00000     0.39724    0.00152     0.39876
      H   28    0.10349      0.00000     0.39533    0.00118     0.39651
      H   29    0.10225      0.00000     0.39663    0.00112     0.39775
      H   30    0.21054      0.00000     0.28630    0.00316     0.28946
      H   31    0.19678      0.00000     0.30083    0.00239     0.30322
      H   32    0.10089      0.00000     0.39805    0.00106     0.39911
      H   33    0.12019      0.00000     0.37813    0.00168     0.37981
      H   34    0.19299      0.00000     0.30451    0.00251     0.30701
      H   35    0.09867      0.00000     0.40015    0.00118     0.40133
      H   36    0.11056      0.00000     0.38787    0.00157     0.38944
      H   37    0.09087      0.00000     0.40762    0.00150     0.40913
      H   38    0.09171      0.00000     0.40652    0.00176     0.40829
      H   39    0.08044      0.00000     0.41839    0.00117     0.41956
      H   40    0.08501      0.00000     0.41355    0.00144     0.41499
      H   41    0.08733      0.00000     0.41189    0.00077     0.41267
 =======================================================================
   * Total *    0.00000     19.99326    55.74225    0.26449    76.00000

 Normal termination of Gaussian 16 at Thu Dec 17 22:12:49 2020.
