 Gaussian 16, Revision A.03,

 -----------------------------------------------------------
 # opt freq B3LYP/6-31G(d) empiricaldispersion=gd3bj scf=xqc
 -----------------------------------------------------------

 -------------------------------
 CID_146642700_JID_1764_neutraal
 -------------------------------
 Symbolic Z-matrix:
 Charge =  0 Multiplicity = 1

 SCF Done:  E(RB3LYP) =  -463.298891482     A.U. after   14 cycles
 SCF Done:  E(RB3LYP) =  -463.302234058     A.U. after   11 cycles
 SCF Done:  E(RB3LYP) =  -463.302638120     A.U. after   10 cycles
 SCF Done:  E(RB3LYP) =  -463.302842475     A.U. after   10 cycles
 SCF Done:  E(RB3LYP) =  -463.302908087     A.U. after   10 cycles
 SCF Done:  E(RB3LYP) =  -463.302949596     A.U. after    9 cycles
 SCF Done:  E(RB3LYP) =  -463.302953862     A.U. after    8 cycles
 SCF Done:  E(RB3LYP) =  -463.302954434     A.U. after    8 cycles
 SCF Done:  E(RB3LYP) =  -463.302954722     A.U. after    7 cycles
 SCF Done:  E(RB3LYP) =  -463.302954985     A.U. after    8 cycles
 SCF Done:  E(RB3LYP) =  -463.302955032     A.U. after    7 cycles
 SCF Done:  E(RB3LYP) =  -463.302955027     A.U. after    6 cycles
 Optimization completed.
    -- Stationary point found.

 1\1\GINC-NODE308\FOpt\RB3LYP\6-31G(d)\C9H18N2\VSC10255\08-Dec-2020\0\\
 # opt freq B3LYP/6-31G(d) empiricaldispersion=gd3bj scf=xqc\\CID_14664
 2700_JID_1764_neutraal\\0,1\C,0.8964268295,-0.0941596356,-0.1083777718
 \C,1.9042087144,0.9844188992,0.326229935\C,1.799217037,2.2541202253,-0
 .4885088386\C,1.0044688074,3.2984895814,-0.1672851791\N,0.9465846236,4
 .4337627694,-1.0055217769\N,1.2200083206,4.2323041989,-2.3907179849\C,
 2.5598543911,3.6393976989,-2.478289184\C,2.6347715918,2.283356369,-1.7
 562605278\C,0.1647936211,3.4140155531,1.0898627821\C,0.5394341935,4.66

 Normal termination of Gaussian 16 at Tue Dec  8 21:05:40 2020.

 --------------------------------------------------------------------
 #N Geom=AllCheck Guess=TCheck SCRF=Check GenChk RB3LYP/6-31G(d) Freq
 --------------------------------------------------------------------

 Structure from the checkpoint file:  "JID_1764.chk"
 -------------------------------
 CID_146642700_JID_1764_neutraal
 -------------------------------
 Charge =  0 Multiplicity = 1

 SCF Done:  E(RB3LYP) =  -463.302955027     A.U. after    1 cycles

  Exact polarizability: 123.393   5.879 111.279  -2.378  -3.039  87.680
 Approx polarizability: 167.521  16.720 158.052  -4.752  -8.826 128.982

                      1                      2                      3
                      A                      A                      A
 Frequencies --     41.1981                49.3612                93.8588
 Red. masses --      2.4761                 2.5838                 2.7129
 Frc consts  --      0.0025                 0.0037                 0.0141
 IR Inten    --      0.0978                 0.0118                 1.6759

                      4                      5                      6
                      A                      A                      A
 Frequencies --    101.0499               199.4055               213.1686
 Red. masses --      2.8504                 1.8040                 1.4098
 Frc consts  --      0.0171                 0.0423                 0.0377
 IR Inten    --      0.5564                 0.7059                 0.0455

                      7                      8                      9
                      A                      A                      A
 Frequencies --    225.4429               231.1357               249.4632
 Red. masses --      1.2292                 1.4190                 1.3218
 Frc consts  --      0.0368                 0.0447                 0.0485
 IR Inten    --      0.1964                 0.2035                 0.5480

                     10                     11                     12
                      A                      A                      A
 Frequencies --    277.8059               287.3173               373.5258
 Red. masses --      2.6893                 2.3021                 2.8670
 Frc consts  --      0.1223                 0.1120                 0.2357
 IR Inten    --      2.9899                 0.1028                11.6891

                     13                     14                     15
                      A                      A                      A
 Frequencies --    398.2971               437.1960               469.9116
 Red. masses --      2.1469                 3.3338                 3.0738
 Frc consts  --      0.2007                 0.3754                 0.3999
 IR Inten    --      0.6183                 1.5866                19.5438

                     16                     17                     18
                      A                      A                      A
 Frequencies --    505.8132               533.0443               581.1694
 Red. masses --      2.0359                 2.4361                 2.0929
 Frc consts  --      0.3069                 0.4078                 0.4165
 IR Inten    --     31.9668                14.1083                83.1223

                     19                     20                     21
                      A                      A                      A
 Frequencies --    650.8556               699.0476               725.5446
 Red. masses --      2.2661                 5.5899                 2.4976
 Frc consts  --      0.5656                 1.6094                 0.7746
 IR Inten    --      5.5528                 3.6606                26.7919

                     22                     23                     24
                      A                      A                      A
 Frequencies --    791.5702               852.6815               892.8580
 Red. masses --      1.1934                 2.0189                 3.0392
 Frc consts  --      0.4406                 0.8648                 1.4275
 IR Inten    --      2.9048                 1.6131                19.1518

                     25                     26                     27
                      A                      A                      A
 Frequencies --    919.5769               940.5387               957.6892
 Red. masses --      2.1997                 1.1913                 2.2029
 Frc consts  --      1.0960                 0.6209                 1.1904
 IR Inten    --      8.8494                 0.2809                 6.4077

                     28                     29                     30
                      A                      A                      A
 Frequencies --    972.3719               975.7594              1009.4130
 Red. masses --      1.5220                 1.5606                 2.2834
 Frc consts  --      0.8479                 0.8754                 1.3708
 IR Inten    --      8.6535                20.1353                 3.4435

                     31                     32                     33
                      A                      A                      A
 Frequencies --   1055.5978              1066.4076              1089.9920
 Red. masses --      1.7294                 1.8063                 1.7718
 Frc consts  --      1.1354                 1.2103                 1.2402
 IR Inten    --      3.5574                 5.5488                 4.7706

                     34                     35                     36
                      A                      A                      A
 Frequencies --   1127.7090              1144.1462              1148.5357
 Red. masses --      2.1728                 1.6578                 1.8324
 Frc consts  --      1.6280                 1.2787                 1.4242
 IR Inten    --      1.5781                14.1709                 5.9836

                     37                     38                     39
                      A                      A                      A
 Frequencies --   1166.1801              1198.7789              1219.0830
 Red. masses --      3.8436                 2.5680                 2.1788
 Frc consts  --      3.0798                 2.1743                 1.9078
 IR Inten    --     24.2330                 1.3719                 4.7459

                     40                     41                     42
                      A                      A                      A
 Frequencies --   1263.3177              1277.8322              1300.3092
 Red. masses --      1.3080                 1.7743                 1.4381
 Frc consts  --      1.2299                 1.7070                 1.4326
 IR Inten    --      5.0370                32.0300                 2.6402

                     43                     44                     45
                      A                      A                      A
 Frequencies --   1319.5154              1357.7080              1371.3874
 Red. masses --      1.3683                 1.3200                 1.4517
 Frc consts  --      1.4037                 1.4336                 1.6086
 IR Inten    --      8.2176                 3.0718                 9.7857

                     46                     47                     48
                      A                      A                      A
 Frequencies --   1378.4261              1390.0500              1398.3453
 Red. masses --      1.3565                 1.4724                 1.5873
 Frc consts  --      1.5186                 1.6763                 1.8287
 IR Inten    --      2.5768                 2.3314                 1.2439

                     49                     50                     51
                      A                      A                      A
 Frequencies --   1426.1428              1434.0939              1448.6101
 Red. masses --      1.2221                 1.2225                 1.2457
 Frc consts  --      1.4645                 1.4813                 1.5402
 IR Inten    --      2.7631                 4.1848                 1.7998

                     52                     53                     54
                      A                      A                      A
 Frequencies --   1486.8263              1506.0518              1516.6464
 Red. masses --      1.1649                 1.1147                 1.0484
 Frc consts  --      1.5172                 1.4896                 1.4208
 IR Inten    --     33.7744                 5.0612                 0.2756

                     55                     56                     57
                      A                      A                      A
 Frequencies --   1518.5734              1521.2597              1522.5901
 Red. masses --      1.0898                 1.0495                 1.0519
 Frc consts  --      1.4807                 1.4310                 1.4367
 IR Inten    --      0.0495                 2.1762                 1.5341

                     58                     59                     60
                      A                      A                      A
 Frequencies --   1527.3967              1530.4047              1534.6036
 Red. masses --      1.0584                 1.1037                 1.0607
 Frc consts  --      1.4547                 1.5230                 1.4718
 IR Inten    --      6.4173                 3.9470                 0.3984

                     61                     62                     63
                      A                      A                      A
 Frequencies --   1539.9845              1543.6079              1736.8107
 Red. masses --      1.1012                 1.1338                 6.7542
 Frc consts  --      1.5387                 1.5916                12.0042
 IR Inten    --      2.9958                19.5518                30.0682

                     64                     65                     66
                      A                      A                      A
 Frequencies --   2992.2831              3019.0925              3033.2419
 Red. masses --      1.0657                 1.0946                 1.0668
 Frc consts  --      5.6222                 5.8783                 5.7831
 IR Inten    --     47.8594                22.1772                51.7030

                     67                     68                     69
                      A                      A                      A
 Frequencies --   3041.8201              3043.0228              3051.8099
 Red. masses --      1.0364                 1.0350                 1.0357
 Frc consts  --      5.6497                 5.6468                 5.6831
 IR Inten    --     19.2678                43.6705                30.3616

                     70                     71                     72
                      A                      A                      A
 Frequencies --   3069.9062              3073.0976              3091.2360
 Red. masses --      1.0614                 1.0956                 1.0887
 Frc consts  --      5.8938                 6.0961                 6.1294
 IR Inten    --     64.0128                12.6698                 3.3528

                     73                     74                     75
                      A                      A                      A
 Frequencies --   3106.4963              3109.5074              3115.9470
 Red. masses --      1.0990                 1.1018                 1.1030
 Frc consts  --      6.2488                 6.2767                 6.3097
 IR Inten    --      4.8288                51.5417                40.5479

                     76                     77                     78
                      A                      A                      A
 Frequencies --   3119.7780              3121.3896              3122.3487
 Red. masses --      1.1060                 1.0987                 1.1029
 Frc consts  --      6.3422                 6.3073                 6.3352
 IR Inten    --     25.5020                86.9348                25.1387

                     79                     80                     81
                      A                      A                      A
 Frequencies --   3129.8728              3311.8107              3590.0899
 Red. masses --      1.1011                 1.0732                 1.0760
 Frc consts  --      6.3550                 6.9353                 8.1711
 IR Inten    --     35.4929                28.2812                 4.6050

 - Thermochemistry -
 -------------------
 Temperature   298.150 Kelvin.  Pressure   1.00000 Atm.
 Atom     1 has atomic number  6 and mass  12.00000

 Molecular mass:   154.14700 amu.
 Principal axes and moments of inertia in atomic units:
                           1         2         3
     Eigenvalues --  1526.013781812.879472734.22770
           X            0.99813   0.06117  -0.00210
           Y           -0.06113   0.99803   0.01384
           Z            0.00295  -0.01368   0.99990
 This molecule is an asymmetric top.
 Rotational symmetry number  1.
 Warning -- assumption of classical behavior for rotation
           may cause significant error
 Rotational temperatures (Kelvin)      0.05676     0.04778     0.03168
 Rotational constants (GHZ):           1.18265     0.99551     0.66006
 Zero-point vibrational energy     699012.4 (Joules/Mol)
                                  167.06797 (Kcal/Mol)
 Warning -- explicit consideration of  18 degrees of freedom as
           vibrations may cause significant error
 Vibrational temperatures:     59.27    71.02   135.04   145.39   286.90
          (Kelvin)            306.70   324.36   332.55   358.92   399.70
                              413.39   537.42   573.06   629.03   676.10
                              727.75   766.93   836.17   936.44  1005.77
                             1043.90  1138.89  1226.82  1284.62  1323.07
                             1353.23  1377.90  1399.03  1403.90  1452.32
                             1518.77  1534.32  1568.26  1622.52  1646.17
                             1652.49  1677.87  1724.78  1753.99  1817.63
                             1838.52  1870.85  1898.49  1953.44  1973.12
                             1983.25  1999.97  2011.91  2051.90  2063.34
                             2084.23  2139.21  2166.87  2182.12  2184.89
                             2188.75  2190.67  2197.58  2201.91  2207.95
                             2215.69  2220.91  2498.88  4305.23  4343.80
                             4364.16  4376.50  4378.23  4390.87  4416.91
                             4421.50  4447.60  4469.56  4473.89  4483.15
                             4488.66  4490.98  4492.36  4503.19  4764.96
                             5165.34

 Zero-point correction=                           0.266240 (Hartree/Particle)
 Thermal correction to Energy=                    0.278676
 Thermal correction to Enthalpy=                  0.279620
 Thermal correction to Gibbs Free Energy=         0.227589
 Sum of electronic and zero-point Energies=           -463.036715
 Sum of electronic and thermal Energies=              -463.024279
 Sum of electronic and thermal Enthalpies=            -463.023335
 Sum of electronic and thermal Free Energies=         -463.075366

                     E (Thermal)             CV                S
                      KCal/Mol        Cal/Mol-Kelvin    Cal/Mol-Kelvin
 Total                  174.872             46.801            109.509
 Electronic               0.000              0.000              0.000
 Translational            0.889              2.981             41.008
 Rotational               0.889              2.981             30.404
 Vibrational            173.094             40.839             38.097
 Vibration     1          0.594              1.981              5.201
 Vibration     2          0.595              1.978              4.843
 Vibration     3          0.603              1.954              3.578
 Vibration     4          0.604              1.948              3.434
 Vibration     5          0.638              1.841              2.139
 Vibration     6          0.644              1.821              2.016
 Vibration     7          0.650              1.802              1.915
 Vibration     8          0.653              1.793              1.870
 Vibration     9          0.662              1.764              1.734
 Vibration    10          0.679              1.715              1.547
 Vibration    11          0.684              1.697              1.490
 Vibration    12          0.745              1.526              1.065
 Vibration    13          0.765              1.474              0.969
 Vibration    14          0.798              1.389              0.835
 Vibration    15          0.827              1.317              0.738
 Vibration    16          0.861              1.237              0.644
 Vibration    17          0.888              1.177              0.580
 Vibration    18          0.938              1.072              0.483

 Optimization completed.
    -- Stationary point found.

 1\1\GINC-NODE308\Freq\RB3LYP\6-31G(d)\C9H18N2\VSC10255\08-Dec-2020\0\\
 #N Geom=AllCheck Guess=TCheck SCRF=Check GenChk RB3LYP/6-31G(d) Freq\\
 CID_146642700_JID_1764_neutraal\\0,1\C,0.8964268295,-0.0941596356,-0.1
 083777718\C,1.9042087144,0.9844188992,0.326229935\C,1.799217037,2.2541
 202253,-0.4885088386\C,1.0044688074,3.2984895814,-0.1672851791\N,0.946
 5846236,4.4337627694,-1.0055217769\N,1.2200083206,4.2323041989,-2.3907
 179849\C,2.5598543911,3.6393976989,-2.478289184\C,2.6347715918,2.28335
 6369,-1.7562605278\C,0.1647936211,3.4140155531,1.0898627821\C,0.539434

 Normal termination of Gaussian 16 at Tue Dec  8 21:13:15 2020.

 ----------------------------------------------------------------------
 # B3LYP/6-311++G(d,p) empiricaldispersion=gd3bj scf=xqc pop=npa geom=c
 heck
 ----------------------------------------------------------------------

 ---------------------------------------
 CID_146642700_JID_1764_Energie_neutraal
 ---------------------------------------
 Structure from the checkpoint file:  "JID_1764.chk"
 Charge =  0 Multiplicity = 1

 SCF Done:  E(RB3LYP) =  -463.436207438     A.U. after   13 cycles
 Normal termination of Gaussian 16 at Tue Dec  8 21:15:59 2020.

 ----------------------------------------------------------------------
 # B3LYP/6-311++G(d,p) empiricaldispersion=gd3bj scf=xqc pop=npa geom=c
 heck
 ----------------------------------------------------------------------

 -------------------------------------
 CID_146642700_JID_1764_Energie_kation
 -------------------------------------
 Structure from the checkpoint file:  "JID_1764.chk"
 Charge =  1 Multiplicity = 2

 SCF Done:  E(UB3LYP) =  -463.170988483     A.U. after   18 cycles
 Normal termination of Gaussian 16 at Tue Dec  8 21:21:15 2020.
 Gaussian 16:  ES64L-G16RevA.03 25-Dec-2016

 ------------------------------------
 CID_146642700_JID_1764_Energie_anion
 ------------------------------------
 Structure from the checkpoint file:  "JID_1764.chk"
 Charge = -1 Multiplicity = 2

                         Standard orientation:
 ---------------------------------------------------------------------
 Center     Atomic      Atomic             Coordinates (Angstroms)
 Number     Number       Type             X           Y           Z
 ---------------------------------------------------------------------
      1          6           0        0.790979    2.868277    0.620318
      2          6           0        0.690123    2.009965   -0.652855
      3          6           0        0.760798    0.525644   -0.372209
      4          6           0       -0.316203   -0.252634   -0.127529
      5          7           0       -0.152530   -1.626566    0.155946
      6          7           0        1.080321   -2.023628    0.753050
      7          6           0        2.150995   -1.589979   -0.152489
      8          6           0        2.160181   -0.063298   -0.339422
      9          6           0       -1.762181    0.200295   -0.180687
     10          6           0       -2.578219   -0.620075   -1.196623
     11          6           0       -2.416226    0.168324    1.213979
     12          1           0       -0.062841    2.680245    1.281040
     13          1           0        0.809888    3.938626    0.382448
     14          1           0        1.701756    2.632801    1.182834
     15          1           0       -0.227180    2.275759   -1.189820
     16          1           0        1.515209    2.279555   -1.326438
     17          1           0       -0.923118   -2.056538    0.650471
     18          1           0        1.195702   -1.478000    1.618307
     19          1           0        3.104025   -1.948451    0.251605
     20          1           0        1.975514   -2.095375   -1.106959
     21          1           0        2.748321    0.410471    0.463018
     22          1           0        2.686744    0.192023   -1.271767
     23          1           0       -1.773775    1.240761   -0.515098
     24          1           0       -2.636276   -1.676681   -0.913412
     25          1           0       -3.602395   -0.235452   -1.263444
     26          1           0       -2.123470   -0.569644   -2.190978
     27          1           0       -1.846882    0.772902    1.927888
     28          1           0       -3.438331    0.560731    1.168277
     29          1           0       -2.478916   -0.851474    1.614166
 ---------------------------------------------------------------------

 SCF Done:  E(UB3LYP) =  -463.420068529     A.U. after   32 cycles

 The electronic state is 2-A.
 Alpha  occ. eigenvalues --  -14.22830 -14.22660 -10.08991 -10.08832 -10.07592
 Alpha  occ. eigenvalues --  -10.06374 -10.06252 -10.05641 -10.05464 -10.05296
 Alpha  occ. eigenvalues --  -10.05165  -0.88473  -0.73584  -0.70406  -0.67100
 Alpha  occ. eigenvalues --   -0.63576  -0.58200  -0.57152  -0.54048  -0.50350
 Alpha  occ. eigenvalues --   -0.48088  -0.43617  -0.41081  -0.37349  -0.35545
 Alpha  occ. eigenvalues --   -0.33941  -0.33252  -0.32588  -0.31807  -0.31393
 Alpha  occ. eigenvalues --   -0.30400  -0.28487  -0.27997  -0.27093  -0.25190
 Alpha  occ. eigenvalues --   -0.24670  -0.24349  -0.23936  -0.22951  -0.21255
 Alpha  occ. eigenvalues --   -0.20407  -0.13620  -0.09036   0.04676
 Alpha virt. eigenvalues --    0.06824   0.07400   0.07897   0.09128   0.09625
 Alpha virt. eigenvalues --    0.09886   0.10140   0.10335   0.11657   0.11931
 Alpha virt. eigenvalues --    0.12238   0.12993   0.13371   0.13887   0.14419

  Beta  occ. eigenvalues --  -14.22809 -14.22644 -10.08979 -10.08831 -10.07583
  Beta  occ. eigenvalues --  -10.06351 -10.06238 -10.05613 -10.05416 -10.05296
  Beta  occ. eigenvalues --  -10.05132  -0.88447  -0.73555  -0.70376  -0.67063
  Beta  occ. eigenvalues --   -0.63537  -0.58127  -0.57102  -0.53997  -0.50284
  Beta  occ. eigenvalues --   -0.48019  -0.43573  -0.41039  -0.37318  -0.35515
  Beta  occ. eigenvalues --   -0.33899  -0.33213  -0.32546  -0.31776  -0.31349
  Beta  occ. eigenvalues --   -0.30353  -0.28450  -0.27957  -0.27043  -0.25152
  Beta  occ. eigenvalues --   -0.24634  -0.24313  -0.23898  -0.22904  -0.21229
  Beta  occ. eigenvalues --   -0.20378  -0.13597  -0.09004
  Beta virt. eigenvalues --    0.06926   0.07796   0.08031   0.08368   0.09869
  Beta virt. eigenvalues --    0.10076   0.10305   0.10434   0.10742   0.12112
  Beta virt. eigenvalues --    0.12311   0.12628   0.13400   0.13633   0.14106

 Mulliken charges and spin densities:
               1          2
     1  C    1.242724  -1.888690
     2  C   -2.208585   1.819581
     3  C    0.465911  -0.173738
     4  C    1.270689  -1.201118
     5  N   -0.406559   0.208325
     6  N    0.071550  -0.017207
     7  C    0.240162  -0.855519
     8  C    1.233468  -1.432378
     9  C   -2.333190   2.405069
    10  C    0.447504  -1.048434
    11  C    1.350077  -1.979441
    12  H   -0.060091   0.190540
    13  H   -0.302953   0.427510
    14  H   -0.334007   0.470768
    15  H   -0.338918   0.497347
    16  H   -0.024677   0.154654
    17  H    0.206090   0.048113
    18  H    0.009660   0.203676
    19  H   -0.209841   0.380355
    20  H    0.167791   0.006824
    21  H   -0.071219   0.238999
    22  H   -0.164339   0.291561
    23  H    0.125403   0.021100
    24  H   -0.011232   0.139161
    25  H   -0.445072   0.606088
    26  H    0.041406   0.098840
    27  H   -0.089499   0.227667
    28  H   -0.523024   0.686180
    29  H   -0.349228   0.474168
 Sum of Mulliken charges =  -1.00000   1.00000

 Dipole moment (field-independent basis, Debye):
    X=              2.1589    Y=             -2.1858    Z=             -2.3255  Tot=              3.8531
 Quadrupole moment (field-independent basis, Debye-Ang):
   XX=           -132.9898   YY=           -118.8501   ZZ=           -104.4371
   XY=              0.3693   XZ=             -0.7571   YZ=             -0.9819

 Summary of Natural Population Analysis:

                                       Natural Population
                Natural  -----------------------------------------------
    Atom  No    Charge         Core      Valence    Rydberg      Total
 -----------------------------------------------------------------------
      C    1   -0.27934      0.99966     2.27522    0.00446     3.27934
      C    2   -0.19609      0.99961     2.18762    0.00886     3.19609
      C    3   -0.05003      0.99944     2.03908    0.01151     3.05003
      C    4    0.08569      0.99938     1.90097    0.01396     2.91431
      N    5   -0.23985      0.99967     2.72739    0.01279     3.73985
      N    6   -0.23751      0.99977     2.72444    0.01330     3.73751
      C    7   -0.09003      0.99964     2.07807    0.01232     3.09003
      C    8   -0.20528      0.99960     2.19697    0.00871     3.20528
      C    9   -0.12923      0.99957     2.11889    0.01077     3.12923
      C   10   -0.28003      0.99965     2.27415    0.00623     3.28003
      C   11   -0.28019      0.99965     2.27426    0.00628     3.28019
      H   12    0.09748      0.00000     0.40101    0.00151     0.40252
      H   13    0.09464      0.00000     0.40412    0.00124     0.40536
      H   14    0.09619      0.00000     0.40232    0.00149     0.40381
      H   15    0.09769      0.00000     0.40074    0.00156     0.40231
      H   16    0.09424      0.00000     0.40444    0.00132     0.40576
      H   17    0.18273      0.00000     0.31433    0.00294     0.31727
      H   18    0.15800      0.00000     0.33856    0.00344     0.34200
      H   19    0.09414      0.00000     0.40489    0.00097     0.40586
      H   20    0.09332      0.00000     0.40522    0.00146     0.40668
      H   21    0.09864      0.00000     0.39917    0.00219     0.40136
      H   22    0.09809      0.00000     0.40064    0.00127     0.40191
      H   23    0.10300      0.00000     0.39459    0.00241     0.39700
      H   24    0.09608      0.00000     0.40278    0.00115     0.40392
      H   25    0.09979      0.00000     0.39913    0.00108     0.40021
      H   26    0.10062      0.00000     0.39845    0.00092     0.39938
      H   27    0.10270      0.00000     0.39572    0.00158     0.39730
      H   28    0.10222      0.00000     0.39602    0.00177     0.39778
      H   29    0.09232      0.00000     0.40602    0.00166     0.40768
 =======================================================================
   * Total *   -0.00000     10.99563    31.86520    0.13917    43.00000

 Normal termination of Gaussian 16 at Tue Dec  8 21:33:22 2020.
